<event>
 6    1  0.1723639E-002  0.9432049E+02  0.7546771E-02  0.1389770E+00
         -1   -1    0    0    0  501 -0.00000000000E+00  0.00000000000E+00  0.92229573060E+01  0.92229573060E+01  0.00000000000E+00 0.  1.
          1   -1    0    0  501    0  0.00000000000E+00 -0.00000000000E+00 -0.35976184520E+03  0.35976184520E+03  0.00000000000E+00 0. -1.
         23    2    1    2    0    0  0.12215380057E+02 -0.12627060835E+02 -0.25590210884E+03  0.27273108505E+03  0.92669829319E+02 0.  0.
         13    1    3    3    0    0 -0.93094168778E+01  0.10687341149E+02  0.68446707731E+00  0.14189890719E+02  0.00000000000E+00 0. -1.
        -13    1    3    3    0    0  0.21524796935E+02 -0.23314401983E+02 -0.25658657592E+03  0.25854119433E+03  0.00000000000E+00 0.  1.
         22    1    1    2    0    0 -0.12215380057E+02  0.12627060835E+02 -0.94636779054E+02  0.96253717460E+02  0.00000000000E+00 0. -1.
<mgrwt>
<rscale>  0 0.61963975E+02</rscale>
<asrwt>0</asrwt>
<pdfrwt beam="1">  1        1 0.55347965E-01 0.94320493E+02</pdfrwt>
<pdfrwt beam="2">  1       -1 0.14189168E-02 0.94320493E+02</pdfrwt>
<totfact> 0.68718642E+04</totfact>
</mgrwt>
</event>
<event>
 6    1  0.1723639E-002  0.9639571E+02  0.7546771E-02  0.1386327E+00
         -2   -1    0    0    0  501 -0.00000000000E+00  0.00000000000E+00  0.23743832331E+03  0.23743832331E+03  0.00000000000E+00 0. -1.
          2   -1    0    0  501    0  0.00000000000E+00 -0.00000000000E+00 -0.15572915530E+02  0.15572915530E+02  0.00000000000E+00 0.  1.
         23    2    1    2    0    0 -0.16173614649E+02 -0.64093427233E+01  0.21229547563E+03  0.23315553220E+03  0.94812803638E+02 0.  0.
         13    1    3    3    0    0 -0.64474916627E+01 -0.39963515686E+01 -0.89222227324E+01  0.11710979169E+02  0.00000000000E+00 0.  1.
        -13    1    3    3    0    0 -0.97261229867E+01 -0.24129911547E+01  0.22121769837E+03  0.22144455303E+03  0.00000000000E+00 0. -1.
         22    1    1    2    0    0  0.16173614649E+02  0.64093427233E+01  0.95699321412E+01  0.19855706640E+02  0.00000000000E+00 0.  1.
<mgrwt>
<rscale>  0 0.62829506E+02</rscale>
<asrwt>0</asrwt>
<pdfrwt beam="1">  1        2 0.23958333E-02 0.96395712E+02</pdfrwt>
<pdfrwt beam="2">  1       -2 0.36528970E-01 0.96395712E+02</pdfrwt>
<totfact> 0.26632717E+04</totfact>
</mgrwt>
</event>
<event>
 6    1  0.1723639E-002  0.9124694E+02  0.7546771E-02  0.1428174E+00
         -2   -1    0    0    0  501 -0.00000000000E+00  0.00000000000E+00  0.35900100739E+03  0.35900100739E+03  0.00000000000E+00 0.  1.
          2   -1    0    0  501    0  0.00000000000E+00 -0.00000000000E+00 -0.72473185897E+01  0.72473185897E+01  0.00000000000E+00 0. -1.
         23    2    1    2    0    0  0.62872795052E+01 -0.85907634090E+01  0.32017666226E+03  0.33292506526E+03  0.90623798895E+02 0.  0.
         11    1    3    3    0    0  0.12485247821E+02 -0.47236691218E+02  0.22030265668E+03  0.22565559366E+03  0.00000000000E+00 0.  1.
        -11    1    3    3    0    0 -0.61979683160E+01  0.38645927809E+02  0.99874005575E+02  0.10726947160E+03  0.00000000000E+00 0. -1.
         22    1    1    2    0    0 -0.62872795052E+01  0.85907634090E+01  0.31577026541E+02  0.33323260715E+02  0.00000000000E+00 0.  1.
<mgrwt>
<rscale>  0 0.53328255E+02</rscale>
<asrwt>0</asrwt>
<pdfrwt beam="1">  1        2 0.11149724E-02 0.91246940E+02</pdfrwt>
<pdfrwt beam="2">  1       -2 0.55230910E-01 0.91246940E+02</pdfrwt>
<totfact> 0.33692409E+04</totfact>
</mgrwt>
</event>
<event>
 6    1  0.1723639E-002  0.9570522E+02  0.7546771E-02  0.1369905E+00
         -1   -1    0    0    0  501 -0.00000000000E+00  0.00000000000E+00  0.86858213919E+01  0.86858213919E+01  0.00000000000E+00 0.  1.
          1   -1    0    0  501    0  0.00000000000E+00 -0.00000000000E+00 -0.41804456735E+03  0.41804456735E+03  0.00000000000E+00 0. -1.
         23    2    1    2    0    0  0.14656613630E+02 -0.18054268118E+02 -0.29881911016E+03  0.31377117485E+03  0.92837043525E+02 0.  0.
         11    1    3    3    0    0  0.20768674218E+02 -0.35705379856E+02 -0.29032930523E+03  0.29325299223E+03  0.00000000000E+00 0. -1.
        -11    1    3    3    0    0 -0.61120605880E+01  0.17651111738E+02 -0.84898049335E+01  0.20518182620E+02  0.00000000000E+00 0.  1.
         22    1    1    2    0    0 -0.14656613630E+02  0.18054268118E+02 -0.11053963579E+03  0.11295921388E+03  0.00000000000E+00 0.  1.
<mgrwt>
<rscale>  0 0.67193706E+02</rscale>
<asrwt>0</asrwt>
<pdfrwt beam="1">  1        1 0.64314526E-01 0.95705222E+02</pdfrwt>
<pdfrwt beam="2">  1       -1 0.13362807E-02 0.95705222E+02</pdfrwt>
<totfact> 0.62222987E+04</totfact>
</mgrwt>
</event>
<event>
 6    1  0.1723639E-002  0.1067397E+03  0.7546771E-02  0.1364430E+00
          1   -1    0    0  501    0  0.00000000000E+00  0.00000000000E+00  0.49841531937E+03  0.49841531937E+03  0.00000000000E+00 0. -1.
         -1   -1    0    0    0  501 -0.00000000000E+00 -0.00000000000E+00 -0.78882142086E+01  0.78882142086E+01  0.00000000000E+00 0.  1.
         23    2    1    2    0    0 -0.14069593815E+01  0.18305893372E+02  0.40516540385E+03  0.41898970124E+03  0.10514884689E+03 0.  0.
         13    1    3    3    0    0 -0.25020434677E+02 -0.12028660416E+02  0.35351703986E+03  0.35460542620E+03  0.00000000000E+00 0. -1.
        -13    1    3    3    0    0  0.23613475295E+02  0.30334553787E+02  0.51648363993E+02  0.64384275038E+02  0.00000000000E+00 0.  1.
         22    1    1    2    0    0  0.14069593815E+01 -0.18305893372E+02  0.85361701307E+02  0.87313832334E+02  0.00000000000E+00 0. -1.
<mgrwt>
<rscale>  0 0.68740388E+02</rscale>
<asrwt>0</asrwt>
<pdfrwt beam="1">  1        1 0.76679255E-01 0.10673971E+03</pdfrwt>
<pdfrwt beam="2">  1       -1 0.12135718E-02 0.10673971E+03</pdfrwt>
<totfact> 0.57870975E+04</totfact>
</mgrwt>
</event>
<event>
 6    1  0.1723639E-002  0.9067860E+02  0.7546771E-02  0.1412004E+00
          4   -1    0    0  501    0  0.00000000000E+00  0.00000000000E+00  0.83814134150E+02  0.83814134150E+02  0.00000000000E+00 0. -1.
         -4   -1    0    0    0  501 -0.00000000000E+00 -0.00000000000E+00 -0.50557306354E+02  0.50557306354E+02  0.00000000000E+00 0.  1.
         23    2    1    2    0    0 -0.99750345974E+01  0.96942675371E+01 -0.78086195954E+01  0.91014190732E+02  0.89605402941E+02 0.  0.
         13    1    3    3    0    0  0.12961153218E+02 -0.35901938875E+02  0.47154932326E+01  0.38460064797E+02  0.00000000000E+00 0. -1.
        -13    1    3    3    0    0 -0.22936187815E+02  0.45596206412E+02 -0.12524112828E+02  0.52554125935E+02  0.00000000000E+00 0.  1.
         22    1    1    2    0    0  0.99750345974E+01 -0.96942675371E+01  0.41065447392E+02  0.43357249772E+02  0.00000000000E+00 0. -1.
<mgrwt>
<rscale>  0 0.56748992E+02</rscale>
<asrwt>0</asrwt>
<pdfrwt beam="1">  1        4 0.12894482E-01 0.90678599E+02</pdfrwt>
<pdfrwt beam="2">  1       -4 0.77780471E-02 0.90678599E+02</pdfrwt>
<totfact> 0.82665157E+03</totfact>
</mgrwt>
</event>
<event>
 6    1  0.1723639E-002  0.1033976E+03  0.7546771E-02  0.1316279E+00
          2   -1    0    0  501    0  0.00000000000E+00  0.00000000000E+00  0.11477845622E+03  0.11477845622E+03  0.00000000000E+00 0. -1.
         -2   -1    0    0    0  501 -0.00000000000E+00 -0.00000000000E+00 -0.15532601063E+03  0.15532601063E+03  0.00000000000E+00 0.  1.
         23    2    1    2    0    0  0.45797674724E+02  0.81005614382E+01 -0.13189859688E+03  0.16759564253E+03  0.92347243756E+02 0.  0.
         11    1    3    3    0    0  0.33779731828E+02 -0.11343254112E+01  0.10215250754E+01  0.33814205447E+02  0.00000000000E+00 0. -1.
        -11    1    3    3    0    0  0.12017942895E+02  0.92348868494E+01 -0.13292012195E+03  0.13378143708E+03  0.00000000000E+00 0.  1.
         22    1    1    2    0    0 -0.45797674724E+02 -0.81005614382E+01  0.91351042460E+02  0.10250882432E+03  0.00000000000E+00 0. -1.
<mgrwt>
<rscale>  0 0.84677105E+02</rscale>
<asrwt>0</asrwt>
<pdfrwt beam="1">  1        2 0.17658224E-01 0.10339758E+03</pdfrwt>
<pdfrwt beam="2">  1       -2 0.23896309E-01 0.10339758E+03</pdfrwt>
<totfact> 0.46344258E+03</totfact>
</mgrwt>
</event>
<event>
 6    1  0.1723639E-002  0.9142602E+02  0.7546771E-02  0.1405472E+00
         -2   -1    0    0    0  501 -0.00000000000E+00  0.00000000000E+00  0.17226253919E+04  0.17226253919E+04  0.00000000000E+00 0.  1.
          2   -1    0    0  501    0  0.00000000000E+00 -0.00000000000E+00 -0.33193124268E+01  0.33193124268E+01  0.00000000000E+00 0. -1.
         23    2    1    2    0    0 -0.92361754266E+01 -0.11858029317E+02  0.16943285357E+04  0.16967934181E+04  0.90182021528E+02 0.  0.
         13    1    3    3    0    0  0.11470752447E+02  0.26433550552E+02  0.22730412794E+03  0.22912327978E+03  0.00000000000E+00 0. -1.
        -13    1    3    3    0    0 -0.20706927873E+02 -0.38291579869E+02  0.14670244078E+04  0.14676701384E+04  0.00000000000E+00 0.  1.
         22    1    1    2    0    0  0.92361754266E+01  0.11858029317E+02  0.24977543743E+02  0.29151286202E+02  0.00000000000E+00 0. -1.
<mgrwt>
<rscale>  0 0.58216573E+02</rscale>
<asrwt>0</asrwt>
<pdfrwt beam="1">  1        2 0.51066483E-03 0.91426018E+02</pdfrwt>
<pdfrwt beam="2">  1       -2 0.26501858E+00 0.91426018E+02</pdfrwt>
<totfact> 0.20304779E+03</totfact>
</mgrwt>
</event>
<event>
 6    1  0.1723639E-002  0.9920085E+02  0.7546771E-02  0.1390312E+00
          2   -1    0    0  501    0  0.00000000000E+00  0.00000000000E+00  0.92625025668E+01  0.92625025668E+01  0.00000000000E+00 0.  1.
         -2   -1    0    0    0  501 -0.00000000000E+00 -0.00000000000E+00 -0.36411780911E+03  0.36411780911E+03  0.00000000000E+00 0. -1.
         23    2    1    2    0    0 -0.66213412180E+01 -0.13426389514E+02 -0.32752678221E+03  0.34222010729E+03  0.98064767765E+02 0.  0.
         11    1    3    3    0    0 -0.39327110748E+02 -0.37558332083E+02 -0.23413048374E+03  0.24036292011E+03  0.00000000000E+00 0. -1.
        -11    1    3    3    0    0  0.32705769531E+02  0.24131942568E+02 -0.93396298471E+02  0.10185718718E+03  0.00000000000E+00 0.  1.
         22    1    1    2    0    0  0.66213412180E+01  0.13426389514E+02 -0.27328524333E+02  0.31160204382E+02  0.00000000000E+00 0.  1.
<mgrwt>
<rscale>  0 0.61829285E+02</rscale>
<asrwt>0</asrwt>
<pdfrwt beam="1">  1        2 0.14250003E-02 0.99200851E+02</pdfrwt>
<pdfrwt beam="2">  1       -2 0.56018128E-01 0.99200851E+02</pdfrwt>
<totfact> 0.23707407E+04</totfact>
</mgrwt>
</event>
<event>
 6    1  0.1723639E-002  0.8723568E+02  0.7546771E-02  0.1437645E+00
          2   -1    0    0  501    0  0.00000000000E+00  0.00000000000E+00  0.18644812575E+02  0.18644812575E+02  0.00000000000E+00 0. -1.
         -2   -1    0    0    0  501 -0.00000000000E+00 -0.00000000000E+00 -0.12845989769E+03  0.12845989769E+03  0.00000000000E+00 0.  1.
         23    2    1    2    0    0  0.95645420820E+01  0.44747817922E+01 -0.99782659957E+02  0.13253921364E+03  0.86594224911E+02 0.  0.
         13    1    3    3    0    0  0.41220881379E+02 -0.89659527592E+01 -0.85420729467E+02  0.95269357053E+02  0.00000000000E+00 0.  1.
        -13    1    3    3    0    0 -0.31656339297E+02  0.13440734551E+02 -0.14361930490E+02  0.37269856591E+02  0.00000000000E+00 0. -1.
         22    1    1    2    0    0 -0.95645420820E+01 -0.44747817922E+01 -0.10032425162E+02  0.14565496626E+02  0.00000000000E+00 0. -1.
<mgrwt>
<rscale>  0 0.51455522E+02</rscale>
<asrwt>0</asrwt>
<pdfrwt beam="1">  1        2 0.28684328E-02 0.87235680E+02</pdfrwt>
<pdfrwt beam="2">  1       -2 0.19763061E-01 0.87235680E+02</pdfrwt>
<totfact> 0.60600768E+04</totfact>
</mgrwt>
</event>
<event>
 6    1  0.1723639E-002  0.9277810E+02  0.7546771E-02  0.1428991E+00
         -2   -1    0    0    0  501 -0.00000000000E+00  0.00000000000E+00  0.20818769523E+02  0.20818769523E+02  0.00000000000E+00 0.  1.
          2   -1    0    0  501    0  0.00000000000E+00 -0.00000000000E+00 -0.12953351001E+03  0.12953351001E+03  0.00000000000E+00 0. -1.
         23    2    1    2    0    0  0.99831168525E+01  0.62160503583E+00 -0.10375902109E+03  0.13918947658E+03  0.92237340156E+02 0.  0.
         11    1    3    3    0    0 -0.13035389963E+02 -0.11302733095E+02  0.11706347382E+02  0.20849741868E+02  0.00000000000E+00 0.  1.
        -11    1    3    3    0    0  0.23018506816E+02  0.11924338131E+02 -0.11546536847E+03  0.11833973472E+03  0.00000000000E+00 0. -1.
         22    1    1    2    0    0 -0.99831168525E+01 -0.62160503583E+00 -0.49557193928E+01  0.11162802946E+02  0.00000000000E+00 0. -1.
<mgrwt>
<rscale>  0 0.53163150E+02</rscale>
<asrwt>0</asrwt>
<pdfrwt beam="1">  1        2 0.19928232E-01 0.92778101E+02</pdfrwt>
<pdfrwt beam="2">  1       -2 0.32028876E-02 0.92778101E+02</pdfrwt>
<totfact> 0.91460540E+04</totfact>
</mgrwt>
</event>
<event>
 6    1  0.1723639E-002  0.8856738E+02  0.7546771E-02  0.1427139E+00
         -2   -1    0    0    0  501 -0.00000000000E+00  0.00000000000E+00  0.17783735784E+02  0.17783735784E+02  0.00000000000E+00 0.  1.
          2   -1    0    0  501    0  0.00000000000E+00 -0.00000000000E+00 -0.15483049023E+03  0.15483049023E+03  0.00000000000E+00 0. -1.
         23    2    1    2    0    0  0.54110120349E+01 -0.10515686608E+02 -0.99303167242E+02  0.13306126037E+03  0.87774263150E+02 0.  0.
         13    1    3    3    0    0 -0.88985528364E+01 -0.45073543688E+02 -0.76556243935E+02  0.89284192714E+02  0.00000000000E+00 0. -1.
        -13    1    3    3    0    0  0.14309564871E+02  0.34557857081E+02 -0.22746923308E+02  0.43777067659E+02  0.00000000000E+00 0.  1.
         22    1    1    2    0    0 -0.54110120349E+01  0.10515686608E+02 -0.37743587208E+02  0.39552965646E+02  0.00000000000E+00 0. -1.
<mgrwt>
<rscale>  0 0.53538540E+02</rscale>
<asrwt>0</asrwt>
<pdfrwt beam="1">  1        2 0.23820076E-01 0.88567375E+02</pdfrwt>
<pdfrwt beam="2">  1       -2 0.27359593E-02 0.88567375E+02</pdfrwt>
<totfact> 0.93741836E+04</totfact>
</mgrwt>
</event>
<event>
 6    1  0.1723639E-002  0.9294505E+02  0.7546771E-02  0.1399556E+00
          2   -1    0    0  501    0  0.00000000000E+00  0.00000000000E+00  0.10047159487E+03  0.10047159487E+03  0.00000000000E+00 0. -1.
         -2   -1    0    0    0  501 -0.00000000000E+00 -0.00000000000E+00 -0.30462890137E+02  0.30462890137E+02  0.00000000000E+00 0.  1.
         23    2    1    2    0    0  0.12642378504E+02 -0.93181743602E+01  0.67862818293E+02  0.11508320947E+03  0.91608541560E+02 0.  0.
         11    1    3    3    0    0 -0.36678068130E+02  0.12390528412E+02  0.33292422582E+02  0.51060662721E+02  0.00000000000E+00 0. -1.
        -11    1    3    3    0    0  0.49320446634E+02 -0.21708702772E+02  0.34570395711E+02  0.64022546746E+02  0.00000000000E+00 0.  1.
         22    1    1    2    0    0 -0.12642378504E+02  0.93181743602E+01  0.21458864386E+01  0.15851275540E+02  0.00000000000E+00 0. -1.
<mgrwt>
<rscale>  0 0.59591132E+02</rscale>
<asrwt>0</asrwt>
<pdfrwt beam="1">  1        2 0.15457168E-01 0.92945054E+02</pdfrwt>
<pdfrwt beam="2">  1       -2 0.46865985E-02 0.92945054E+02</pdfrwt>
<totfact> 0.69777373E+04</totfact>
</mgrwt>
</event>
<event>
 6    1  0.1723639E-002  0.9572499E+02  0.7546771E-02  0.1344160E+00
          2   -1    0    0  501    0  0.00000000000E+00  0.00000000000E+00  0.67263934590E+03  0.67263934590E+03  0.00000000000E+00 0. -1.
         -2   -1    0    0    0  501 -0.00000000000E+00 -0.00000000000E+00 -0.65218916416E+01  0.65218916416E+01  0.00000000000E+00 0.  1.
         23    2    1    2    0    0 -0.78702062786E+00 -0.35884244857E+02  0.51677923055E+03  0.52557021082E+03  0.88741055540E+02 0.  0.
         13    1    3    3    0    0  0.82260492564E+01 -0.63832379332E+02  0.30114952820E+03  0.30795012400E+03  0.00000000000E+00 0. -1.
        -13    1    3    3    0    0 -0.90130698843E+01  0.27948134474E+02  0.21562970235E+03  0.21762008682E+03  0.00000000000E+00 0.  1.
         22    1    1    2    0    0  0.78702062786E+00  0.35884244857E+02  0.14933822371E+03  0.15359102672E+03  0.00000000000E+00 0.  1.
<mgrwt>
<rscale>  0 0.74906767E+02</rscale>
<asrwt>0</asrwt>
<pdfrwt beam="1">  1        2 0.10348292E+00 0.95724988E+02</pdfrwt>
<pdfrwt beam="2">  1       -2 0.10033685E-02 0.95724988E+02</pdfrwt>
<totfact> 0.82589647E+04</totfact>
</mgrwt>
</event>
<event>
 6    1  0.1723639E-002  0.9293291E+02  0.7546771E-02  0.1379373E+00
         -2   -1    0    0    0  501 -0.00000000000E+00  0.00000000000E+00  0.16810129201E+02  0.16810129201E+02  0.00000000000E+00 0.  1.
          2   -1    0    0  501    0  0.00000000000E+00 -0.00000000000E+00 -0.21735447111E+03  0.21735447111E+03  0.00000000000E+00 0. -1.
         23    2    1    2    0    0  0.18711684628E+02  0.11061792293E+02 -0.12631700998E+03  0.15682000001E+03  0.90355049678E+02 0.  0.
         13    1    3    3    0    0  0.29383381869E+02  0.21926981396E+02 -0.79984620709E+01  0.37525338622E+02  0.00000000000E+00 0.  1.
        -13    1    3    3    0    0 -0.10671697240E+02 -0.10865189104E+02 -0.11831854791E+03  0.11929466139E+03  0.00000000000E+00 0. -1.
         22    1    1    2    0    0 -0.18711684628E+02 -0.11061792293E+02 -0.74227331930E+02  0.77344600301E+02  0.00000000000E+00 0. -1.
<mgrwt>
<rscale>  0 0.64628826E+02</rscale>
<asrwt>0</asrwt>
<pdfrwt beam="1">  1        2 0.33439149E-01 0.92932908E+02</pdfrwt>
<pdfrwt beam="2">  1       -2 0.25861737E-02 0.92932908E+02</pdfrwt>
<totfact> 0.71106601E+04</totfact>
</mgrwt>
</event>
<event>
 6    1  0.1723639E-002  0.9683396E+02  0.7546771E-02  0.1388333E+00
          4   -1    0    0  501    0  0.00000000000E+00  0.00000000000E+00  0.31695161626E+02  0.31695161626E+02  0.00000000000E+00 0. -1.
         -4   -1    0    0    0  501 -0.00000000000E+00 -0.00000000000E+00 -0.13084892030E+03  0.13084892030E+03  0.00000000000E+00 0.  1.
         23    2    1    2    0    0  0.10227436119E+02  0.13095062339E+02 -0.10687769776E+03  0.14422086327E+03  0.95397767361E+02 0.  0.
         13    1    3    3    0    0 -0.17631578491E+02 -0.35485745869E+02 -0.33325334562E+02  0.51775367151E+02  0.00000000000E+00 0. -1.
        -13    1    3    3    0    0  0.27859014610E+02  0.48580808207E+02 -0.73552363194E+02  0.92445496118E+02  0.00000000000E+00 0.  1.
         22    1    1    2    0    0 -0.10227436119E+02 -0.13095062339E+02  0.77239390782E+01  0.18323218661E+02  0.00000000000E+00 0. -1.
<mgrwt>
<rscale>  0 0.62323286E+02</rscale>
<asrwt>0</asrwt>
<pdfrwt beam="1">  1        4 0.48761787E-02 0.96833956E+02</pdfrwt>
<pdfrwt beam="2">  1       -4 0.20130603E-01 0.96833956E+02</pdfrwt>
<totfact> 0.82328467E+03</totfact>
</mgrwt>
</event>
<event>
 6    1  0.1723639E-002  0.1023587E+03  0.7546771E-02  0.1318098E+00
         -1   -1    0    0    0  501 -0.00000000000E+00  0.00000000000E+00  0.25696529561E+02  0.25696529561E+02  0.00000000000E+00 0.  1.
          1   -1    0    0  501    0  0.00000000000E+00 -0.00000000000E+00 -0.22143256316E+03  0.22143256316E+03  0.00000000000E+00 0. -1.
         23    2    1    2    0    0 -0.26283847914E+02 -0.38237584918E+02 -0.15276981710E+03  0.18389105573E+03  0.91237874819E+02 0.  0.
         11    1    3    3    0    0 -0.12895278283E+02  0.20944201288E+02 -0.10154876285E+03  0.10448492238E+03  0.00000000000E+00 0. -1.
        -11    1    3    3    0    0 -0.13388569632E+02 -0.59181786206E+02 -0.51221054250E+02  0.79406133351E+02  0.00000000000E+00 0.  1.
         22    1    1    2    0    0  0.26283847914E+02  0.38237584918E+02 -0.42966216501E+02  0.63238036987E+02  0.00000000000E+00 0.  1.
<mgrwt>
<rscale>  0 0.83989095E+02</rscale>
<asrwt>0</asrwt>
<pdfrwt beam="1">  1        1 0.34066549E-01 0.10235870E+03</pdfrwt>
<pdfrwt beam="2">  1       -1 0.39533122E-02 0.10235870E+03</pdfrwt>
<totfact> 0.28897096E+04</totfact>
</mgrwt>
</event>
<event>
 6    1  0.1723639E-002  0.9459537E+02  0.7546771E-02  0.1374639E+00
         -2   -1    0    0    0  501 -0.00000000000E+00  0.00000000000E+00  0.24527587417E+02  0.24527587417E+02  0.00000000000E+00 0.  1.
          2   -1    0    0  501    0  0.00000000000E+00 -0.00000000000E+00 -0.17014527658E+03  0.17014527658E+03  0.00000000000E+00 0. -1.
         23    2    1    2    0    0 -0.17250767885E+02  0.14088984750E+02 -0.75283278621E+02  0.12089605334E+03  0.91935821039E+02 0.  0.
         13    1    3    3    0    0  0.17527204710E+02  0.31691448908E+02 -0.73427794167E+02  0.81873022389E+02  0.00000000000E+00 0. -1.
        -13    1    3    3    0    0 -0.34777972596E+02 -0.17602464157E+02 -0.18554844539E+01  0.39023030954E+02  0.00000000000E+00 0.  1.
         22    1    1    2    0    0  0.17250767885E+02 -0.14088984750E+02 -0.70334410546E+02  0.73776810657E+02  0.00000000000E+00 0.  1.
<mgrwt>
<rscale>  0 0.65894216E+02</rscale>
<asrwt>0</asrwt>
<pdfrwt beam="1">  1        2 0.26176196E-01 0.94595368E+02</pdfrwt>
<pdfrwt beam="2">  1       -2 0.37734751E-02 0.94595368E+02</pdfrwt>
<totfact> 0.53433886E+04</totfact>
</mgrwt>
</event>
<event>
 6    1  0.1723639E-002  0.1173151E+03  0.7546771E-02  0.1269602E+00
         -2   -1    0    0    0  501 -0.00000000000E+00  0.00000000000E+00  0.51545964320E+02  0.51545964320E+02  0.00000000000E+00 0.  1.
          2   -1    0    0  501    0  0.00000000000E+00 -0.00000000000E+00 -0.19927156165E+03  0.19927156165E+03  0.00000000000E+00 0. -1.
         23    2    1    2    0    0 -0.30072565469E+02 -0.69840586143E+02 -0.51362721298E+02  0.12806627122E+03  0.89335177940E+02 0.  0.
         13    1    3    3    0    0 -0.45356116304E+02 -0.31337708633E+02 -0.64271556615E+02  0.84676220146E+02  0.00000000000E+00 0. -1.
        -13    1    3    3    0    0  0.15283550835E+02 -0.38502877510E+02  0.12908835317E+02  0.43390051070E+02  0.00000000000E+00 0.  1.
         22    1    1    2    0    0  0.30072565469E+02  0.69840586143E+02 -0.96362876032E+02  0.12275125475E+03  0.00000000000E+00 0.  1.
<mgrwt>
<rscale>  0 0.10526304E+03</rscale>
<asrwt>0</asrwt>
<pdfrwt beam="1">  1        2 0.30657164E-01 0.11731513E+03</pdfrwt>
<pdfrwt beam="2">  1       -2 0.79301482E-02 0.11731513E+03</pdfrwt>
<totfact> 0.15150574E+04</totfact>
</mgrwt>
</event>
<event>
 6    1  0.1723639E-002  0.9328709E+02  0.7546771E-02  0.1378681E+00
          2   -1    0    0  501    0  0.00000000000E+00  0.00000000000E+00  0.17938582284E+03  0.17938582284E+03  0.00000000000E+00 0. -1.
         -2   -1    0    0    0  501 -0.00000000000E+00 -0.00000000000E+00 -0.18885372165E+02  0.18885372165E+02  0.00000000000E+00 0.  1.
         23    2    1    2    0    0  0.11328053050E+01  0.21705049144E+02  0.11695239984E+03  0.14960061726E+03  0.90719834936E+02 0.  0.
         13    1    3    3    0    0  0.33721959054E+02  0.23988638825E+02  0.17521365517E+02  0.44940222125E+02  0.00000000000E+00 0.  1.
        -13    1    3    3    0    0 -0.32589153749E+02 -0.22835896803E+01  0.99431034321E+02  0.10466039514E+03  0.00000000000E+00 0. -1.
         22    1    1    2    0    0 -0.11328053050E+01 -0.21705049144E+02  0.43548050838E+02  0.48670577745E+02  0.00000000000E+00 0. -1.
<mgrwt>
<rscale>  0 0.64811790E+02</rscale>
<asrwt>0</asrwt>
<pdfrwt beam="1">  1        2 0.27597818E-01 0.93287088E+02</pdfrwt>
<pdfrwt beam="2">  1       -2 0.29054420E-02 0.93287088E+02</pdfrwt>
<totfact> 0.73783452E+04</totfact>
</mgrwt>
</event>
<event>
 6    1  0.1723639E-002  0.9883948E+02  0.7546771E-02  0.1409462E+00
          3   -1    0    0  501    0  0.00000000000E+00  0.00000000000E+00  0.57313978180E+02  0.57313978180E+02  0.00000000000E+00 0.  1.
         -3   -1    0    0    0  501 -0.00000000000E+00 -0.00000000000E+00 -0.52830530713E+02  0.52830530713E+02  0.00000000000E+00 0. -1.
         23    2    1    2    0    0 -0.11094537239E+02  0.13401210624E+01  0.49080503896E+01  0.98961263897E+02  0.98205692872E+02 0.  0.
         13    1    3    3    0    0 -0.16753331093E+02 -0.41877826639E+02 -0.19348541976E+02  0.49079451334E+02  0.00000000000E+00 0. -1.
        -13    1    3    3    0    0  0.56587938543E+01  0.43217947701E+02  0.24256592365E+02  0.49881812563E+02  0.00000000000E+00 0.  1.
         22    1    1    2    0    0  0.11094537239E+02 -0.13401210624E+01 -0.42460292259E+00  0.11183244997E+02  0.00000000000E+00 0.  1.
<mgrwt>
<rscale>  0 0.57314101E+02</rscale>
<asrwt>0</asrwt>
<pdfrwt beam="1">  1        3 0.88175351E-02 0.98839480E+02</pdfrwt>
<pdfrwt beam="2">  1       -3 0.81277740E-02 0.98839480E+02</pdfrwt>
<totfact> 0.19690823E+04</totfact>
</mgrwt>
</event>
<event>
 6    1  0.1723639E-002  0.9282834E+02  0.7546771E-02  0.1418783E+00
          4   -1    0    0  501    0  0.00000000000E+00  0.00000000000E+00  0.41581158328E+02  0.41581158328E+02  0.00000000000E+00 0. -1.
         -4   -1    0    0    0  501 -0.00000000000E+00 -0.00000000000E+00 -0.73367832091E+02  0.73367832091E+02  0.00000000000E+00 0.  1.
         23    2    1    2    0    0  0.88427043136E+01 -0.76209657871E+01 -0.39578747753E+02  0.10091371500E+03  0.92091411443E+02 0.  0.
         11    1    3    3    0    0 -0.22626972369E+02 -0.27557126402E+02  0.11704170374E+02  0.37528158738E+02  0.00000000000E+00 0. -1.
        -11    1    3    3    0    0  0.31469676682E+02  0.19936160615E+02 -0.51282918127E+02  0.63385556258E+02  0.00000000000E+00 0.  1.
         22    1    1    2    0    0 -0.88427043136E+01  0.76209657871E+01  0.77920739906E+01  0.14035275422E+02  0.00000000000E+00 0. -1.
<mgrwt>
<rscale>  0 0.55279166E+02</rscale>
<asrwt>0</asrwt>
<pdfrwt beam="1">  1        4 0.63971014E-02 0.92828339E+02</pdfrwt>
<pdfrwt beam="2">  1       -4 0.11287359E-01 0.92828339E+02</pdfrwt>
<totfact> 0.14343420E+04</totfact>
</mgrwt>
</event>
<event>
 6    1  0.1723639E-002  0.9359469E+02  0.7546771E-02  0.1386602E+00
         -4   -1    0    0    0  501 -0.00000000000E+00  0.00000000000E+00  0.23697732949E+02  0.23697732949E+02  0.00000000000E+00 0.  1.
          4   -1    0    0  501    0  0.00000000000E+00 -0.00000000000E+00 -0.13782136656E+03  0.13782136656E+03  0.00000000000E+00 0. -1.
         23    2    1    2    0    0  0.15372269137E+02  0.11033876522E+02 -0.83005685246E+02  0.12509960198E+03  0.91661952543E+02 0.  0.
         13    1    3    3    0    0  0.37005269507E+02 -0.33092269613E+01  0.10091583594E+01  0.37166643041E+02  0.00000000000E+00 0.  1.
        -13    1    3    3    0    0 -0.21633000370E+02  0.14343103483E+02 -0.84014843605E+02  0.87932958943E+02  0.00000000000E+00 0. -1.
         22    1    1    2    0    0 -0.15372269137E+02 -0.11033876522E+02 -0.31117948364E+02  0.36419497524E+02  0.00000000000E+00 0.  1.
<mgrwt>
<rscale>  0 0.62759843E+02</rscale>
<asrwt>0</asrwt>
<pdfrwt beam="1">  1        4 0.21203287E-01 0.93594693E+02</pdfrwt>
<pdfrwt beam="2">  1       -4 0.36458051E-02 0.93594693E+02</pdfrwt>
<totfact> 0.11761459E+04</totfact>
</mgrwt>
</event>
<event>
 6    1  0.1723639E-002  0.9413070E+02  0.7546771E-02  0.1387587E+00
         -2   -1    0    0    0  501 -0.00000000000E+00  0.00000000000E+00  0.74931750708E+01  0.74931750708E+01  0.00000000000E+00 0.  1.
          2   -1    0    0  501    0  0.00000000000E+00 -0.00000000000E+00 -0.43106823262E+03  0.43106823262E+03  0.00000000000E+00 0. -1.
         23    2    1    2    0    0 -0.15733424713E+02 -0.93607586782E+01 -0.37549534909E+03  0.38711412573E+03  0.92333226362E+02 0.  0.
         13    1    3    3    0    0 -0.40231812520E+02 -0.18869880444E+02 -0.34030601267E+03  0.34319506608E+03  0.00000000000E+00 0. -1.
        -13    1    3    3    0    0  0.24498387807E+02  0.95091217653E+01 -0.35189336427E+02  0.43919059644E+02  0.00000000000E+00 0.  1.
         22    1    1    2    0    0  0.15733424713E+02  0.93607586782E+01 -0.48079708453E+02  0.51447281961E+02  0.00000000000E+00 0.  1.
<mgrwt>
<rscale>  0 0.62510895E+02</rscale>
<asrwt>0</asrwt>
<pdfrwt beam="1">  1        2 0.66318217E-01 0.94130702E+02</pdfrwt>
<pdfrwt beam="2">  1       -2 0.11527957E-02 0.94130702E+02</pdfrwt>
<totfact> 0.11040033E+05</totfact>
</mgrwt>
</event>
<event>
 6    1  0.1723639E-002  0.9272001E+02  0.7546771E-02  0.1420229E+00
         -4   -1    0    0    0  501 -0.00000000000E+00  0.00000000000E+00  0.75197386543E+02  0.75197386543E+02  0.00000000000E+00 0.  1.
          4   -1    0    0  501    0  0.00000000000E+00 -0.00000000000E+00 -0.38732827150E+02  0.38732827150E+02  0.00000000000E+00 0. -1.
         23    2    1    2    0    0 -0.10601702723E+02 -0.43428696088E+01  0.41290812323E+02  0.10149842644E+03  0.92009471086E+02 0.  0.
         11    1    3    3    0    0 -0.27851982052E+02  0.24067331621E+02  0.54471777491E+02  0.65743014067E+02  0.00000000000E+00 0.  1.
        -11    1    3    3    0    0  0.17250279329E+02 -0.28410201230E+02 -0.13180965168E+02  0.35755412368E+02  0.00000000000E+00 0. -1.
         22    1    1    2    0    0  0.10601702723E+02  0.43428696088E+01 -0.48262529296E+01  0.12431787257E+02  0.00000000000E+00 0. -1.
<mgrwt>
<rscale>  0 0.54972468E+02</rscale>
<asrwt>0</asrwt>
<pdfrwt beam="1">  1        4 0.59588965E-02 0.92720005E+02</pdfrwt>
<pdfrwt beam="2">  1       -4 0.11568829E-01 0.92720005E+02</pdfrwt>
<totfact> 0.15423733E+04</totfact>
</mgrwt>
</event>
<event>
 6    1  0.1723639E-002  0.9388354E+02  0.7546771E-02  0.1404176E+00
          2   -1    0    0  501    0  0.00000000000E+00  0.00000000000E+00  0.94756047671E+02  0.94756047671E+02  0.00000000000E+00 0. -1.
         -2   -1    0    0    0  501 -0.00000000000E+00 -0.00000000000E+00 -0.31951972667E+02  0.31951972667E+02  0.00000000000E+00 0.  1.
         23    2    1    2    0    0  0.14106891477E+02  0.13003023018E+01  0.45451691610E+02  0.10430711896E+03  0.92808532052E+02 0.  0.
         11    1    3    3    0    0  0.31578740483E+02  0.22863562568E+02  0.61075700283E+02  0.72458267360E+02  0.00000000000E+00 0. -1.
        -11    1    3    3    0    0 -0.17471849006E+02 -0.21563260266E+02 -0.15624008674E+02  0.31848851596E+02  0.00000000000E+00 0.  1.
         22    1    1    2    0    0 -0.14106891477E+02 -0.13003023018E+01  0.17352383395E+02  0.22400901381E+02  0.00000000000E+00 0. -1.
<mgrwt>
<rscale>  0 0.58513921E+02</rscale>
<asrwt>0</asrwt>
<pdfrwt beam="1">  1        2 0.14577853E-01 0.93883538E+02</pdfrwt>
<pdfrwt beam="2">  1       -2 0.49156881E-02 0.93883538E+02</pdfrwt>
<totfact> 0.69666514E+04</totfact>
</mgrwt>
</event>
<event>
 6    1  0.1723639E-002  0.9978417E+02  0.7546771E-02  0.1330511E+00
          1   -1    0    0  501    0  0.00000000000E+00  0.00000000000E+00  0.23316956762E+03  0.23316956762E+03  0.00000000000E+00 0. -1.
         -1   -1    0    0    0  501 -0.00000000000E+00 -0.00000000000E+00 -0.61132122023E+02  0.61132122023E+02  0.00000000000E+00 0.  1.
         23    2    1    2    0    0 -0.36356925779E+02 -0.17107513036E+02  0.21405123735E+03  0.23616691733E+03  0.91336671592E+02 0.  0.
         11    1    3    3    0    0 -0.43434705645E+01  0.68770062803E+01  0.18855616060E+03  0.18873151473E+03  0.00000000000E+00 0. -1.
        -11    1    3    3    0    0 -0.32013455215E+02 -0.23984519316E+02  0.25495076747E+02  0.47435402601E+02  0.00000000000E+00 0.  1.
         22    1    1    2    0    0  0.36356925779E+02  0.17107513036E+02 -0.42013791750E+02  0.58134772311E+02  0.00000000000E+00 0.  1.
<mgrwt>
<rscale>  0 0.79487852E+02</rscale>
<asrwt>0</asrwt>
<pdfrwt beam="1">  1        1 0.35872241E-01 0.99784170E+02</pdfrwt>
<pdfrwt beam="2">  1       -1 0.94049420E-02 0.99784170E+02</pdfrwt>
<totfact> 0.75018679E+03</totfact>
</mgrwt>
</event>
<event>
 6    1  0.1723639E-002  0.9274258E+02  0.7546771E-02  0.1416493E+00
          2   -1    0    0  501    0  0.00000000000E+00  0.00000000000E+00  0.12305307651E+03  0.12305307651E+03  0.00000000000E+00 0. -1.
         -2   -1    0    0    0  501 -0.00000000000E+00 -0.00000000000E+00 -0.23615582111E+02  0.23615582111E+02  0.00000000000E+00 0.  1.
         23    2    1    2    0    0  0.11788625767E+02  0.28453696392E+01  0.74577158080E+02  0.11900814258E+03  0.91946275981E+02 0.  0.
         13    1    3    3    0    0 -0.30370678150E+02  0.29772524833E+02  0.30506448564E+02  0.52339514042E+02  0.00000000000E+00 0.  1.
        -13    1    3    3    0    0  0.42159303917E+02 -0.26927155193E+02  0.44070709516E+02  0.66668628536E+02  0.00000000000E+00 0. -1.
         22    1    1    2    0    0 -0.11788625767E+02 -0.28453696392E+01  0.24860336320E+02  0.27660516044E+02  0.00000000000E+00 0.  1.
<mgrwt>
<rscale>  0 0.55769799E+02</rscale>
<asrwt>0</asrwt>
<pdfrwt beam="1">  1        2 0.18931242E-01 0.92742576E+02</pdfrwt>
<pdfrwt beam="2">  1       -2 0.36331666E-02 0.92742576E+02</pdfrwt>
<totfact> 0.80571209E+04</totfact>
</mgrwt>
</event>
<event>
 6    1  0.1723639E-002  0.9989281E+02  0.7546771E-02  0.1323279E+00
          2   -1    0    0  501    0  0.00000000000E+00  0.00000000000E+00  0.10389476302E+04  0.10389476302E+04  0.00000000000E+00 0.  1.
         -2   -1    0    0    0  501 -0.00000000000E+00 -0.00000000000E+00 -0.54498630232E+01  0.54498630232E+01  0.00000000000E+00 0. -1.
         23    2    1    2    0    0  0.34259191712E+02  0.29960008998E+02  0.82272321691E+03  0.82876538663E+03  0.88922888338E+02 0.  0.
         11    1    3    3    0    0  0.85846248028E+01  0.48195986619E+02  0.71115044380E+03  0.71283343260E+03  0.00000000000E+00 0.  1.
        -11    1    3    3    0    0  0.25674566909E+02 -0.18235977621E+02  0.11157277311E+03  0.11593195403E+03  0.00000000000E+00 0. -1.
         22    1    1    2    0    0 -0.34259191712E+02 -0.29960008998E+02  0.21077455031E+03  0.21563210664E+03  0.00000000000E+00 0.  1.
<mgrwt>
<rscale>  0 0.82069335E+02</rscale>
<asrwt>0</asrwt>
<pdfrwt beam="1">  1        2 0.15983794E+00 0.99892815E+02</pdfrwt>
<pdfrwt beam="2">  1       -2 0.83844129E-03 0.99892815E+02</pdfrwt>
<totfact> 0.62051517E+04</totfact>
</mgrwt>
</event>
<event>
 6    1  0.1723639E-002  0.9573192E+02  0.7546771E-02  0.1346074E+00
          2   -1    0    0  501    0  0.00000000000E+00  0.00000000000E+00  0.41318802355E+03  0.41318802355E+03  0.00000000000E+00 0. -1.
         -2   -1    0    0    0  501 -0.00000000000E+00 -0.00000000000E+00 -0.10701020692E+02  0.10701020692E+02  0.00000000000E+00 0.  1.
         23    2    1    2    0    0  0.25350404340E+02 -0.23729090760E+02  0.32839242137E+03  0.34206166646E+03  0.89212602817E+02 0.  0.
         11    1    3    3    0    0  0.19322934179E+02  0.33237640091E+02  0.13114793267E+03  0.13666710192E+03  0.00000000000E+00 0.  1.
        -11    1    3    3    0    0  0.60274701613E+01 -0.56966730851E+02  0.19724448870E+03  0.20539456454E+03  0.00000000000E+00 0. -1.
         22    1    1    2    0    0 -0.25350404340E+02  0.23729090760E+02  0.74094581493E+02  0.81827377785E+02  0.00000000000E+00 0.  1.
<mgrwt>
<rscale>  0 0.74293030E+02</rscale>
<asrwt>0</asrwt>
<pdfrwt beam="1">  1        2 0.63567376E-01 0.95731924E+02</pdfrwt>
<pdfrwt beam="2">  1       -2 0.16463112E-02 0.95731924E+02</pdfrwt>
<totfact> 0.69636570E+04</totfact>
</mgrwt>
</event>
<event>
 6    1  0.1723639E-002  0.1108948E+03  0.7546771E-02  0.1288844E+00
         -1   -1    0    0    0  501 -0.00000000000E+00  0.00000000000E+00  0.37111466338E+02  0.37111466338E+02  0.00000000000E+00 0.  1.
          1   -1    0    0  501    0  0.00000000000E+00 -0.00000000000E+00 -0.21306454953E+03  0.21306454953E+03  0.00000000000E+00 0. -1.
         23    2    1    2    0    0  0.50131163645E+02  0.37144397334E+02 -0.84286994426E+02  0.13929088769E+03  0.91677773435E+02 0.  0.
         13    1    3    3    0    0  0.14304070533E+01  0.56363304970E+02 -0.29981371728E+02  0.63857269454E+02  0.00000000000E+00 0. -1.
        -13    1    3    3    0    0  0.48700756592E+02 -0.19218907636E+02 -0.54305622698E+02  0.75433618234E+02  0.00000000000E+00 0.  1.
         22    1    1    2    0    0 -0.50131163645E+02 -0.37144397334E+02 -0.91666088766E+02  0.11088512818E+03  0.00000000000E+00 0.  1.
<mgrwt>
<rscale>  0 0.96043210E+02</rscale>
<asrwt>0</asrwt>
<pdfrwt beam="1">  1        1 0.32779161E-01 0.11089479E+03</pdfrwt>
<pdfrwt beam="2">  1       -1 0.57094564E-02 0.11089479E+03</pdfrwt>
<totfact> 0.17822016E+04</totfact>
</mgrwt>
</event>
<event>
 6    1  0.1723639E-002  0.9525276E+02  0.7546771E-02  0.1348529E+00
          2   -1    0    0  501    0  0.00000000000E+00  0.00000000000E+00  0.28127657246E+03  0.28127657246E+03  0.00000000000E+00 0. -1.
         -2   -1    0    0    0  501 -0.00000000000E+00 -0.00000000000E+00 -0.23564432859E+02  0.23564432859E+02  0.00000000000E+00 0.  1.
         23    2    1    2    0    0  0.10364359920E+02 -0.32170225643E+02  0.81331751610E+02  0.12525151609E+03  0.89054730855E+02 0.  0.
         13    1    3    3    0    0 -0.78739982934E+01 -0.27644113138E+02 -0.11186827495E+02  0.30843831631E+02  0.00000000000E+00 0.  1.
        -13    1    3    3    0    0  0.18238358214E+02 -0.45261125051E+01  0.92518579105E+02  0.94407684456E+02  0.00000000000E+00 0. -1.
         22    1    1    2    0    0 -0.10364359920E+02  0.32170225643E+02  0.17638038799E+03  0.17958948923E+03  0.00000000000E+00 0.  1.
<mgrwt>
<rscale>  0 0.73516151E+02</rscale>
<asrwt>0</asrwt>
<pdfrwt beam="1">  1        2 0.43273317E-01 0.95252761E+02</pdfrwt>
<pdfrwt beam="2">  1       -2 0.36252975E-02 0.95252761E+02</pdfrwt>
<totfact> 0.33241291E+04</totfact>
</mgrwt>
</event>
<event>
 6    1  0.1723639E-002  0.9340524E+02  0.7546771E-02  0.1422797E+00
         -1   -1    0    0    0  501 -0.00000000000E+00  0.00000000000E+00  0.28055834456E+02  0.28055834456E+02  0.00000000000E+00 0.  1.
          1   -1    0    0  501    0  0.00000000000E+00 -0.00000000000E+00 -0.96812691852E+02  0.96812691852E+02  0.00000000000E+00 0. -1.
         23    2    1    2    0    0 -0.71318720866E+01  0.80747329095E+01 -0.60381448737E+02  0.11122256056E+03  0.92781860914E+02 0.  0.
         11    1    3    3    0    0 -0.11750881467E+02  0.14311070214E+02  0.21841254209E+02  0.28634425633E+02  0.00000000000E+00 0.  1.
        -11    1    3    3    0    0  0.46190093806E+01 -0.62363373047E+01 -0.82222702946E+02  0.82588134925E+02  0.00000000000E+00 0. -1.
         22    1    1    2    0    0  0.71318720866E+01 -0.80747329095E+01 -0.83754086595E+01  0.13645965749E+02  0.00000000000E+00 0. -1.
<mgrwt>
<rscale>  0 0.54433473E+02</rscale>
<asrwt>0</asrwt>
<pdfrwt beam="1">  1        1 0.14894260E-01 0.93405239E+02</pdfrwt>
<pdfrwt beam="2">  1       -1 0.43162822E-02 0.93405239E+02</pdfrwt>
<totfact> 0.70724516E+04</totfact>
</mgrwt>
</event>
<event>
 6    1  0.1723639E-002  0.9239232E+02  0.7546771E-02  0.1391312E+00
         -3   -1    0    0    0  501 -0.00000000000E+00  0.00000000000E+00  0.28790232615E+02  0.28790232615E+02  0.00000000000E+00 0.  1.
          3   -1    0    0  501    0  0.00000000000E+00 -0.00000000000E+00 -0.10629296602E+03  0.10629296602E+03  0.00000000000E+00 0. -1.
         23    2    1    2    0    0  0.17722369832E+02  0.42917297472E+01 -0.65435894219E+02  0.11321747329E+03  0.90575044412E+02 0.  0.
         13    1    3    3    0    0  0.25798696768E+02  0.15855501384E+02 -0.84351344341E+02  0.89622089750E+02  0.00000000000E+00 0. -1.
        -13    1    3    3    0    0 -0.80763269356E+01 -0.11563771637E+02  0.18915450123E+02  0.23595383544E+02  0.00000000000E+00 0.  1.
         22    1    1    2    0    0 -0.17722369832E+02 -0.42917297472E+01 -0.12066839187E+02  0.21865725340E+02  0.00000000000E+00 0. -1.
<mgrwt>
<rscale>  0 0.61581614E+02</rscale>
<asrwt>0</asrwt>
<pdfrwt beam="1">  1        3 0.16352764E-01 0.92392316E+02</pdfrwt>
<pdfrwt beam="2">  1       -3 0.44292666E-02 0.92392316E+02</pdfrwt>
<totfact> 0.18133440E+04</totfact>
</mgrwt>
</event>
<event>
 6    1  0.1723639E-002  0.1050573E+03  0.7546771E-02  0.1306704E+00
          2   -1    0    0  501    0  0.00000000000E+00  0.00000000000E+00  0.26058708963E+03  0.26058708963E+03  0.00000000000E+00 0. -1.
         -2   -1    0    0    0  501 -0.00000000000E+00 -0.00000000000E+00 -0.26232926417E+03  0.26232926417E+03  0.00000000000E+00 0.  1.
         23    2    1    2    0    0  0.32008192811E+02 -0.41907564999E+02 -0.24891699888E+03  0.27017901545E+03  0.90863962320E+02 0.  0.
         11    1    3    3    0    0  0.44689189022E+02 -0.39831731996E+02 -0.25020313306E+03  0.25726503509E+03  0.00000000000E+00 0.  1.
        -11    1    3    3    0    0 -0.12680996211E+02 -0.20758330022E+01  0.12861341800E+01  0.12913980358E+02  0.00000000000E+00 0. -1.
         22    1    1    2    0    0 -0.32008192811E+02  0.41907564999E+02  0.24717482434E+03  0.25273733836E+03  0.00000000000E+00 0. -1.
<mgrwt>
<rscale>  0 0.88428072E+02</rscale>
<asrwt>0</asrwt>
<pdfrwt beam="1">  1        2 0.40090322E-01 0.10505726E+03</pdfrwt>
<pdfrwt beam="2">  1       -2 0.40358348E-01 0.10505726E+03</pdfrwt>
<totfact> 0.73869118E+02</totfact>
</mgrwt>
</event>
<event>
 6    1  0.1723639E-002  0.9105005E+02  0.7546771E-02  0.1418331E+00
         -4   -1    0    0    0  501 -0.00000000000E+00  0.00000000000E+00  0.86443341495E+02  0.86443341495E+02  0.00000000000E+00 0.  1.
          4   -1    0    0  501    0  0.00000000000E+00 -0.00000000000E+00 -0.32210066684E+02  0.32210066684E+02  0.00000000000E+00 0. -1.
         23    2    1    2    0    0  0.11571675479E+02  0.46136707812E+01  0.54644444647E+02  0.10618911148E+03  0.90193804862E+02 0.  0.
         13    1    3    3    0    0  0.45775900383E+02  0.23924043093E+02  0.28323026381E+02  0.58906593155E+02  0.00000000000E+00 0. -1.
        -13    1    3    3    0    0 -0.34204224903E+02 -0.19310372312E+02  0.26321418265E+02  0.47282518329E+02  0.00000000000E+00 0.  1.
         22    1    1    2    0    0 -0.11571675479E+02 -0.46136707812E+01 -0.41116983533E+00  0.12464296695E+02  0.00000000000E+00 0.  1.
<mgrwt>
<rscale>  0 0.55375542E+02</rscale>
<asrwt>0</asrwt>
<pdfrwt beam="1">  1        4 0.49553949E-02 0.91050053E+02</pdfrwt>
<pdfrwt beam="2">  1       -4 0.13298976E-01 0.91050053E+02</pdfrwt>
<totfact> 0.16259924E+04</totfact>
</mgrwt>
</event>
<event>
 6    1  0.1723639E-002  0.8987709E+02  0.7546771E-02  0.1398738E+00
          3   -1    0    0  501    0  0.00000000000E+00  0.00000000000E+00  0.81268903760E+02  0.81268903760E+02  0.00000000000E+00 0. -1.
         -3   -1    0    0    0  501 -0.00000000000E+00 -0.00000000000E+00 -0.37708857992E+02  0.37708857992E+02  0.00000000000E+00 0.  1.
         23    2    1    2    0    0  0.61431625063E+01 -0.16488488356E+02  0.46410801545E+02  0.10115262494E+03  0.88137859848E+02 0.  0.
         13    1    3    3    0    0  0.36665655263E+02  0.32926378594E+01  0.52655979819E+02  0.64248454850E+02  0.00000000000E+00 0. -1.
        -13    1    3    3    0    0 -0.30522492757E+02 -0.19781126215E+02 -0.62451782737E+01  0.36904170091E+02  0.00000000000E+00 0.  1.
         22    1    1    2    0    0 -0.61431625063E+01  0.16488488356E+02 -0.28507557767E+01  0.17825136811E+02  0.00000000000E+00 0.  1.
<mgrwt>
<rscale>  0 0.59784471E+02</rscale>
<asrwt>0</asrwt>
<pdfrwt beam="1">  1        3 0.12502908E-01 0.89877088E+02</pdfrwt>
<pdfrwt beam="2">  1       -3 0.58013628E-02 0.89877088E+02</pdfrwt>
<totfact> 0.18546007E+04</totfact>
</mgrwt>
</event>
<event>
 6    1  0.1723639E-002  0.9030771E+02  0.7546771E-02  0.1422642E+00
          3   -1    0    0  501    0  0.00000000000E+00  0.00000000000E+00  0.13480284903E+03  0.13480284903E+03  0.00000000000E+00 0. -1.
         -3   -1    0    0    0  501 -0.00000000000E+00 -0.00000000000E+00 -0.19526531956E+02  0.19526531956E+02  0.00000000000E+00 0.  1.
         23    2    1    2    0    0 -0.31041365476E+00 -0.11944801310E+02  0.97366997958E+02  0.13279990477E+03  0.89513729564E+02 0.  0.
         13    1    3    3    0    0  0.28244360897E+02 -0.37565016564E+02  0.74655924937E+02  0.88217807274E+02  0.00000000000E+00 0. -1.
        -13    1    3    3    0    0 -0.28554774552E+02  0.25620215254E+02  0.22711073021E+02  0.44582097496E+02  0.00000000000E+00 0.  1.
         22    1    1    2    0    0  0.31041365476E+00  0.11944801310E+02  0.17909319114E+02  0.21529476215E+02  0.00000000000E+00 0.  1.
<mgrwt>
<rscale>  0 0.54465940E+02</rscale>
<asrwt>0</asrwt>
<pdfrwt beam="1">  1        3 0.20738899E-01 0.90307710E+02</pdfrwt>
<pdfrwt beam="2">  1       -3 0.30040819E-02 0.90307710E+02</pdfrwt>
<totfact> 0.21771839E+04</totfact>
</mgrwt>
</event>
<event>
 6    1  0.1723639E-002  0.8461540E+02  0.7546771E-02  0.1425693E+00
         -2   -1    0    0    0  501 -0.00000000000E+00  0.00000000000E+00  0.59270973851E+01  0.59270973851E+01  0.00000000000E+00 0.  1.
          2   -1    0    0  501    0  0.00000000000E+00 -0.00000000000E+00 -0.40925772813E+03  0.40925772813E+03  0.00000000000E+00 0. -1.
         23    2    1    2    0    0 -0.12671450334E+02  0.56256252277E+01 -0.34332511587E+03  0.35359850294E+03  0.83471868210E+02 0.  0.
         13    1    3    3    0    0  0.17426816106E+02  0.32461259682E+02 -0.92754687870E+02  0.99804105235E+02  0.00000000000E+00 0.  1.
        -13    1    3    3    0    0 -0.30098266441E+02 -0.26835634455E+02 -0.25057042800E+03  0.25379439771E+03  0.00000000000E+00 0. -1.
         22    1    1    2    0    0  0.12671450334E+02 -0.56256252277E+01 -0.60005514876E+02  0.61586322575E+02  0.00000000000E+00 0. -1.
<mgrwt>
<rscale>  0 0.53834415E+02</rscale>
<asrwt>0</asrwt>
<pdfrwt beam="1">  1        2 0.62962718E-01 0.84615401E+02</pdfrwt>
<pdfrwt beam="2">  1       -2 0.91186127E-03 0.84615401E+02</pdfrwt>
<totfact> 0.15985118E+05</totfact>
</mgrwt>
</event>
<event>
 6    1  0.1723639E-002  0.9152985E+02  0.7546771E-02  0.1420822E+00
          2   -1    0    0  501    0  0.00000000000E+00  0.00000000000E+00  0.43987463382E+02  0.43987463382E+02  0.00000000000E+00 0. -1.
         -2   -1    0    0    0  501 -0.00000000000E+00 -0.00000000000E+00 -0.62355240971E+02  0.62355240971E+02  0.00000000000E+00 0.  1.
         23    2    1    2    0    0 -0.36944246052E+01 -0.11208207498E+02 -0.10434585646E+02  0.92122710581E+02  0.90765855578E+02 0.  0.
         11    1    3    3    0    0  0.22628091673E+02  0.21992268443E+02  0.22251202357E+02  0.38610962308E+02  0.00000000000E+00 0. -1.
        -11    1    3    3    0    0 -0.26322516278E+02 -0.33200475941E+02 -0.32685788003E+02  0.53511748273E+02  0.00000000000E+00 0.  1.
         22    1    1    2    0    0  0.36944246052E+01  0.11208207498E+02 -0.79331919420E+01  0.14219993772E+02  0.00000000000E+00 0.  1.
<mgrwt>
<rscale>  0 0.54847306E+02</rscale>
<asrwt>0</asrwt>
<pdfrwt beam="1">  1        2 0.67673020E-02 0.91529849E+02</pdfrwt>
<pdfrwt beam="2">  1       -2 0.95931140E-02 0.91529849E+02</pdfrwt>
<totfact> 0.63920983E+04</totfact>
</mgrwt>
</event>
<event>
 6    1  0.1723639E-002  0.9648006E+02  0.7546771E-02  0.1414813E+00
          2   -1    0    0  501    0  0.00000000000E+00  0.00000000000E+00  0.48023253017E+02  0.48023253017E+02  0.00000000000E+00 0. -1.
         -2   -1    0    0    0  501 -0.00000000000E+00 -0.00000000000E+00 -0.61299316009E+02  0.61299316009E+02  0.00000000000E+00 0.  1.
         23    2    1    2    0    0  0.92191019776E+01  0.61017276141E+01 -0.16331801621E+02  0.97852588219E+02  0.95844553083E+02 0.  0.
         11    1    3    3    0    0  0.15456588842E+02  0.31947347756E+02  0.28643062507E+02  0.45606624487E+02  0.00000000000E+00 0. -1.
        -11    1    3    3    0    0 -0.62374868648E+01 -0.25845620142E+02 -0.44974864129E+02  0.52245963732E+02  0.00000000000E+00 0.  1.
         22    1    1    2    0    0 -0.92191019776E+01 -0.61017276141E+01  0.30557386285E+01  0.11469980807E+02  0.00000000000E+00 0. -1.
<mgrwt>
<rscale>  0 0.56133516E+02</rscale>
<asrwt>0</asrwt>
<pdfrwt beam="1">  1        2 0.73881928E-02 0.96480056E+02</pdfrwt>
<pdfrwt beam="2">  1       -2 0.94306640E-02 0.96480056E+02</pdfrwt>
<totfact> 0.59233750E+04</totfact>
</mgrwt>
</event>
<event>
 6    1  0.1723639E-002  0.9516478E+02  0.7546771E-02  0.1368667E+00
          4   -1    0    0  501    0  0.00000000000E+00  0.00000000000E+00  0.12193832501E+02  0.12193832501E+02  0.00000000000E+00 0. -1.
         -4   -1    0    0    0  501 -0.00000000000E+00 -0.00000000000E+00 -0.30088068404E+03  0.30088068404E+03  0.00000000000E+00 0.  1.
         23    2    1    2    0    0  0.21489560972E+02 -0.11003846455E+02 -0.20569711319E+03  0.22664429880E+03  0.92051344023E+02 0.  0.
         13    1    3    3    0    0 -0.31710235985E+02  0.15034628333E+02 -0.91531978641E+02  0.98028986679E+02  0.00000000000E+00 0.  1.
        -13    1    3    3    0    0  0.53199796957E+02 -0.26038474788E+02 -0.11416513454E+03  0.12861531212E+03  0.00000000000E+00 0. -1.
         22    1    1    2    0    0 -0.21489560972E+02  0.11003846455E+02 -0.82989738350E+02  0.86430217742E+02  0.00000000000E+00 0.  1.
<mgrwt>
<rscale>  0 0.67539079E+02</rscale>
<asrwt>0</asrwt>
<pdfrwt beam="1">  1        4 0.18759742E-02 0.95164782E+02</pdfrwt>
<pdfrwt beam="2">  1       -4 0.46289336E-01 0.95164782E+02</pdfrwt>
<totfact> 0.75502031E+03</totfact>
</mgrwt>
</event>
<event>
 6    1  0.1723639E-002  0.1171438E+03  0.7546771E-02  0.1275549E+00
          2   -1    0    0  501    0  0.00000000000E+00  0.00000000000E+00  0.83288718926E+02  0.83288718926E+02  0.00000000000E+00 0. -1.
         -2   -1    0    0    0  501 -0.00000000000E+00 -0.00000000000E+00 -0.10608731348E+03  0.10608731348E+03  0.00000000000E+00 0.  1.
         23    2    1    2    0    0  0.66027042243E+02  0.16712227640E+02 -0.29894514251E+02  0.12089814593E+03  0.95309028147E+02 0.  0.
         11    1    3    3    0    0  0.43887738668E+02 -0.25485314726E+02  0.17505980198E+02  0.53685139609E+02  0.00000000000E+00 0. -1.
        -11    1    3    3    0    0  0.22139303575E+02  0.42197542365E+02 -0.47400494448E+02  0.67213006319E+02  0.00000000000E+00 0.  1.
         22    1    1    2    0    0 -0.66027042243E+02 -0.16712227640E+02  0.70959196982E+01  0.68477886477E+02  0.00000000000E+00 0. -1.
<mgrwt>
<rscale>  0 0.10229187E+03</rscale>
<asrwt>0</asrwt>
<pdfrwt beam="1">  1        2 0.12813649E-01 0.11714384E+03</pdfrwt>
<pdfrwt beam="2">  1       -2 0.16321125E-01 0.11714384E+03</pdfrwt>
<totfact> 0.12909538E+04</totfact>
</mgrwt>
</event>
<event>
 6    1  0.1723639E-002  0.8288936E+02  0.7546771E-02  0.1435120E+00
         -3   -1    0    0    0  501 -0.00000000000E+00  0.00000000000E+00  0.38725487326E+02  0.38725487326E+02  0.00000000000E+00 0.  1.
          3   -1    0    0  501    0  0.00000000000E+00 -0.00000000000E+00 -0.10731671168E+03  0.10731671168E+03  0.00000000000E+00 0. -1.
         23    2    1    2    0    0 -0.15546725140E+01  0.12690354376E+02 -0.70518957431E+01  0.83188789659E+02  0.81897395505E+02 0.  0.
         11    1    3    3    0    0 -0.29738995407E+01 -0.11473778518E+02 -0.40331543089E+02  0.42037186393E+02  0.00000000000E+00 0. -1.
        -11    1    3    3    0    0  0.14192270267E+01  0.24164132893E+02  0.33279647346E+02  0.41151603265E+02  0.00000000000E+00 0.  1.
         22    1    1    2    0    0  0.15546725140E+01 -0.12690354376E+02 -0.61539328610E+02  0.62853409348E+02  0.00000000000E+00 0. -1.
<mgrwt>
<rscale>  0 0.51945892E+02</rscale>
<asrwt>0</asrwt>
<pdfrwt beam="1">  1        3 0.16510264E-01 0.82889357E+02</pdfrwt>
<pdfrwt beam="2">  1       -3 0.59577672E-02 0.82889357E+02</pdfrwt>
<totfact> 0.10900776E+04</totfact>
</mgrwt>
</event>
<event>
 6    1  0.1723639E-002  0.9718436E+02  0.7546771E-02  0.1354726E+00
          2   -1    0    0  501    0  0.00000000000E+00  0.00000000000E+00  0.71441858714E+02  0.71441858714E+02  0.00000000000E+00 0. -1.
         -2   -1    0    0    0  501 -0.00000000000E+00 -0.00000000000E+00 -0.77923485516E+02  0.77923485516E+02  0.00000000000E+00 0.  1.
         23    2    1    2    0    0  0.25557741359E+02 -0.12919039119E+02 -0.40161979755E+02  0.10515600257E+03  0.92869265870E+02 0.  0.
         11    1    3    3    0    0  0.57526844071E+02 -0.17932357327E+02 -0.10315435577E+02  0.61133586835E+02  0.00000000000E+00 0. -1.
        -11    1    3    3    0    0 -0.31969102712E+02  0.50133182079E+01 -0.29846544178E+02  0.44022415734E+02  0.00000000000E+00 0.  1.
         22    1    1    2    0    0 -0.25557741359E+02  0.12919039119E+02  0.33680352952E+02  0.44209341662E+02  0.00000000000E+00 0.  1.
<mgrwt>
<rscale>  0 0.71602902E+02</rscale>
<asrwt>0</asrwt>
<pdfrwt beam="1">  1        2 0.10991055E-01 0.97184362E+02</pdfrwt>
<pdfrwt beam="2">  1       -2 0.11988229E-01 0.97184362E+02</pdfrwt>
<totfact> 0.25005158E+04</totfact>
</mgrwt>
</event>
<event>
 6    1  0.1723639E-002  0.9489395E+02  0.7546771E-02  0.1363988E+00
          4   -1    0    0  501    0  0.00000000000E+00  0.00000000000E+00  0.15800943637E+02  0.15800943637E+02  0.00000000000E+00 0.  1.
         -4   -1    0    0    0  501 -0.00000000000E+00 -0.00000000000E+00 -0.23374430029E+03  0.23374430029E+03  0.00000000000E+00 0. -1.
         23    2    1    2    0    0 -0.58523832323E+01 -0.25664151688E+02 -0.17786194756E+03  0.20159299240E+03  0.91169968324E+02 0.  0.
         13    1    3    3    0    0  0.94926902322E+01 -0.55415615166E+02 -0.77145814488E+02  0.95459301616E+02  0.00000000000E+00 0.  1.
        -13    1    3    3    0    0 -0.15345073464E+02  0.29751463478E+02 -0.10071613307E+03  0.10613369079E+03  0.00000000000E+00 0. -1.
         22    1    1    2    0    0  0.58523832323E+01  0.25664151688E+02 -0.40081409090E+02  0.47952251521E+02  0.00000000000E+00 0.  1.
<mgrwt>
<rscale>  0 0.68867235E+02</rscale>
<asrwt>0</asrwt>
<pdfrwt beam="1">  1        4 0.24309146E-02 0.94893952E+02</pdfrwt>
<pdfrwt beam="2">  1       -4 0.35960659E-01 0.94893952E+02</pdfrwt>
<totfact> 0.83153875E+03</totfact>
</mgrwt>
</event>
<event>
 6    1  0.1723639E-002  0.9089046E+02  0.7546771E-02  0.1400424E+00
          1   -1    0    0  501    0  0.00000000000E+00  0.00000000000E+00  0.11948611721E+03  0.11948611721E+03  0.00000000000E+00 0. -1.
         -1   -1    0    0    0  501 -0.00000000000E+00 -0.00000000000E+00 -0.29015666660E+02  0.29015666660E+02  0.00000000000E+00 0.  1.
         23    2    1    2    0    0  0.45177917960E-01  0.16565292800E+02  0.47724307732E+02  0.10265809627E+03  0.89368138705E+02 0.  0.
         11    1    3    3    0    0  0.25923633977E+02 -0.27378253662E+02  0.93795321818E+01  0.38853303541E+02  0.00000000000E+00 0.  1.
        -11    1    3    3    0    0 -0.25878456059E+02  0.43943546462E+02  0.38344775550E+02  0.63804792733E+02  0.00000000000E+00 0. -1.
         22    1    1    2    0    0 -0.45177917960E-01 -0.16565292800E+02  0.42746142822E+02  0.45843687600E+02  0.00000000000E+00 0. -1.
<mgrwt>
<rscale>  0 0.59386660E+02</rscale>
<asrwt>0</asrwt>
<pdfrwt beam="1">  1        1 0.18382479E-01 0.90890457E+02</pdfrwt>
<pdfrwt beam="2">  1       -1 0.44639488E-02 0.90890457E+02</pdfrwt>
<totfact> 0.51335361E+04</totfact>
</mgrwt>
</event>
<event>
 6    1  0.1723639E-002  0.1049580E+03  0.7546771E-02  0.1329397E+00
         -2   -1    0    0    0  501 -0.00000000000E+00  0.00000000000E+00  0.39850266426E+02  0.39850266426E+02  0.00000000000E+00 0. -1.
          2   -1    0    0  501    0  0.00000000000E+00 -0.00000000000E+00 -0.16819232641E+03  0.16819232641E+03  0.00000000000E+00 0.  1.
         23    2    1    2    0    0  0.34131820777E+02  0.86484042519E+01 -0.38926257178E+02  0.11194388381E+03  0.98875697409E+02 0.  0.
         13    1    3    3    0    0 -0.30136262577E+02 -0.18049432992E+02 -0.16638597125E+02  0.38869258647E+02  0.00000000000E+00 0. -1.
        -13    1    3    3    0    0  0.64268083354E+02  0.26697837244E+02 -0.22287660054E+02  0.73074625160E+02  0.00000000000E+00 0.  1.
         22    1    1    2    0    0 -0.34131820777E+02 -0.86484042519E+01 -0.89415802809E+02  0.96098709032E+02  0.00000000000E+00 0. -1.
<mgrwt>
<rscale>  0 0.79878433E+02</rscale>
<asrwt>0</asrwt>
<pdfrwt beam="1">  1        2 0.25875743E-01 0.10495799E+03</pdfrwt>
<pdfrwt beam="2">  1       -2 0.61308101E-02 0.10495799E+03</pdfrwt>
<totfact> 0.26631796E+04</totfact>
</mgrwt>
</event>
<event>
 6    1  0.1723639E-002  0.9383618E+02  0.7546771E-02  0.1388507E+00
          2   -1    0    0  501    0  0.00000000000E+00  0.00000000000E+00  0.19444693397E+03  0.19444693397E+03  0.00000000000E+00 0. -1.
         -2   -1    0    0    0  501 -0.00000000000E+00 -0.00000000000E+00 -0.16556400207E+02  0.16556400207E+02  0.00000000000E+00 0.  1.
         23    2    1    2    0    0  0.18137171545E+02  0.16091361755E+01  0.15993834531E+03  0.18543328566E+03  0.92052608977E+02 0.  0.
         11    1    3    3    0    0 -0.13564057135E+02  0.22201242240E+02  0.14057155463E+03  0.14295887792E+03  0.00000000000E+00 0. -1.
        -11    1    3    3    0    0  0.31701228680E+02 -0.20592106065E+02  0.19366790673E+02  0.42474407741E+02  0.00000000000E+00 0.  1.
         22    1    1    2    0    0 -0.18137171545E+02 -0.16091361755E+01  0.17952188456E+02  0.25570048519E+02  0.00000000000E+00 0. -1.
<mgrwt>
<rscale>  0 0.62279594E+02</rscale>
<asrwt>0</asrwt>
<pdfrwt beam="1">  1        2 0.29914911E-01 0.93836182E+02</pdfrwt>
<pdfrwt beam="2">  1       -2 0.25471386E-02 0.93836182E+02</pdfrwt>
<totfact> 0.81962152E+04</totfact>
</mgrwt>
</event>
<event>
 6    1  0.1723639E-002  0.9292603E+02  0.7546771E-02  0.1392106E+00
          1   -1    0    0  501    0  0.00000000000E+00  0.00000000000E+00  0.81397360695E+01  0.81397360695E+01  0.00000000000E+00 0. -1.
         -1   -1    0    0    0  501 -0.00000000000E+00 -0.00000000000E+00 -0.38492277370E+03  0.38492277370E+03  0.00000000000E+00 0.  1.
         23    2    1    2    0    0 -0.12079797763E+01 -0.17654287790E+02 -0.33583943449E+03  0.34845856678E+03  0.91225620896E+02 0.  0.
         13    1    3    3    0    0 -0.40503560107E+02 -0.11678071729E+02 -0.25403922058E+03  0.25751279839E+03  0.00000000000E+00 0.  1.
        -13    1    3    3    0    0  0.39295580330E+02 -0.59762160605E+01 -0.81800213914E+02  0.90945768391E+02  0.00000000000E+00 0. -1.
         22    1    1    2    0    0  0.12079797763E+01  0.17654287790E+02 -0.40943603136E+02  0.44603942990E+02  0.00000000000E+00 0. -1.
<mgrwt>
<rscale>  0 0.61385975E+02</rscale>
<asrwt>0</asrwt>
<pdfrwt beam="1">  1        1 0.12522674E-02 0.92926030E+02</pdfrwt>
<pdfrwt beam="2">  1       -1 0.59218876E-01 0.92926030E+02</pdfrwt>
<totfact> 0.30836438E+04</totfact>
</mgrwt>
</event>
<event>
 6    1  0.1723639E-002  0.9499363E+02  0.7546771E-02  0.1379707E+00
         -2   -1    0    0    0  501 -0.00000000000E+00  0.00000000000E+00  0.20423752059E+03  0.20423752059E+03  0.00000000000E+00 0.  1.
          2   -1    0    0  501    0  0.00000000000E+00 -0.00000000000E+00 -0.38023238982E+02  0.38023238982E+02  0.00000000000E+00 0. -1.
         23    2    1    2    0    0  0.18644244033E+02  0.78825562790E+01  0.18915389704E+03  0.21166715754E+03  0.92811886554E+02 0.  0.
         11    1    3    3    0    0  0.10597272158E+02  0.22899202118E+01  0.19810106506E+03  0.19839752491E+03  0.00000000000E+00 0.  1.
        -11    1    3    3    0    0  0.80469718753E+01  0.55926360671E+01 -0.89471680202E+01  0.13269632630E+02  0.00000000000E+00 0. -1.
         22    1    1    2    0    0 -0.18644244033E+02 -0.78825562790E+01 -0.22939615434E+02  0.30593602033E+02  0.00000000000E+00 0. -1.
<mgrwt>
<rscale>  0 0.64540857E+02</rscale>
<asrwt>0</asrwt>
<pdfrwt beam="1">  1        2 0.58497292E-02 0.94993625E+02</pdfrwt>
<pdfrwt beam="2">  1       -2 0.31421156E-01 0.94993625E+02</pdfrwt>
<totfact> 0.10831949E+04</totfact>
</mgrwt>
</event>
<event>
 6    1  0.1723639E-002  0.9021399E+02  0.7546771E-02  0.1397920E+00
         -2   -1    0    0    0  501 -0.00000000000E+00  0.00000000000E+00  0.23055459070E+03  0.23055459070E+03  0.00000000000E+00 0.  1.
          2   -1    0    0  501    0  0.00000000000E+00 -0.00000000000E+00 -0.12719477106E+02  0.12719477106E+02  0.00000000000E+00 0. -1.
         23    2    1    2    0    0 -0.15514319916E+02  0.83675200839E+01  0.18995608174E+03  0.21028998177E+03  0.88475159939E+02 0.  0.
         11    1    3    3    0    0 -0.44677135819E+02  0.25139087375E+02  0.77589258234E+02  0.92995231987E+02  0.00000000000E+00 0. -1.
        -11    1    3    3    0    0  0.29162815903E+02 -0.16771567292E+02  0.11236682351E+03  0.11729474978E+03  0.00000000000E+00 0.  1.
         22    1    1    2    0    0  0.15514319916E+02 -0.83675200839E+01  0.27879031853E+02  0.32984086039E+02  0.00000000000E+00 0. -1.
<mgrwt>
<rscale>  0 0.59979070E+02</rscale>
<asrwt>0</asrwt>
<pdfrwt beam="1">  1        2 0.19568428E-02 0.90213987E+02</pdfrwt>
<pdfrwt beam="2">  1       -2 0.35469934E-01 0.90213987E+02</pdfrwt>
<totfact> 0.36580396E+04</totfact>
</mgrwt>
</event>
<event>
 6    1  0.1723639E-002  0.9404323E+02  0.7546771E-02  0.1395721E+00
          2   -1    0    0  501    0  0.00000000000E+00  0.00000000000E+00  0.73553636066E+03  0.73553636066E+03  0.00000000000E+00 0. -1.
         -2   -1    0    0    0  501 -0.00000000000E+00 -0.00000000000E+00 -0.42738879351E+01  0.42738879351E+01  0.00000000000E+00 0.  1.
         23    2    1    2    0    0  0.15839953256E+02  0.29604519805E+01  0.66498505170E+03  0.67160200179E+03  0.92652368686E+02 0.  0.
         11    1    3    3    0    0  0.25650622726E+02  0.40598346331E+02  0.48992740306E+03  0.49227537054E+03  0.00000000000E+00 0. -1.
        -11    1    3    3    0    0 -0.98106694704E+01 -0.37637894351E+02  0.17505764864E+03  0.17932663125E+03  0.00000000000E+00 0.  1.
         22    1    1    2    0    0 -0.15839953256E+02 -0.29604519805E+01  0.66277421024E+02  0.68208246809E+02  0.00000000000E+00 0.  1.
<mgrwt>
<rscale>  0 0.60505946E+02</rscale>
<asrwt>0</asrwt>
<pdfrwt beam="1">  1        2 0.11315934E+00 0.94043234E+02</pdfrwt>
<pdfrwt beam="2">  1       -2 0.65752180E-03 0.94043234E+02</pdfrwt>
<totfact> 0.13479487E+05</totfact>
</mgrwt>
</event>
<event>
 6    1  0.1723639E-002  0.1034666E+03  0.7546771E-02  0.1374675E+00
          3   -1    0    0  501    0  0.00000000000E+00  0.00000000000E+00  0.87544624680E+02  0.87544624680E+02  0.00000000000E+00 0. -1.
         -3   -1    0    0    0  501 -0.00000000000E+00 -0.00000000000E+00 -0.43940571792E+02  0.43940571792E+02  0.00000000000E+00 0.  1.
         23    2    1    2    0    0 -0.15260878076E+02  0.75153629445E+01  0.25336463614E+02  0.10652362806E+03  0.10205866875E+03 0.  0.
         11    1    3    3    0    0 -0.56297326985E+00  0.16539424682E+02  0.62979553744E+02  0.65117537557E+02  0.00000000000E+00 0. -1.
        -11    1    3    3    0    0 -0.14697904806E+02 -0.90240617377E+01 -0.37643090130E+02  0.41406090500E+02  0.00000000000E+00 0.  1.
         22    1    1    2    0    0  0.15260878076E+02 -0.75153629445E+01  0.18267589274E+02  0.24961568415E+02  0.00000000000E+00 0. -1.
<mgrwt>
<rscale>  0 0.65884449E+02</rscale>
<asrwt>0</asrwt>
<pdfrwt beam="1">  1        3 0.13468404E-01 0.10346665E+03</pdfrwt>
<pdfrwt beam="2">  1       -3 0.67600880E-02 0.10346665E+03</pdfrwt>
<totfact> 0.13294426E+04</totfact>
</mgrwt>
</event>
<event>
 6    1  0.1723639E-002  0.8740781E+02  0.7546771E-02  0.1433173E+00
         -1   -1    0    0    0  501 -0.00000000000E+00  0.00000000000E+00  0.16271890677E+02  0.16271890677E+02  0.00000000000E+00 0.  1.
          1   -1    0    0  501    0  0.00000000000E+00 -0.00000000000E+00 -0.16745949220E+03  0.16745949220E+03  0.00000000000E+00 0. -1.
         23    2    1    2    0    0 -0.11122303387E+02  0.15363415190E+01 -0.10712232775E+03  0.13825815635E+03  0.86683670418E+02 0.  0.
         13    1    3    3    0    0  0.15137892935E+02  0.10355907665E+02 -0.10896255739E+03  0.11049542768E+03  0.00000000000E+00 0. -1.
        -13    1    3    3    0    0 -0.26260196322E+02 -0.88195661460E+01  0.18402296409E+01  0.27762728666E+02  0.00000000000E+00 0.  1.
         22    1    1    2    0    0  0.11122303387E+02 -0.15363415190E+01 -0.44065273773E+02  0.45473226525E+02  0.00000000000E+00 0. -1.
<mgrwt>
<rscale>  0 0.52328394E+02</rscale>
<asrwt>0</asrwt>
<pdfrwt beam="1">  1        1 0.25762999E-01 0.87407807E+02</pdfrwt>
<pdfrwt beam="2">  1       -1 0.25033678E-02 0.87407807E+02</pdfrwt>
<totfact> 0.77205850E+04</totfact>
</mgrwt>
</event>
<event>
 6    1  0.1723639E-002  0.9384684E+02  0.7546771E-02  0.1380677E+00
          1   -1    0    0  501    0  0.00000000000E+00  0.00000000000E+00  0.70279798305E+02  0.70279798305E+02  0.00000000000E+00 0. -1.
         -1   -1    0    0    0  501 -0.00000000000E+00 -0.00000000000E+00 -0.50534165433E+02  0.50534165433E+02  0.00000000000E+00 0.  1.
         23    2    1    2    0    0 -0.20247803303E+02  0.41261774412E+01  0.24691661690E+01  0.93879317265E+02  0.91543599174E+02 0.  0.
         13    1    3    3    0    0  0.17021539669E+02  0.11407068885E+02  0.37166647358E+02  0.42440708160E+02  0.00000000000E+00 0. -1.
        -13    1    3    3    0    0 -0.37269342972E+02 -0.72808914437E+01 -0.34697481189E+02  0.51438609105E+02  0.00000000000E+00 0.  1.
         22    1    1    2    0    0  0.20247803303E+02 -0.41261774412E+01  0.17276466703E+02  0.26934646472E+02  0.00000000000E+00 0. -1.
<mgrwt>
<rscale>  0 0.64286249E+02</rscale>
<asrwt>0</asrwt>
<pdfrwt beam="1">  1        1 0.10812277E-01 0.93846840E+02</pdfrwt>
<pdfrwt beam="2">  1       -1 0.77744870E-02 0.93846840E+02</pdfrwt>
<totfact> 0.45000388E+04</totfact>
</mgrwt>
</event>
<event>
 6    1  0.1723639E-002  0.9276098E+02  0.7546771E-02  0.1427859E+00
          4   -1    0    0  501    0  0.00000000000E+00  0.00000000000E+00  0.28524753782E+02  0.28524753782E+02  0.00000000000E+00 0. -1.
         -4   -1    0    0    0  501 -0.00000000000E+00 -0.00000000000E+00 -0.25165027191E+03  0.25165027191E+03  0.00000000000E+00 0.  1.
         23    2    1    2    0    0 -0.73234392659E+01  0.70732055630E+01 -0.24175750812E+03  0.25894264356E+03  0.92200525597E+02 0.  0.
         13    1    3    3    0    0 -0.44937110076E+02  0.21924309258E+02 -0.16165631748E+03  0.16921224595E+03  0.00000000000E+00 0. -1.
        -13    1    3    3    0    0  0.37613670810E+02 -0.14851103695E+02 -0.80101190639E+02  0.89730397606E+02  0.00000000000E+00 0.  1.
         22    1    1    2    0    0  0.73234392659E+01 -0.70732055630E+01  0.18631989997E+02  0.21232382129E+02  0.00000000000E+00 0. -1.
<mgrwt>
<rscale>  0 0.53392097E+02</rscale>
<asrwt>0</asrwt>
<pdfrwt beam="1">  1        4 0.43884237E-02 0.92760983E+02</pdfrwt>
<pdfrwt beam="2">  1       -4 0.38715426E-01 0.92760983E+02</pdfrwt>
<totfact> 0.28502453E+03</totfact>
</mgrwt>
</event>
<event>
 6    1  0.1723639E-002  0.9303101E+02  0.7546771E-02  0.1408965E+00
         -4   -1    0    0    0  501 -0.00000000000E+00  0.00000000000E+00  0.13470760483E+03  0.13470760483E+03  0.00000000000E+00 0.  1.
          4   -1    0    0  501    0  0.00000000000E+00 -0.00000000000E+00 -0.29552360132E+02  0.29552360132E+02  0.00000000000E+00 0. -1.
         23    2    1    2    0    0  0.81843956105E+01 -0.10743974894E+02  0.11472697585E+03  0.14770595139E+03  0.92045378808E+02 0.  0.
         11    1    3    3    0    0 -0.86291952543E+01  0.37697252759E+02  0.68529108095E+02  0.78687893177E+02  0.00000000000E+00 0.  1.
        -11    1    3    3    0    0  0.16813590865E+02 -0.48441227653E+02  0.46197867759E+02  0.69018058215E+02  0.00000000000E+00 0. -1.
         22    1    1    2    0    0 -0.81843956105E+01  0.10743974894E+02 -0.95717311537E+01  0.16554013571E+02  0.00000000000E+00 0. -1.
<mgrwt>
<rscale>  0 0.57425405E+02</rscale>
<asrwt>0</asrwt>
<pdfrwt beam="1">  1        4 0.45465170E-02 0.93031011E+02</pdfrwt>
<pdfrwt beam="2">  1       -4 0.20724247E-01 0.93031011E+02</pdfrwt>
<totfact> 0.86356302E+03</totfact>
</mgrwt>
</event>
<event>
 6    1  0.1723639E-002  0.9687202E+02  0.7546771E-02  0.1354531E+00
         -1   -1    0    0    0  501 -0.00000000000E+00  0.00000000000E+00  0.19520997829E+02  0.19520997829E+02  0.00000000000E+00 0.  1.
          1   -1    0    0  501    0  0.00000000000E+00 -0.00000000000E+00 -0.23934047531E+03  0.23934047531E+03  0.00000000000E+00 0. -1.
         23    2    1    2    0    0 -0.26882842550E+02 -0.10905559260E+02 -0.11633239166E+03  0.15138498558E+03  0.92426024814E+02 0.  0.
         11    1    3    3    0    0 -0.58229456994E+02 -0.23711229913E+02 -0.79422002778E+02  0.10129534348E+03  0.00000000000E+00 0.  1.
        -11    1    3    3    0    0  0.31346614444E+02  0.12805670654E+02 -0.36910388878E+02  0.50089642094E+02  0.00000000000E+00 0. -1.
         22    1    1    2    0    0  0.26882842550E+02  0.10905559260E+02 -0.10348708582E+03  0.10747648756E+03  0.00000000000E+00 0. -1.
<mgrwt>
<rscale>  0 0.71661877E+02</rscale>
<asrwt>0</asrwt>
<pdfrwt beam="1">  1        1 0.36821612E-01 0.96872021E+02</pdfrwt>
<pdfrwt beam="2">  1       -1 0.30032304E-02 0.96872021E+02</pdfrwt>
<totfact> 0.38871716E+04</totfact>
</mgrwt>
</event>
<event>
 6    1  0.1723639E-002  0.1267259E+03  0.7546771E-02  0.1249529E+00
         -2   -1    0    0    0  501 -0.00000000000E+00  0.00000000000E+00  0.16567832648E+03  0.16567832648E+03  0.00000000000E+00 0. -1.
          2   -1    0    0  501    0  0.00000000000E+00 -0.00000000000E+00 -0.15479923621E+03  0.15479923621E+03  0.00000000000E+00 0.  1.
         23    2    1    2    0    0  0.79898591142E+02  0.40401504471E+02 -0.11153355105E+03  0.16881701679E+03  0.89684924693E+02 0.  0.
         11    1    3    3    0    0  0.95873258563E+02  0.47935539977E+02 -0.10481865862E+03  0.14992147576E+03  0.00000000000E+00 0.  1.
        -11    1    3    3    0    0 -0.15974667421E+02 -0.75340355067E+01 -0.67148924295E+01  0.18895541023E+02  0.00000000000E+00 0. -1.
         22    1    1    2    0    0 -0.79898591142E+02 -0.40401504471E+02  0.12241264132E+03  0.15166054591E+03  0.00000000000E+00 0. -1.
<mgrwt>
<rscale>  0 0.11618343E+03</rscale>
<asrwt>0</asrwt>
<pdfrwt beam="1">  1        2 0.23815267E-01 0.12672589E+03</pdfrwt>
<pdfrwt beam="2">  1       -2 0.25488973E-01 0.12672589E+03</pdfrwt>
<totfact> 0.29995616E+03</totfact>
</mgrwt>
</event>
<event>
 6    1  0.1723639E-002  0.9187018E+02  0.7546771E-02  0.1429841E+00
         -4   -1    0    0    0  501 -0.00000000000E+00  0.00000000000E+00  0.49951992191E+02  0.49951992191E+02  0.00000000000E+00 0. -1.
          4   -1    0    0  501    0  0.00000000000E+00 -0.00000000000E+00 -0.57265674299E+02  0.57265674299E+02  0.00000000000E+00 0.  1.
         23    2    1    2    0    0  0.88181598676E+01  0.50661646701E+01  0.40605947681E+01  0.91959876926E+02  0.91305556055E+02 0.  0.
         13    1    3    3    0    0 -0.31199523668E+02  0.26986037694E+01  0.30679162516E+02  0.43839522718E+02  0.00000000000E+00 0. -1.
        -13    1    3    3    0    0  0.40017683536E+02  0.23675609007E+01 -0.26618567748E+02  0.48120354208E+02  0.00000000000E+00 0.  1.
         22    1    1    2    0    0 -0.88181598676E+01 -0.50661646701E+01 -0.11374276877E+02  0.15257789564E+02  0.00000000000E+00 0.  1.
<mgrwt>
<rscale>  0 0.52991918E+02</rscale>
<asrwt>0</asrwt>
<pdfrwt beam="1">  1        4 0.88101038E-02 0.91870183E+02</pdfrwt>
<pdfrwt beam="2">  1       -4 0.76849219E-02 0.91870183E+02</pdfrwt>
<totfact> 0.16046240E+04</totfact>
</mgrwt>
</event>
<event>
 6    1  0.1723639E-002  0.9530935E+02  0.7546771E-02  0.1395179E+00
          2   -1    0    0  501    0  0.00000000000E+00  0.00000000000E+00  0.67644975419E+02  0.67644975419E+02  0.00000000000E+00 0. -1.
         -2   -1    0    0    0  501 -0.00000000000E+00 -0.00000000000E+00 -0.47411857189E+02  0.47411857189E+02  0.00000000000E+00 0.  1.
         23    2    1    2    0    0 -0.13320400515E+02 -0.81479942737E+01  0.88219157740E+01  0.95716759649E+02  0.94021534763E+02 0.  0.
         11    1    3    3    0    0  0.34315125526E+01 -0.19335432797E+02 -0.39088317068E+02  0.43743922675E+02  0.00000000000E+00 0.  1.
        -11    1    3    3    0    0 -0.16751913068E+02  0.11187438524E+02  0.47910232842E+02  0.51972836974E+02  0.00000000000E+00 0. -1.
         22    1    1    2    0    0  0.13320400515E+02  0.81479942737E+01  0.11411202455E+02  0.19340072959E+02  0.00000000000E+00 0.  1.
<mgrwt>
<rscale>  0 0.60636752E+02</rscale>
<asrwt>0</asrwt>
<pdfrwt beam="1">  1        2 0.10406919E-01 0.95309348E+02</pdfrwt>
<pdfrwt beam="2">  1       -2 0.72941318E-02 0.95309348E+02</pdfrwt>
<totfact> 0.57539832E+04</totfact>
</mgrwt>
</event>
<event>
 6    1  0.1723639E-002  0.9970105E+02  0.7546771E-02  0.1327588E+00
          4   -1    0    0  501    0  0.00000000000E+00  0.00000000000E+00  0.57086129329E+02  0.57086129329E+02  0.00000000000E+00 0. -1.
         -4   -1    0    0    0  501 -0.00000000000E+00 -0.00000000000E+00 -0.13957073396E+03  0.13957073396E+03  0.00000000000E+00 0.  1.
         23    2    1    2    0    0  0.13317177417E+02  0.40265580260E+02 -0.10814255007E+03  0.14708878553E+03  0.90231011996E+02 0.  0.
         13    1    3    3    0    0  0.27479281144E+02  0.17442965686E+02  0.30571455989E+01  0.32691192749E+02  0.00000000000E+00 0. -1.
        -13    1    3    3    0    0 -0.14162103727E+02  0.22822614574E+02 -0.11119969567E+03  0.11439759278E+03  0.00000000000E+00 0.  1.
         22    1    1    2    0    0 -0.13317177417E+02 -0.40265580260E+02  0.25657945441E+02  0.49568077755E+02  0.00000000000E+00 0.  1.
<mgrwt>
<rscale>  0 0.80518109E+02</rscale>
<asrwt>0</asrwt>
<pdfrwt beam="1">  1        4 0.87824814E-02 0.99701052E+02</pdfrwt>
<pdfrwt beam="2">  1       -4 0.21472421E-01 0.99701052E+02</pdfrwt>
<totfact> 0.28435701E+03</totfact>
</mgrwt>
</event>
<event>
 6    1  0.1723639E-002  0.9150429E+02  0.7546771E-02  0.1428222E+00
          4   -1    0    0  501    0  0.00000000000E+00  0.00000000000E+00  0.98660067076E+01  0.98660067076E+01  0.00000000000E+00 0. -1.
         -4   -1    0    0    0  501 -0.00000000000E+00 -0.00000000000E+00 -0.28497945176E+03  0.28497945176E+03  0.00000000000E+00 0.  1.
         23    2    1    2    0    0 -0.25917228701E+01  0.10225053989E+02 -0.26450365294E+03  0.27988429390E+03  0.90894261629E+02 0.  0.
         13    1    3    3    0    0  0.27258612297E+02 -0.10091258839E+02 -0.27066454482E+02  0.39717230613E+02  0.00000000000E+00 0. -1.
        -13    1    3    3    0    0 -0.29850335167E+02  0.20316312828E+02 -0.23743719846E+03  0.24016706329E+03  0.00000000000E+00 0.  1.
         22    1    1    2    0    0  0.25917228701E+01 -0.10225053989E+02 -0.10609792110E+02  0.14961164565E+02  0.00000000000E+00 0.  1.
<mgrwt>
<rscale>  0 0.53318479E+02</rscale>
<asrwt>0</asrwt>
<pdfrwt beam="1">  1        4 0.15178473E-02 0.91504293E+02</pdfrwt>
<pdfrwt beam="2">  1       -4 0.43842990E-01 0.91504293E+02</pdfrwt>
<totfact> 0.11470817E+04</totfact>
</mgrwt>
</event>
<event>
 6    1  0.1723639E-002  0.1015447E+03  0.7546771E-02  0.1352601E+00
          2   -1    0    0  501    0  0.00000000000E+00  0.00000000000E+00  0.15382864108E+03  0.15382864108E+03  0.00000000000E+00 0. -1.
         -2   -1    0    0    0  501 -0.00000000000E+00 -0.00000000000E+00 -0.13201135754E+03  0.13201135754E+03  0.00000000000E+00 0.  1.
         23    2    1    2    0    0  0.25950610240E+02  0.19763063707E+01 -0.11103279400E+03  0.15046465720E+03  0.98152899927E+02 0.  0.
         11    1    3    3    0    0  0.62839817328E+02  0.90928928609E+01 -0.76694785407E+02  0.99567130374E+02  0.00000000000E+00 0.  1.
        -11    1    3    3    0    0 -0.36889207087E+02 -0.71165864902E+01 -0.34338008597E+02  0.50897526828E+02  0.00000000000E+00 0. -1.
         22    1    1    2    0    0 -0.25950610240E+02 -0.19763063707E+01  0.13285007755E+03  0.13537534142E+03  0.00000000000E+00 0. -1.
<mgrwt>
<rscale>  0 0.72251002E+02</rscale>
<asrwt>0</asrwt>
<pdfrwt beam="1">  1        2 0.23665945E-01 0.10154473E+03</pdfrwt>
<pdfrwt beam="2">  1       -2 0.20309440E-01 0.10154473E+03</pdfrwt>
<totfact> 0.44009222E+03</totfact>
</mgrwt>
</event>
<event>
 6    1  0.1723639E-002  0.9193777E+02  0.7546771E-02  0.1414788E+00
          1   -1    0    0  501    0  0.00000000000E+00  0.00000000000E+00  0.16893217255E+03  0.16893217255E+03  0.00000000000E+00 0. -1.
         -1   -1    0    0    0  501 -0.00000000000E+00 -0.00000000000E+00 -0.16613909580E+02  0.16613909580E+02  0.00000000000E+00 0.  1.
         23    2    1    2    0    0 -0.87213124084E+01 -0.93434461100E+01  0.12299943286E+03  0.15356241326E+03  0.91045005393E+02 0.  0.
         11    1    3    3    0    0 -0.47885440602E+02  0.81520751282E+01  0.73011231646E+02  0.87693281937E+02  0.00000000000E+00 0. -1.
        -11    1    3    3    0    0  0.39164128193E+02 -0.17495521238E+02  0.49988201212E+02  0.65869131321E+02  0.00000000000E+00 0.  1.
         22    1    1    2    0    0  0.87213124084E+01  0.93434461100E+01  0.29318830115E+02  0.31983668874E+02  0.00000000000E+00 0. -1.
<mgrwt>
<rscale>  0 0.56138930E+02</rscale>
<asrwt>0</asrwt>
<pdfrwt beam="1">  1        1 0.25989564E-01 0.91937774E+02</pdfrwt>
<pdfrwt beam="2">  1       -1 0.25559862E-02 0.91937774E+02</pdfrwt>
<totfact> 0.74695281E+04</totfact>
</mgrwt>
</event>
<event>
 6    1  0.1723639E-002  0.8956742E+02  0.7546771E-02  0.1433488E+00
          3   -1    0    0  501    0  0.00000000000E+00  0.00000000000E+00  0.95271403551E+01  0.95271403551E+01  0.00000000000E+00 0. -1.
         -3   -1    0    0    0  501 -0.00000000000E+00 -0.00000000000E+00 -0.26303505203E+03  0.26303505203E+03  0.00000000000E+00 0.  1.
         23    2    1    2    0    0  0.65064617758E+01 -0.80948076435E+01 -0.23163996677E+03  0.24835337230E+03  0.88963269788E+02 0.  0.
         11    1    3    3    0    0 -0.35907768125E+01 -0.43239501610E+02 -0.67891169011E+02  0.80571452806E+02  0.00000000000E+00 0. -1.
        -11    1    3    3    0    0  0.10097238588E+02  0.35144693966E+02 -0.16374879776E+03  0.16778191949E+03  0.00000000000E+00 0.  1.
         22    1    1    2    0    0 -0.65064617758E+01  0.80948076435E+01 -0.21867944907E+02  0.24208820089E+02  0.00000000000E+00 0.  1.
<mgrwt>
<rscale>  0 0.52266099E+02</rscale>
<asrwt>0</asrwt>
<pdfrwt beam="1">  1        3 0.14657141E-02 0.89567423E+02</pdfrwt>
<pdfrwt beam="2">  1       -3 0.40466924E-01 0.89567423E+02</pdfrwt>
<totfact> 0.18971655E+04</totfact>
</mgrwt>
</event>
<event>
 6    1  0.1723639E-002  0.1119370E+03  0.7546771E-02  0.1285675E+00
         -2   -1    0    0    0  501 -0.00000000000E+00  0.00000000000E+00  0.18542947986E+03  0.18542947986E+03  0.00000000000E+00 0.  1.
          2   -1    0    0  501    0  0.00000000000E+00 -0.00000000000E+00 -0.46494574422E+02  0.46494574422E+02  0.00000000000E+00 0. -1.
         23    2    1    2    0    0 -0.28768897241E+02  0.57607688839E+02  0.12152181990E+03  0.16521940069E+03  0.91562013919E+02 0.  0.
         11    1    3    3    0    0 -0.49555241481E+02  0.31229295545E+02  0.26224020032E+02  0.64177021473E+02  0.00000000000E+00 0. -1.
        -11    1    3    3    0    0  0.20786344240E+02  0.26378393294E+02  0.95297799864E+02  0.10104237922E+03  0.00000000000E+00 0.  1.
         22    1    1    2    0    0  0.28768897241E+02 -0.57607688839E+02  0.17413085539E+02  0.66704653585E+02  0.00000000000E+00 0.  1.
<mgrwt>
<rscale>  0 0.97485012E+02</rscale>
<asrwt>0</asrwt>
<pdfrwt beam="1">  1        2 0.71530115E-02 0.11193703E+03</pdfrwt>
<pdfrwt beam="2">  1       -2 0.28527612E-01 0.11193703E+03</pdfrwt>
<totfact> 0.10136950E+04</totfact>
</mgrwt>
</event>
<event>
 6    1  0.1723639E-002  0.9607157E+02  0.7546771E-02  0.1352870E+00
          2   -1    0    0  501    0  0.00000000000E+00  0.00000000000E+00  0.74690474129E+02  0.74690474129E+02  0.00000000000E+00 0. -1.
         -2   -1    0    0    0  501 -0.00000000000E+00 -0.00000000000E+00 -0.20689933523E+03  0.20689933523E+03  0.00000000000E+00 0.  1.
         23    2    1    2    0    0  0.30386808334E+02  0.35370589695E+01 -0.19185002578E+03  0.21456043198E+03  0.91070728940E+02 0.  0.
         11    1    3    3    0    0  0.52316817874E+02  0.21928801332E+02 -0.16795369364E+03  0.17727482892E+03  0.00000000000E+00 0.  1.
        -11    1    3    3    0    0 -0.21930009541E+02 -0.18391742362E+02 -0.23896332146E+02  0.37285603061E+02  0.00000000000E+00 0. -1.
         22    1    1    2    0    0 -0.30386808334E+02 -0.35370589695E+01  0.59641164685E+02  0.67029377380E+02  0.00000000000E+00 0. -1.
<mgrwt>
<rscale>  0 0.72168561E+02</rscale>
<asrwt>0</asrwt>
<pdfrwt beam="1">  1        2 0.11490842E-01 0.96071570E+02</pdfrwt>
<pdfrwt beam="2">  1       -2 0.31830667E-01 0.96071570E+02</pdfrwt>
<totfact> 0.45924280E+03</totfact>
</mgrwt>
</event>
<event>
 6    1  0.1723639E-002  0.9990084E+02  0.7546771E-02  0.1316275E+00
          2   -1    0    0  501    0  0.00000000000E+00  0.00000000000E+00  0.27851086221E+03  0.27851086221E+03  0.00000000000E+00 0. -1.
         -2   -1    0    0    0  501 -0.00000000000E+00 -0.00000000000E+00 -0.20767352033E+02  0.20767352033E+02  0.00000000000E+00 0.  1.
         23    2    1    2    0    0 -0.27641417489E+02 -0.43534844134E+02  0.18259992933E+03  0.20814156762E+03  0.85561950459E+02 0.  0.
         13    1    3    3    0    0  0.10682104722E+02 -0.57745515105E+02  0.11552409470E+03  0.12959347334E+03  0.00000000000E+00 0.  1.
        -13    1    3    3    0    0 -0.38323522211E+02  0.14210670971E+02  0.67075834637E+02  0.78548094288E+02  0.00000000000E+00 0. -1.
         22    1    1    2    0    0  0.27641417489E+02  0.43534844134E+02  0.75143580841E+02  0.91136646615E+02  0.00000000000E+00 0. -1.
<mgrwt>
<rscale>  0 0.84678547E+02</rscale>
<asrwt>0</asrwt>
<pdfrwt beam="1">  1        2 0.42847822E-01 0.99900841E+02</pdfrwt>
<pdfrwt beam="2">  1       -2 0.31949774E-02 0.99900841E+02</pdfrwt>
<totfact> 0.40640779E+04</totfact>
</mgrwt>
</event>
<event>
 6    1  0.1723639E-002  0.9135582E+02  0.7546771E-02  0.1374178E+00
          2   -1    0    0  501    0  0.00000000000E+00  0.00000000000E+00  0.27161531841E+03  0.27161531841E+03  0.00000000000E+00 0.  1.
         -2   -1    0    0    0  501 -0.00000000000E+00 -0.00000000000E+00 -0.12477168811E+02  0.12477168811E+02  0.00000000000E+00 0. -1.
         23    2    1    2    0    0 -0.14021955994E+02 -0.20595787483E+02  0.19732439637E+03  0.21744609347E+03  0.87892459576E+02 0.  0.
         13    1    3    3    0    0 -0.46487777204E+01 -0.40956780330E+02  0.18914677876E+03  0.19358608654E+03  0.00000000000E+00 0.  1.
        -13    1    3    3    0    0 -0.93731782735E+01  0.20360992847E+02  0.81776176139E+01  0.23860006926E+02  0.00000000000E+00 0. -1.
         22    1    1    2    0    0  0.14021955994E+02  0.20595787483E+02  0.61813753232E+02  0.66646393755E+02  0.00000000000E+00 0. -1.
<mgrwt>
<rscale>  0 0.66019356E+02</rscale>
<asrwt>0</asrwt>
<pdfrwt beam="1">  1        2 0.41786968E-01 0.91355822E+02</pdfrwt>
<pdfrwt beam="2">  1       -2 0.19195646E-02 0.91355822E+02</pdfrwt>
<totfact> 0.86189912E+04</totfact>
</mgrwt>
</event>
<event>
 6    1  0.1723639E-002  0.9395257E+02  0.7546771E-02  0.1359620E+00
         -2   -1    0    0    0  501 -0.00000000000E+00  0.00000000000E+00  0.15766443559E+03  0.15766443559E+03  0.00000000000E+00 0.  1.
          2   -1    0    0  501    0  0.00000000000E+00 -0.00000000000E+00 -0.31057876819E+02  0.31057876819E+02  0.00000000000E+00 0. -1.
         23    2    1    2    0    0 -0.18666828149E+02  0.22431443226E+02  0.12883605252E+03  0.15945474058E+03  0.89305463136E+02 0.  0.
         13    1    3    3    0    0  0.22210767712E+02  0.65067126681E+01 -0.22088182965E+00  0.23145286797E+02  0.00000000000E+00 0. -1.
        -13    1    3    3    0    0 -0.40877595861E+02  0.15924730558E+02  0.12905693435E+03  0.13630945378E+03  0.00000000000E+00 0.  1.
         22    1    1    2    0    0  0.18666828149E+02 -0.22431443226E+02 -0.22294937504E+01  0.29267571829E+02  0.00000000000E+00 0.  1.
<mgrwt>
<rscale>  0 0.70139432E+02</rscale>
<asrwt>0</asrwt>
<pdfrwt beam="1">  1        2 0.47781350E-02 0.93952572E+02</pdfrwt>
<pdfrwt beam="2">  1       -2 0.24256067E-01 0.93952572E+02</pdfrwt>
<totfact> 0.22129545E+04</totfact>
</mgrwt>
</event>
<event>
 6    1  0.1723639E-002  0.8489099E+02  0.7546771E-02  0.1363746E+00
          4   -1    0    0  501    0  0.00000000000E+00  0.00000000000E+00  0.93789855492E+02  0.93789855492E+02  0.00000000000E+00 0.  1.
         -4   -1    0    0    0  501 -0.00000000000E+00 -0.00000000000E+00 -0.40722157063E+02  0.40722157063E+02  0.00000000000E+00 0. -1.
         23    2    1    2    0    0  0.35568990525E+02  0.98832921346E+01  0.26161468142E+02  0.88830749671E+02  0.76443751356E+02 0.  0.
         11    1    3    3    0    0  0.72487279658E+01 -0.17704657365E+02 -0.20252944254E+02  0.27860019750E+02  0.00000000000E+00 0. -1.
        -11    1    3    3    0    0  0.28320262560E+02  0.27587949499E+02  0.46414412396E+02  0.60970729921E+02  0.00000000000E+00 0.  1.
         22    1    1    2    0    0 -0.35568990525E+02 -0.98832921346E+01  0.26906230286E+02  0.45681262884E+02  0.00000000000E+00 0. -1.
<mgrwt>
<rscale>  0 0.68936860E+02</rscale>
<asrwt>0</asrwt>
<pdfrwt beam="1">  1        4 0.14429208E-01 0.84890987E+02</pdfrwt>
<pdfrwt beam="2">  1       -4 0.62649473E-02 0.84890987E+02</pdfrwt>
<totfact> 0.94975784E+03</totfact>
</mgrwt>
</event>
<event>
 6    1  0.1723639E-002  0.1942652E+03  0.7546771E-02  0.1160826E+00
          2   -1    0    0  501    0  0.00000000000E+00  0.00000000000E+00  0.17804141257E+04  0.17804141257E+04  0.00000000000E+00 0. -1.
         -2   -1    0    0    0  501 -0.00000000000E+00 -0.00000000000E+00 -0.24996719481E+02  0.24996719481E+02  0.00000000000E+00 0.  1.
         23    2    1    2    0    0  0.12267234423E+03  0.11512231947E+03  0.13852873523E+04  0.13988423894E+04  0.97145917309E+02 0.  0.
         13    1    3    3    0    0  0.69774869390E+02  0.11688204217E+03  0.83587600308E+03  0.84688761751E+03  0.00000000000E+00 0. -1.
        -13    1    3    3    0    0  0.52897474842E+02 -0.17597226999E+01  0.54941134926E+03  0.55195477184E+03  0.00000000000E+00 0.  1.
         22    1    1    2    0    0 -0.12267234423E+03 -0.11512231947E+03  0.37013005385E+03  0.40656845578E+03  0.00000000000E+00 0.  1.
<mgrwt>
<rscale>  0 0.18740138E+03</rscale>
<asrwt>0</asrwt>
<pdfrwt beam="1">  1        2 0.27390977E+00 0.19426524E+03</pdfrwt>
<pdfrwt beam="2">  1       -2 0.38456505E-02 0.19426524E+03</pdfrwt>
<totfact> 0.28282222E+03</totfact>
</mgrwt>
</event>
<event>
 6    1  0.1723639E-002  0.9536557E+02  0.7546771E-02  0.1346962E+00
          2   -1    0    0  501    0  0.00000000000E+00  0.00000000000E+00  0.39993563979E+03  0.39993563979E+03  0.00000000000E+00 0. -1.
         -2   -1    0    0    0  501 -0.00000000000E+00 -0.00000000000E+00 -0.11322953103E+02  0.11322953103E+02  0.00000000000E+00 0.  1.
         23    2    1    2    0    0 -0.11182126311E+02  0.32737093963E+02  0.32672491860E+03  0.34035828888E+03  0.88869764862E+02 0.  0.
         11    1    3    3    0    0 -0.39501432660E+02 -0.73314059037E+01  0.89374178159E+02  0.97989062738E+02  0.00000000000E+00 0. -1.
        -11    1    3    3    0    0  0.28319306349E+02  0.40068499867E+02  0.23735074044E+03  0.24236922614E+03  0.00000000000E+00 0.  1.
         22    1    1    2    0    0  0.11182126311E+02 -0.32737093963E+02  0.61887768092E+02  0.70900304015E+02  0.00000000000E+00 0. -1.
<mgrwt>
<rscale>  0 0.74010694E+02</rscale>
<asrwt>0</asrwt>
<pdfrwt beam="1">  1        2 0.61528549E-01 0.95365572E+02</pdfrwt>
<pdfrwt beam="2">  1       -2 0.17419931E-02 0.95365572E+02</pdfrwt>
<totfact> 0.66439529E+04</totfact>
</mgrwt>
</event>
<event>
 6    1  0.1723639E-002  0.9544841E+02  0.7546771E-02  0.1358355E+00
         -4   -1    0    0    0  501 -0.00000000000E+00  0.00000000000E+00  0.97349885519E+02  0.97349885519E+02  0.00000000000E+00 0.  1.
          4   -1    0    0  501    0  0.00000000000E+00 -0.00000000000E+00 -0.39876126361E+02  0.39876126361E+02  0.00000000000E+00 0. -1.
         23    2    1    2    0    0 -0.16437418188E+02  0.23197141191E+02  0.50359576845E+02  0.10791888534E+03  0.91115875437E+02 0.  0.
         13    1    3    3    0    0  0.41104049018E+01  0.50700958917E+02  0.53031219484E+02  0.73483283157E+02  0.00000000000E+00 0.  1.
        -13    1    3    3    0    0 -0.20547823090E+02 -0.27503817726E+02 -0.26716426395E+01  0.34435602182E+02  0.00000000000E+00 0. -1.
         22    1    1    2    0    0  0.16437418188E+02 -0.23197141191E+02  0.71141823136E+01  0.29307126541E+02  0.00000000000E+00 0. -1.
<mgrwt>
<rscale>  0 0.70513591E+02</rscale>
<asrwt>0</asrwt>
<pdfrwt beam="1">  1        4 0.61347887E-02 0.95448409E+02</pdfrwt>
<pdfrwt beam="2">  1       -4 0.14976905E-01 0.95448409E+02</pdfrwt>
<totfact> 0.95428969E+03</totfact>
</mgrwt>
</event>
<event>
 6    1  0.1723639E-002  0.6328946E+02  0.7546771E-02  0.1497839E+00
          2   -1    0    0  501    0  0.00000000000E+00  0.00000000000E+00  0.12042640148E+03  0.12042640148E+03  0.00000000000E+00 0. -1.
         -2   -1    0    0    0  501 -0.00000000000E+00 -0.00000000000E+00 -0.19804356836E+02  0.19804356836E+02  0.00000000000E+00 0.  1.
         23    2    1    2    0    0  0.96877391010E+01 -0.64498297724E+01  0.32546720998E+02  0.71167727088E+02  0.62210157837E+02 0.  0.
         13    1    3    3    0    0  0.36112340520E+02 -0.43041780051E+01  0.14797035471E+02  0.39262951302E+02  0.00000000000E+00 0.  1.
        -13    1    3    3    0    0 -0.26424601419E+02 -0.21456517673E+01  0.17749685526E+02  0.31904775786E+02  0.00000000000E+00 0. -1.
         22    1    1    2    0    0 -0.96877391010E+01  0.64498297724E+01  0.68075323650E+02  0.69063031233E+02  0.00000000000E+00 0. -1.
<mgrwt>
<rscale>  0 0.41444985E+02</rscale>
<asrwt>0</asrwt>
<pdfrwt beam="1">  1        2 0.18527138E-01 0.63289465E+02</pdfrwt>
<pdfrwt beam="2">  1       -2 0.30468242E-02 0.63289465E+02</pdfrwt>
<totfact> 0.10022764E+05</totfact>
</mgrwt>
</event>
<event>
 6    1  0.1723639E-002  0.9451825E+02  0.7546771E-02  0.1421487E+00
         -2   -1    0    0    0  501 -0.00000000000E+00  0.00000000000E+00  0.14447838565E+03  0.14447838565E+03  0.00000000000E+00 0.  1.
          2   -1    0    0  501    0  0.00000000000E+00 -0.00000000000E+00 -0.20573252378E+02  0.20573252378E+02  0.00000000000E+00 0. -1.
         23    2    1    2    0    0 -0.54594944699E+01  0.90954054308E+01  0.12190803554E+03  0.15425715429E+03  0.93921073470E+02 0.  0.
         11    1    3    3    0    0  0.21482900364E+02  0.42200482622E+02  0.40384705361E+02  0.62236003797E+02  0.00000000000E+00 0.  1.
        -11    1    3    3    0    0 -0.26942394834E+02 -0.33105077191E+02  0.81523330181E+02  0.92021150498E+02  0.00000000000E+00 0. -1.
         22    1    1    2    0    0  0.54594944699E+01 -0.90954054308E+01  0.19970977346E+01  0.10794483738E+02  0.00000000000E+00 0.  1.
<mgrwt>
<rscale>  0 0.54707454E+02</rscale>
<asrwt>0</asrwt>
<pdfrwt beam="1">  1        2 0.31651158E-02 0.94518255E+02</pdfrwt>
<pdfrwt beam="2">  1       -2 0.22227443E-01 0.94518255E+02</pdfrwt>
<totfact> 0.44142609E+04</totfact>
</mgrwt>
</event>
<event>
 6    1  0.1723639E-002  0.9005018E+02  0.7546771E-02  0.1428847E+00
         -1   -1    0    0    0  501 -0.00000000000E+00  0.00000000000E+00  0.69448731384E+01  0.69448731384E+01  0.00000000000E+00 0.  1.
          1   -1    0    0  501    0  0.00000000000E+00 -0.00000000000E+00 -0.37068912423E+03  0.37068912423E+03  0.00000000000E+00 0. -1.
         23    2    1    2    0    0 -0.82863141888E+01 -0.71783664193E+01 -0.31167405757E+03  0.32442218477E+03  0.89380332611E+02 0.  0.
         13    1    3    3    0    0  0.22119113998E+02 -0.27522551061E+02 -0.56407088061E+02  0.66547017998E+02  0.00000000000E+00 0.  1.
        -13    1    3    3    0    0 -0.30405428186E+02  0.20344184642E+02 -0.25526696951E+03  0.25787516677E+03  0.00000000000E+00 0. -1.
         22    1    1    2    0    0  0.82863141888E+01  0.71783664193E+01 -0.52070193518E+02  0.53211812602E+02  0.00000000000E+00 0.  1.
<mgrwt>
<rscale>  0 0.53192191E+02</rscale>
<asrwt>0</asrwt>
<pdfrwt beam="1">  1        1 0.57029099E-01 0.90050185E+02</pdfrwt>
<pdfrwt beam="2">  1       -1 0.10684420E-02 0.90050185E+02</pdfrwt>
<totfact> 0.98290984E+04</totfact>
</mgrwt>
</event>
<event>
 6    1  0.1723639E-002  0.9471989E+02  0.7546771E-02  0.1357513E+00
         -4   -1    0    0    0  501 -0.00000000000E+00  0.00000000000E+00  0.26539116109E+02  0.26539116109E+02  0.00000000000E+00 0.  1.
          4   -1    0    0  501    0  0.00000000000E+00 -0.00000000000E+00 -0.17089702831E+03  0.17089702831E+03  0.00000000000E+00 0. -1.
         23    2    1    2    0    0 -0.29045203605E+02 -0.52029541918E+01 -0.71030051978E+02  0.11839394259E+03  0.90006459621E+02 0.  0.
         13    1    3    3    0    0 -0.32237458773E+00 -0.64773093934E+01  0.20999349127E+02  0.21977991858E+02  0.00000000000E+00 0.  1.
        -13    1    3    3    0    0 -0.28722829018E+02  0.12743552016E+01 -0.92029401105E+02  0.96415950733E+02  0.00000000000E+00 0. -1.
         22    1    1    2    0    0  0.29045203605E+02  0.52029541918E+01 -0.73327860224E+02  0.79042201828E+02  0.00000000000E+00 0. -1.
<mgrwt>
<rscale>  0 0.70764284E+02</rscale>
<asrwt>0</asrwt>
<pdfrwt beam="1">  1        4 0.26291850E-01 0.94719889E+02</pdfrwt>
<pdfrwt beam="2">  1       -4 0.40829410E-02 0.94719889E+02</pdfrwt>
<totfact> 0.66785087E+03</totfact>
</mgrwt>
</event>
<event>
 6    1  0.1723639E-002  0.8454567E+02  0.7546771E-02  0.1420115E+00
         -2   -1    0    0    0  501 -0.00000000000E+00  0.00000000000E+00  0.12871464681E+03  0.12871464681E+03  0.00000000000E+00 0.  1.
          2   -1    0    0  501    0  0.00000000000E+00 -0.00000000000E+00 -0.23030618262E+02  0.23030618262E+02  0.00000000000E+00 0. -1.
         23    2    1    2    0    0  0.15096566748E+02 -0.11182783450E+01  0.10720443874E+03  0.13653117551E+03  0.83179404463E+02 0.  0.
         11    1    3    3    0    0  0.37999941815E+02  0.18972383938E+02  0.94340175559E+02  0.10346021291E+03  0.00000000000E+00 0.  1.
        -11    1    3    3    0    0 -0.22903375067E+02 -0.20090662283E+02  0.12864263184E+02  0.33070962606E+02  0.00000000000E+00 0. -1.
         22    1    1    2    0    0 -0.15096566748E+02  0.11182783450E+01 -0.15204101926E+01  0.15214089562E+02  0.00000000000E+00 0. -1.
<mgrwt>
<rscale>  0 0.54996511E+02</rscale>
<asrwt>0</asrwt>
<pdfrwt beam="1">  1        2 0.35431721E-02 0.84545669E+02</pdfrwt>
<pdfrwt beam="2">  1       -2 0.19802253E-01 0.84545669E+02</pdfrwt>
<totfact> 0.45467365E+04</totfact>
</mgrwt>
</event>
<event>
 6    1  0.1723639E-002  0.9213881E+02  0.7546771E-02  0.1430327E+00
         -4   -1    0    0    0  501 -0.00000000000E+00  0.00000000000E+00  0.15222375077E+02  0.15222375077E+02  0.00000000000E+00 0.  1.
          4   -1    0    0  501    0  0.00000000000E+00 -0.00000000000E+00 -0.18082437351E+03  0.18082437351E+03  0.00000000000E+00 0. -1.
         23    2    1    2    0    0  0.98210639079E+01 -0.19209705730E+01 -0.13193237845E+03  0.16092144811E+03  0.91593758260E+02 0.  0.
         13    1    3    3    0    0  0.15747406010E+02 -0.24877194154E+02 -0.27377825741E+01  0.29569427428E+02  0.00000000000E+00 0.  1.
        -13    1    3    3    0    0 -0.59263421017E+01  0.22956223581E+02 -0.12919459588E+03  0.13135202068E+03  0.00000000000E+00 0. -1.
         22    1    1    2    0    0 -0.98210639079E+01  0.19209705730E+01 -0.33669619984E+02  0.35125300484E+02  0.00000000000E+00 0.  1.
<mgrwt>
<rscale>  0 0.52894406E+02</rscale>
<asrwt>0</asrwt>
<pdfrwt beam="1">  1        4 0.27819137E-01 0.92138808E+02</pdfrwt>
<pdfrwt beam="2">  1       -4 0.23419037E-02 0.92138808E+02</pdfrwt>
<totfact> 0.14175843E+04</totfact>
</mgrwt>
</event>
<event>
 6    1  0.1723639E-002  0.9011698E+02  0.7546771E-02  0.1418265E+00
          4   -1    0    0  501    0  0.00000000000E+00  0.00000000000E+00  0.14031170187E+02  0.14031170187E+02  0.00000000000E+00 0. -1.
         -4   -1    0    0    0  501 -0.00000000000E+00 -0.00000000000E+00 -0.19191137526E+03  0.19191137526E+03  0.00000000000E+00 0.  1.
         23    2    1    2    0    0 -0.10176048982E+02 -0.78657073067E+01 -0.16317856966E+03  0.18640899974E+03  0.89194440755E+02 0.  0.
         11    1    3    3    0    0 -0.33776954033E+02 -0.98663083142E+01 -0.15838039351E+03  0.16224233637E+03  0.00000000000E+00 0.  1.
        -11    1    3    3    0    0  0.23600905052E+02  0.20006010075E+01 -0.47981761499E+01  0.24166663361E+02  0.00000000000E+00 0. -1.
         22    1    1    2    0    0  0.10176048982E+02  0.78657073067E+01 -0.14701635415E+02  0.19533545715E+02  0.00000000000E+00 0. -1.
<mgrwt>
<rscale>  0 0.55389685E+02</rscale>
<asrwt>0</asrwt>
<pdfrwt beam="1">  1        4 0.21586416E-02 0.90116977E+02</pdfrwt>
<pdfrwt beam="2">  1       -4 0.29524826E-01 0.90116977E+02</pdfrwt>
<totfact> 0.14280993E+04</totfact>
</mgrwt>
</event>
<event>
 6    1  0.1723639E-002  0.9189509E+02  0.7546771E-02  0.1425136E+00
         -2   -1    0    0    0  501 -0.00000000000E+00  0.00000000000E+00  0.75176496890E+02  0.75176496890E+02  0.00000000000E+00 0.  1.
          2   -1    0    0  501    0  0.00000000000E+00 -0.00000000000E+00 -0.36284648296E+02  0.36284648296E+02  0.00000000000E+00 0. -1.
         23    2    1    2    0    0  0.85465674321E+01  0.67905176873E+01  0.40506585802E+02  0.10042654861E+03  0.91244469570E+02 0.  0.
         11    1    3    3    0    0  0.43179223266E+02 -0.11370075250E+02  0.41989519399E+02  0.61293096450E+02  0.00000000000E+00 0. -1.
        -11    1    3    3    0    0 -0.34632655834E+02  0.18160592937E+02 -0.14829335965E+01  0.39133452160E+02  0.00000000000E+00 0.  1.
         22    1    1    2    0    0 -0.85465674321E+01 -0.67905176873E+01 -0.16147372086E+01  0.11034596576E+02  0.00000000000E+00 0.  1.
<mgrwt>
<rscale>  0 0.53948982E+02</rscale>
<asrwt>0</asrwt>
<pdfrwt beam="1">  1        2 0.55822536E-02 0.91895093E+02</pdfrwt>
<pdfrwt beam="2">  1       -2 0.11565615E-01 0.91895093E+02</pdfrwt>
<totfact> 0.60975680E+04</totfact>
</mgrwt>
</event>
<event>
 6    1  0.1723639E-002  0.9333962E+02  0.7546771E-02  0.1356728E+00
         -2   -1    0    0    0  501 -0.00000000000E+00  0.00000000000E+00  0.10817315170E+02  0.10817315170E+02  0.00000000000E+00 0.  1.
          2   -1    0    0  501    0  0.00000000000E+00 -0.00000000000E+00 -0.36239677632E+03  0.36239677632E+03  0.00000000000E+00 0. -1.
         23    2    1    2    0    0  0.25427373852E+02  0.18161815456E+02 -0.24621097361E+03  0.26330994667E+03  0.87953860680E+02 0.  0.
         11    1    3    3    0    0  0.13579943089E+02  0.80471788231E+01 -0.24719747246E+03  0.24770095344E+03  0.00000000000E+00 0. -1.
        -11    1    3    3    0    0  0.11847430763E+02  0.10114636633E+02  0.98649885060E+00  0.15608993237E+02  0.00000000000E+00 0.  1.
         22    1    1    2    0    0 -0.25427373852E+02 -0.18161815456E+02 -0.10536848754E+03  0.10990414481E+03  0.00000000000E+00 0. -1.
<mgrwt>
<rscale>  0 0.70999150E+02</rscale>
<asrwt>0</asrwt>
<pdfrwt beam="1">  1        2 0.55753349E-01 0.93339619E+02</pdfrwt>
<pdfrwt beam="2">  1       -2 0.16642024E-02 0.93339619E+02</pdfrwt>
<totfact> 0.78448120E+04</totfact>
</mgrwt>
</event>
<event>
 6    1  0.1723639E-002  0.1101059E+03  0.7546771E-02  0.1290816E+00
         -4   -1    0    0    0  501 -0.00000000000E+00  0.00000000000E+00  0.80774294295E+03  0.80774294295E+03  0.00000000000E+00 0.  1.
          4   -1    0    0  501    0  0.00000000000E+00 -0.00000000000E+00 -0.93177711218E+01  0.93177711218E+01  0.00000000000E+00 0. -1.
         23    2    1    2    0    0  0.58275268727E+02  0.19436205961E+02  0.56888772613E+03  0.57944503272E+03  0.91375751452E+02 0.  0.
         13    1    3    3    0    0  0.34532006300E+02  0.29068872533E+02  0.98388007679E+02  0.10824813562E+03  0.00000000000E+00 0. -1.
        -13    1    3    3    0    0  0.23743262427E+02 -0.96326665721E+01  0.47049971845E+03  0.47119689710E+03  0.00000000000E+00 0.  1.
         22    1    1    2    0    0 -0.58275268727E+02 -0.19436205961E+02  0.22953744570E+03  0.23761568135E+03  0.00000000000E+00 0. -1.
<mgrwt>
<rscale>  0 0.95160082E+02</rscale>
<asrwt>0</asrwt>
<pdfrwt beam="1">  1        4 0.14335039E-02 0.11010586E+03</pdfrwt>
<pdfrwt beam="2">  1       -4 0.12426809E+00 0.11010586E+03</pdfrwt>
<totfact> 0.13663154E+03</totfact>
</mgrwt>
</event>
<event>
 6    1  0.1723639E-002  0.9501296E+02  0.7546771E-02  0.1384716E+00
          1   -1    0    0  501    0  0.00000000000E+00  0.00000000000E+00  0.74294505551E+02  0.74294505551E+02  0.00000000000E+00 0. -1.
         -1   -1    0    0    0  501 -0.00000000000E+00 -0.00000000000E+00 -0.43548803176E+02  0.43548803176E+02  0.00000000000E+00 0.  1.
         23    2    1    2    0    0 -0.23361469799E+01 -0.18500652832E+02  0.27525452087E+02  0.98919732166E+02  0.93165074794E+02 0.  0.
         11    1    3    3    0    0 -0.33450800955E+02 -0.20641856572E+01  0.47746213288E+02  0.58334533771E+02  0.00000000000E+00 0. -1.
        -11    1    3    3    0    0  0.31114653975E+02 -0.16436467175E+02 -0.20220761202E+02  0.40585198395E+02  0.00000000000E+00 0.  1.
         22    1    1    2    0    0  0.23361469799E+01  0.18500652832E+02  0.32202502884E+01  0.18923576560E+02  0.00000000000E+00 0.  1.
<mgrwt>
<rscale>  0 0.63240120E+02</rscale>
<asrwt>0</asrwt>
<pdfrwt beam="1">  1        1 0.11429924E-01 0.95012962E+02</pdfrwt>
<pdfrwt beam="2">  1       -1 0.66998159E-02 0.95012962E+02</pdfrwt>
<totfact> 0.52306754E+04</totfact>
</mgrwt>
</event>
<event>
 6    1  0.1723639E-002  0.9083708E+02  0.7546771E-02  0.1422006E+00
         -2   -1    0    0    0  501 -0.00000000000E+00  0.00000000000E+00  0.84776257157E+01  0.84776257157E+01  0.00000000000E+00 0.  1.
          2   -1    0    0  501    0  0.00000000000E+00 -0.00000000000E+00 -0.32679773320E+03  0.32679773320E+03  0.00000000000E+00 0. -1.
         23    2    1    2    0    0 -0.44755204803E+01  0.10978863516E+02 -0.25127456043E+03  0.26718959603E+03  0.90060034314E+02 0.  0.
         11    1    3    3    0    0  0.77545336518E+01  0.44850350381E+02 -0.19602499507E+03  0.20123987034E+03  0.00000000000E+00 0. -1.
        -11    1    3    3    0    0 -0.12230054132E+02 -0.33871486865E+02 -0.55249565355E+02  0.65949725688E+02  0.00000000000E+00 0.  1.
         22    1    1    2    0    0  0.44755204803E+01 -0.10978863516E+02 -0.67045547056E+02  0.68085762886E+02  0.00000000000E+00 0. -1.
<mgrwt>
<rscale>  0 0.54598701E+02</rscale>
<asrwt>0</asrwt>
<pdfrwt beam="1">  1        2 0.50276585E-01 0.90837082E+02</pdfrwt>
<pdfrwt beam="2">  1       -2 0.13042498E-02 0.90837082E+02</pdfrwt>
<totfact> 0.12327591E+05</totfact>
</mgrwt>
</event>
<event>
 6    1  0.1723639E-002  0.9690828E+02  0.7546771E-02  0.1345410E+00
          2   -1    0    0  501    0  0.00000000000E+00  0.00000000000E+00  0.35732708590E+02  0.35732708590E+02  0.00000000000E+00 0.  1.
         -2   -1    0    0    0  501 -0.00000000000E+00 -0.00000000000E+00 -0.14135394880E+03  0.14135394880E+03  0.00000000000E+00 0. -1.
         23    2    1    2    0    0  0.30199525425E+02 -0.15309010809E+02 -0.10546599893E+03  0.14322810975E+03  0.90801086695E+02 0.  0.
         11    1    3    3    0    0  0.47938148525E+02  0.92430689980E+01 -0.10156327314E+03  0.11268805997E+03  0.00000000000E+00 0. -1.
        -11    1    3    3    0    0 -0.17738623100E+02 -0.24552079807E+02 -0.39027257935E+01  0.30540049787E+02  0.00000000000E+00 0.  1.
         22    1    1    2    0    0 -0.30199525425E+02  0.15309010809E+02 -0.15524127322E+00  0.33858547631E+02  0.00000000000E+00 0.  1.
<mgrwt>
<rscale>  0 0.74505203E+02</rscale>
<asrwt>0</asrwt>
<pdfrwt beam="1">  1        2 0.54973396E-02 0.96908279E+02</pdfrwt>
<pdfrwt beam="2">  1       -2 0.21746762E-01 0.96908279E+02</pdfrwt>
<totfact> 0.22346997E+04</totfact>
</mgrwt>
</event>
<event>
 6    1  0.1723639E-002  0.9191161E+02  0.7546771E-02  0.1428750E+00
          1   -1    0    0  501    0  0.00000000000E+00  0.00000000000E+00  0.46041307756E+01  0.46041307756E+01  0.00000000000E+00 0. -1.
         -1   -1    0    0    0  501 -0.00000000000E+00 -0.00000000000E+00 -0.57973921164E+03  0.57973921164E+03  0.00000000000E+00 0.  1.
         23    2    1    2    0    0  0.62563209410E+01 -0.82144801265E+01 -0.53821481414E+03  0.54600634552E+03  0.91329753971E+02 0.  0.
         13    1    3    3    0    0  0.48329854343E+02  0.27848163616E+01 -0.28828219689E+03  0.29231858489E+03  0.00000000000E+00 0. -1.
        -13    1    3    3    0    0 -0.42073533402E+02 -0.10999296488E+02 -0.24993261724E+03  0.25368776064E+03  0.00000000000E+00 0.  1.
         22    1    1    2    0    0 -0.62563209410E+01  0.82144801265E+01 -0.36920266732E+02  0.38336996896E+02  0.00000000000E+00 0. -1.
<mgrwt>
<rscale>  0 0.53211709E+02</rscale>
<asrwt>0</asrwt>
<pdfrwt beam="1">  1        1 0.70832804E-03 0.91911605E+02</pdfrwt>
<pdfrwt beam="2">  1       -1 0.89190620E-01 0.91911605E+02</pdfrwt>
<totfact> 0.30185938E+04</totfact>
</mgrwt>
</event>
<event>
 6    1  0.1723639E-002  0.9570189E+02  0.7546771E-02  0.1365523E+00
          1   -1    0    0  501    0  0.00000000000E+00  0.00000000000E+00  0.31029770075E+03  0.31029770075E+03  0.00000000000E+00 0. -1.
         -1   -1    0    0    0  501 -0.00000000000E+00 -0.00000000000E+00 -0.12449068012E+02  0.12449068012E+02  0.00000000000E+00 0.  1.
         23    2    1    2    0    0  0.84181846088E+01  0.23553938787E+02  0.26283789433E+03  0.27971880497E+03  0.92375306724E+02 0.  0.
         13    1    3    3    0    0  0.30785048375E+02 -0.20277296824E+02  0.55538204354E+02  0.66658683701E+02  0.00000000000E+00 0.  1.
        -13    1    3    3    0    0 -0.22366863766E+02  0.43831235611E+02  0.20729968998E+03  0.21306012127E+03  0.00000000000E+00 0. -1.
         22    1    1    2    0    0 -0.84181846088E+01 -0.23553938787E+02  0.35010738406E+02  0.43027963794E+02  0.00000000000E+00 0.  1.
<mgrwt>
<rscale>  0 0.68427731E+02</rscale>
<asrwt>0</asrwt>
<pdfrwt beam="1">  1        1 0.47738102E-01 0.95701887E+02</pdfrwt>
<pdfrwt beam="2">  1       -1 0.19152415E-02 0.95701887E+02</pdfrwt>
<totfact> 0.53881455E+04</totfact>
</mgrwt>
</event>
<event>
 6    1  0.1723639E-002  0.1512469E+03  0.7546771E-02  0.1209658E+00
          2   -1    0    0  501    0  0.00000000000E+00  0.00000000000E+00  0.10173711005E+03  0.10173711005E+03  0.00000000000E+00 0. -1.
         -2   -1    0    0    0  501 -0.00000000000E+00 -0.00000000000E+00 -0.18099609650E+03  0.18099609650E+03  0.00000000000E+00 0.  1.
         23    2    1    2    0    0  0.91122065792E+02  0.78179000962E+02 -0.47724701137E+02  0.15859780380E+03  0.91980591455E+02 0.  0.
         11    1    3    3    0    0 -0.17821708196E+02  0.22707777679E+02 -0.11703433665E+02  0.31148464002E+02  0.00000000000E+00 0. -1.
        -11    1    3    3    0    0  0.10894377399E+03  0.55471223283E+02 -0.36021267471E+02  0.12744933979E+03  0.00000000000E+00 0.  1.
         22    1    1    2    0    0 -0.91122065792E+02 -0.78179000962E+02 -0.31534285316E+02  0.12413540275E+03  0.00000000000E+00 0. -1.
<mgrwt>
<rscale>  0 0.14276355E+03</rscale>
<asrwt>0</asrwt>
<pdfrwt beam="1">  1        2 0.15651863E-01 0.15124687E+03</pdfrwt>
<pdfrwt beam="2">  1       -2 0.27845553E-01 0.15124687E+03</pdfrwt>
<totfact> 0.41764853E+03</totfact>
</mgrwt>
</event>
<event>
 6    1  0.1723639E-002  0.9344735E+02  0.7546771E-02  0.1413321E+00
         -4   -1    0    0    0  501 -0.00000000000E+00  0.00000000000E+00  0.20418353771E+02  0.20418353771E+02  0.00000000000E+00 0.  1.
          4   -1    0    0  501    0  0.00000000000E+00 -0.00000000000E+00 -0.15690344695E+03  0.15690344695E+03  0.00000000000E+00 0. -1.
         23    2    1    2    0    0  0.47551039144E+01 -0.11508458290E+02 -0.92031691401E+02  0.13115730619E+03  0.92613989873E+02 0.  0.
         13    1    3    3    0    0  0.29824279100E+02 -0.25127857484E+02 -0.46967030975E+01  0.39280476901E+02  0.00000000000E+00 0.  1.
        -13    1    3    3    0    0 -0.25069175185E+02  0.13619399194E+02 -0.87334988303E+02  0.91876829292E+02  0.00000000000E+00 0. -1.
         22    1    1    2    0    0 -0.47551039144E+01  0.11508458290E+02 -0.44453401778E+02  0.46164494529E+02  0.00000000000E+00 0. -1.
<mgrwt>
<rscale>  0 0.56459389E+02</rscale>
<asrwt>0</asrwt>
<pdfrwt beam="1">  1        4 0.24138992E-01 0.93447347E+02</pdfrwt>
<pdfrwt beam="2">  1       -4 0.31412852E-02 0.93447347E+02</pdfrwt>
<totfact> 0.11733590E+04</totfact>
</mgrwt>
</event>
<event>
 6    1  0.1723639E-002  0.9161851E+02  0.7546771E-02  0.1422595E+00
          4   -1    0    0  501    0  0.00000000000E+00  0.00000000000E+00  0.51184753408E+02  0.51184753408E+02  0.00000000000E+00 0. -1.
         -4   -1    0    0    0  501 -0.00000000000E+00 -0.00000000000E+00 -0.56327353864E+02  0.56327353864E+02  0.00000000000E+00 0.  1.
         23    2    1    2    0    0 -0.51411741317E+01  0.10232415021E+02 -0.14455504055E+02  0.92751884982E+02  0.90900036202E+02 0.  0.
         11    1    3    3    0    0  0.17342780872E+02  0.20597377999E+02  0.30957145206E+02  0.41028878466E+02  0.00000000000E+00 0. -1.
        -11    1    3    3    0    0 -0.22483955004E+02 -0.10364962978E+02 -0.45412649261E+02  0.51723006516E+02  0.00000000000E+00 0.  1.
         22    1    1    2    0    0  0.51411741317E+01 -0.10232415021E+02  0.93129035993E+01  0.14760222290E+02  0.00000000000E+00 0.  1.
<mgrwt>
<rscale>  0 0.54475574E+02</rscale>
<asrwt>0</asrwt>
<pdfrwt beam="1">  1        4 0.78745774E-02 0.91618506E+02</pdfrwt>
<pdfrwt beam="2">  1       -4 0.86657468E-02 0.91618506E+02</pdfrwt>
<totfact> 0.15831251E+04</totfact>
</mgrwt>
</event>
<event>
 6    1  0.1723639E-002  0.9288391E+02  0.7546771E-02  0.1396166E+00
          2   -1    0    0  501    0  0.00000000000E+00  0.00000000000E+00  0.13150438525E+03  0.13150438525E+03  0.00000000000E+00 0. -1.
         -2   -1    0    0    0  501 -0.00000000000E+00 -0.00000000000E+00 -0.28941761713E+02  0.28941761713E+02  0.00000000000E+00 0.  1.
         23    2    1    2    0    0 -0.13949515921E+02 -0.90113822394E+01  0.50343416561E+02  0.10564980054E+03  0.91387235205E+02 0.  0.
         13    1    3    3    0    0 -0.69090613880E+01  0.21620850103E+02  0.66530297598E+02  0.70295638463E+02  0.00000000000E+00 0. -1.
        -13    1    3    3    0    0 -0.70404545334E+01 -0.30632232342E+02 -0.16186881038E+02  0.35354162075E+02  0.00000000000E+00 0.  1.
         22    1    1    2    0    0  0.13949515921E+02  0.90113822394E+01  0.52219206977E+02  0.54796346426E+02  0.00000000000E+00 0.  1.
<mgrwt>
<rscale>  0 0.60398822E+02</rscale>
<asrwt>0</asrwt>
<pdfrwt beam="1">  1        2 0.20231444E-01 0.92883910E+02</pdfrwt>
<pdfrwt beam="2">  1       -2 0.44525788E-02 0.92883910E+02</pdfrwt>
<totfact> 0.55460460E+04</totfact>
</mgrwt>
</event>
<event>
 6    1  0.1723639E-002  0.1000971E+03  0.7546771E-02  0.1346995E+00
         -4   -1    0    0    0  501 -0.00000000000E+00  0.00000000000E+00  0.48308345773E+02  0.48308345773E+02  0.00000000000E+00 0.  1.
          4   -1    0    0  501    0  0.00000000000E+00 -0.00000000000E+00 -0.90509615298E+02  0.90509615298E+02  0.00000000000E+00 0. -1.
         23    2    1    2    0    0 -0.29899884868E+02 -0.35871302350E-01 -0.21303741209E+02  0.10233904810E+03  0.95527100733E+02 0.  0.
         11    1    3    3    0    0  0.26603506783E+02  0.26235181712E+02 -0.12550875119E+02  0.39415172191E+02  0.00000000000E+00 0. -1.
        -11    1    3    3    0    0 -0.56503391651E+02 -0.26271053014E+02 -0.87528660908E+01  0.62923875908E+02  0.00000000000E+00 0.  1.
         22    1    1    2    0    0  0.29899884868E+02  0.35871302350E-01 -0.20897528316E+02  0.36478912971E+02  0.00000000000E+00 0. -1.
<mgrwt>
<rscale>  0 0.74000322E+02</rscale>
<asrwt>0</asrwt>
<pdfrwt beam="1">  1        4 0.13924556E-01 0.10009711E+03</pdfrwt>
<pdfrwt beam="2">  1       -4 0.74320532E-02 0.10009711E+03</pdfrwt>
<totfact> 0.80315392E+03</totfact>
</mgrwt>
</event>
<event>
 6    1  0.1723639E-002  0.9754606E+02  0.7546771E-02  0.1364453E+00
          2   -1    0    0  501    0  0.00000000000E+00  0.00000000000E+00  0.18807506395E+03  0.18807506395E+03  0.00000000000E+00 0. -1.
         -2   -1    0    0    0  501 -0.00000000000E+00 -0.00000000000E+00 -0.41210079344E+02  0.41210079344E+02  0.00000000000E+00 0.  1.
         23    2    1    2    0    0 -0.16540072919E+02  0.17454473235E+02  0.19253746927E+02  0.99428065590E+02  0.94535711813E+02 0.  0.
         13    1    3    3    0    0  0.35562642048E+02  0.35763899148E+01 -0.11259573668E+02  0.37473591681E+02  0.00000000000E+00 0. -1.
        -13    1    3    3    0    0 -0.52102714967E+02  0.13878083320E+02  0.30513320595E+02  0.61954473909E+02  0.00000000000E+00 0.  1.
         22    1    1    2    0    0  0.16540072919E+02 -0.17454473235E+02  0.12761123768E+03  0.12985707770E+03  0.00000000000E+00 0. -1.
<mgrwt>
<rscale>  0 0.68733763E+02</rscale>
<asrwt>0</asrwt>
<pdfrwt beam="1">  1        2 0.28934625E-01 0.97546058E+02</pdfrwt>
<pdfrwt beam="2">  1       -2 0.63400123E-02 0.97546058E+02</pdfrwt>
<totfact> 0.22251919E+04</totfact>
</mgrwt>
</event>
<event>
 6    1  0.1723639E-002  0.9169153E+02  0.7546771E-02  0.1409386E+00
          2   -1    0    0  501    0  0.00000000000E+00  0.00000000000E+00  0.25985892003E+03  0.25985892003E+03  0.00000000000E+00 0.  1.
         -2   -1    0    0    0  501 -0.00000000000E+00 -0.00000000000E+00 -0.10857498857E+02  0.10857498857E+02  0.00000000000E+00 0. -1.
         23    2    1    2    0    0 -0.94769049199E+01  0.10324253736E+02  0.20588550183E+03  0.22538007097E+03  0.90614207399E+02 0.  0.
         13    1    3    3    0    0  0.26621273980E+01  0.24610889450E+02  0.20512919469E+03  0.20661744679E+03  0.00000000000E+00 0.  1.
        -13    1    3    3    0    0 -0.12139032318E+02 -0.14286635715E+02  0.75630714063E+00  0.18762624181E+02  0.00000000000E+00 0. -1.
         22    1    1    2    0    0  0.94769049199E+01 -0.10324253736E+02  0.43115919338E+02  0.45336347916E+02  0.00000000000E+00 0.  1.
<mgrwt>
<rscale>  0 0.57331081E+02</rscale>
<asrwt>0</asrwt>
<pdfrwt beam="1">  1        2 0.39978291E-01 0.91691529E+02</pdfrwt>
<pdfrwt beam="2">  1       -2 0.16703846E-02 0.91691529E+02</pdfrwt>
<totfact> 0.11023708E+05</totfact>
</mgrwt>
</event>
<event>
 6    1  0.1723639E-002  0.9163168E+02  0.7546771E-02  0.1399148E+00
         -4   -1    0    0    0  501 -0.00000000000E+00  0.00000000000E+00  0.65134281774E+03  0.65134281774E+03  0.00000000000E+00 0.  1.
          4   -1    0    0  501    0  0.00000000000E+00 -0.00000000000E+00 -0.52852685332E+01  0.52852685332E+01  0.00000000000E+00 0. -1.
         23    2    1    2    0    0 -0.36124448941E+01  0.16096233787E+02  0.61158877504E+03  0.61841506634E+03  0.90134488486E+02 0.  0.
         13    1    3    3    0    0  0.35221570516E+02  0.92908443844E+01  0.12412590092E+03  0.12936041936E+03  0.00000000000E+00 0. -1.
        -13    1    3    3    0    0 -0.38834015410E+02  0.68053894029E+01  0.48746287412E+03  0.48905464697E+03  0.00000000000E+00 0.  1.
         22    1    1    2    0    0  0.36124448941E+01 -0.16096233787E+02  0.34468774166E+02  0.38213019938E+02  0.00000000000E+00 0.  1.
<mgrwt>
<rscale>  0 0.59687444E+02</rscale>
<asrwt>0</asrwt>
<pdfrwt beam="1">  1        4 0.81311875E-03 0.91631679E+02</pdfrwt>
<pdfrwt beam="2">  1       -4 0.10020652E+00 0.91631679E+02</pdfrwt>
<totfact> 0.50580265E+03</totfact>
</mgrwt>
</event>
<event>
 6    1  0.1723639E-002  0.9065548E+02  0.7546771E-02  0.1419133E+00
          1   -1    0    0  501    0  0.00000000000E+00  0.00000000000E+00  0.20636582606E+03  0.20636582606E+03  0.00000000000E+00 0. -1.
         -1   -1    0    0    0  501 -0.00000000000E+00 -0.00000000000E+00 -0.13078077952E+02  0.13078077952E+02  0.00000000000E+00 0.  1.
         23    2    1    2    0    0 -0.45010649606E+01  0.11624942675E+02  0.15998949608E+03  0.18388870093E+03  0.89794301579E+02 0.  0.
         11    1    3    3    0    0  0.36221492408E+02 -0.14754522061E+01  0.30043977833E+02  0.47083055078E+02  0.00000000000E+00 0.  1.
        -11    1    3    3    0    0 -0.40722557369E+02  0.13100394881E+02  0.12994551824E+03  0.13680564585E+03  0.00000000000E+00 0. -1.
         22    1    1    2    0    0  0.45010649606E+01 -0.11624942675E+02  0.33298252031E+02  0.35555203084E+02  0.00000000000E+00 0.  1.
<mgrwt>
<rscale>  0 0.55204759E+02</rscale>
<asrwt>0</asrwt>
<pdfrwt beam="1">  1        1 0.31748586E-01 0.90655477E+02</pdfrwt>
<pdfrwt beam="2">  1       -1 0.20120121E-02 0.90655477E+02</pdfrwt>
<totfact> 0.82056294E+04</totfact>
</mgrwt>
</event>
<event>
 6    1  0.1723639E-002  0.1027339E+03  0.7546771E-02  0.1339654E+00
         -2   -1    0    0    0  501 -0.00000000000E+00  0.00000000000E+00  0.74867592223E+02  0.74867592223E+02  0.00000000000E+00 0.  1.
          2   -1    0    0  501    0  0.00000000000E+00 -0.00000000000E+00 -0.70212028992E+02  0.70212028992E+02  0.00000000000E+00 0. -1.
         23    2    1    2    0    0 -0.31092421519E+02 -0.42893064105E+01 -0.20617673541E+02  0.10478230961E+03  0.97821813110E+02 0.  0.
         11    1    3    3    0    0  0.30035761779E+02  0.16869759622E+02  0.57545322719E+01  0.34926357053E+02  0.00000000000E+00 0.  1.
        -11    1    3    3    0    0 -0.61128183297E+02 -0.21159066033E+02 -0.26372205813E+02  0.69855952560E+02  0.00000000000E+00 0. -1.
         22    1    1    2    0    0  0.31092421519E+02  0.42893064105E+01  0.25273236773E+02  0.40297311602E+02  0.00000000000E+00 0.  1.
<mgrwt>
<rscale>  0 0.76378696E+02</rscale>
<asrwt>0</asrwt>
<pdfrwt beam="1">  1        2 0.10801851E-01 0.10273385E+03</pdfrwt>
<pdfrwt beam="2">  1       -2 0.11518091E-01 0.10273385E+03</pdfrwt>
<totfact> 0.27380057E+04</totfact>
</mgrwt>
</event>
<event>
 6    1  0.1723639E-002  0.9199473E+02  0.7546771E-02  0.1410221E+00
         -2   -1    0    0    0  501 -0.00000000000E+00  0.00000000000E+00  0.15700805086E+02  0.15700805086E+02  0.00000000000E+00 0.  1.
          2   -1    0    0  501    0  0.00000000000E+00 -0.00000000000E+00 -0.19018877751E+03  0.19018877751E+03  0.00000000000E+00 0. -1.
         23    2    1    2    0    0 -0.13658784881E+02 -0.10170886259E+01 -0.12940839699E+03  0.15877520056E+03  0.90969413685E+02 0.  0.
         13    1    3    3    0    0 -0.21912690980E+00  0.24678353781E+01  0.14241750518E+02  0.14455645467E+02  0.00000000000E+00 0.  1.
        -13    1    3    3    0    0 -0.13439657971E+02 -0.34849240040E+01 -0.14365014751E+03  0.14431955509E+03  0.00000000000E+00 0. -1.
         22    1    1    2    0    0  0.13658784881E+02  0.10170886259E+01 -0.45079575429E+02  0.47114382035E+02  0.00000000000E+00 0.  1.
<mgrwt>
<rscale>  0 0.57144630E+02</rscale>
<asrwt>0</asrwt>
<pdfrwt beam="1">  1        2 0.29259811E-01 0.91994734E+02</pdfrwt>
<pdfrwt beam="2">  1       -2 0.24155086E-02 0.91994734E+02</pdfrwt>
<totfact> 0.90360169E+04</totfact>
</mgrwt>
</event>
<event>
 6    1  0.1723639E-002  0.9504279E+02  0.7546771E-02  0.1404358E+00
         -1   -1    0    0    0  501 -0.00000000000E+00  0.00000000000E+00  0.11478273429E+02  0.11478273429E+02  0.00000000000E+00 0.  1.
          1   -1    0    0  501    0  0.00000000000E+00 -0.00000000000E+00 -0.25728539080E+03  0.25728539080E+03  0.00000000000E+00 0. -1.
         23    2    1    2    0    0 -0.44078704164E+01  0.12882281625E+02 -0.21698739889E+03  0.23688955757E+03  0.94062472384E+02 0.  0.
         13    1    3    3    0    0 -0.20475832549E+02  0.10296051325E+02 -0.21926204672E+03  0.22045660236E+03  0.00000000000E+00 0. -1.
        -13    1    3    3    0    0  0.16067962133E+02  0.25862302997E+01  0.22746478367E+01  0.16432955213E+02  0.00000000000E+00 0.  1.
         22    1    1    2    0    0  0.44078704164E+01 -0.12882281625E+02 -0.28819718490E+02  0.31874106659E+02  0.00000000000E+00 0. -1.
<mgrwt>
<rscale>  0 0.58472002E+02</rscale>
<asrwt>0</asrwt>
<pdfrwt beam="1">  1        1 0.39582365E-01 0.95042786E+02</pdfrwt>
<pdfrwt beam="2">  1       -1 0.17658884E-02 0.95042786E+02</pdfrwt>
<totfact> 0.75987439E+04</totfact>
</mgrwt>
</event>
<event>
 6    1  0.1723639E-002  0.9327995E+02  0.7546771E-02  0.1416113E+00
          1   -1    0    0  501    0  0.00000000000E+00  0.00000000000E+00  0.44469246354E+02  0.44469246354E+02  0.00000000000E+00 0. -1.
         -1   -1    0    0    0  501 -0.00000000000E+00 -0.00000000000E+00 -0.74196143441E+02  0.74196143441E+02  0.00000000000E+00 0.  1.
         23    2    1    2    0    0  0.86583041284E+01 -0.82928654585E+01 -0.41288990886E+02  0.10200946409E+03  0.92506281671E+02 0.  0.
         11    1    3    3    0    0 -0.80969679153E+01 -0.33587684621E+02  0.15310711256E+02  0.37790360236E+02  0.00000000000E+00 0. -1.
        -11    1    3    3    0    0  0.16755272044E+02  0.25294819162E+02 -0.56599702143E+02  0.64219103858E+02  0.00000000000E+00 0.  1.
         22    1    1    2    0    0 -0.86583041284E+01  0.82928654585E+01  0.11562093800E+02  0.16655925700E+02  0.00000000000E+00 0.  1.
<mgrwt>
<rscale>  0 0.55851860E+02</rscale>
<asrwt>0</asrwt>
<pdfrwt beam="1">  1        1 0.68414226E-02 0.93279955E+02</pdfrwt>
<pdfrwt beam="2">  1       -1 0.11414791E-01 0.93279955E+02</pdfrwt>
<totfact> 0.46150701E+04</totfact>
</mgrwt>
</event>
<event>
 6    1  0.1723639E-002  0.9906312E+02  0.7546771E-02  0.1334848E+00
         -1   -1    0    0    0  501 -0.00000000000E+00  0.00000000000E+00  0.41736401116E+02  0.41736401116E+02  0.00000000000E+00 0.  1.
          1   -1    0    0  501    0  0.00000000000E+00 -0.00000000000E+00 -0.12973165562E+03  0.12973165562E+03  0.00000000000E+00 0. -1.
         23    2    1    2    0    0 -0.31050352559E+02  0.22009384574E+02 -0.32660962929E+02  0.10430838708E+03  0.91460175560E+02 0.  0.
         13    1    3    3    0    0  0.31466196121E+02  0.15830501640E+02 -0.46653468864E+01  0.35531559804E+02  0.00000000000E+00 0. -1.
        -13    1    3    3    0    0 -0.62516548681E+02  0.61788829347E+01 -0.27995616042E+02  0.68776827281E+02  0.00000000000E+00 0.  1.
         22    1    1    2    0    0  0.31050352559E+02 -0.22009384574E+02 -0.55334291572E+02  0.67159669648E+02  0.00000000000E+00 0.  1.
<mgrwt>
<rscale>  0 0.77992027E+02</rscale>
<asrwt>0</asrwt>
<pdfrwt beam="1">  1        1 0.19958716E-01 0.99063117E+02</pdfrwt>
<pdfrwt beam="2">  1       -1 0.64209849E-02 0.99063117E+02</pdfrwt>
<totfact> 0.27428451E+04</totfact>
</mgrwt>
</event>
<event>
 6    1  0.1723639E-002  0.9204660E+02  0.7546771E-02  0.1429406E+00
          2   -1    0    0  501    0  0.00000000000E+00  0.00000000000E+00  0.10820716467E+03  0.10820716467E+03  0.00000000000E+00 0. -1.
         -2   -1    0    0    0  501 -0.00000000000E+00 -0.00000000000E+00 -0.34009121602E+02  0.34009121602E+02  0.00000000000E+00 0.  1.
         23    2    1    2    0    0 -0.82669879081E+01  0.59376949968E+01  0.29925821805E+02  0.96789104030E+02  0.91482110477E+02 0.  0.
         13    1    3    3    0    0 -0.17934664560E+01 -0.35760198142E+02 -0.11549061575E+02  0.37621657544E+02  0.00000000000E+00 0.  1.
        -13    1    3    3    0    0 -0.64735214521E+01  0.41697893139E+02  0.41474883380E+02  0.59167446486E+02  0.00000000000E+00 0. -1.
         22    1    1    2    0    0  0.82669879081E+01 -0.59376949968E+01  0.44272221265E+02  0.45427182244E+02  0.00000000000E+00 0. -1.
<mgrwt>
<rscale>  0 0.53079327E+02</rscale>
<asrwt>0</asrwt>
<pdfrwt beam="1">  1        2 0.16647256E-01 0.92046596E+02</pdfrwt>
<pdfrwt beam="2">  1       -2 0.52321726E-02 0.92046596E+02</pdfrwt>
<totfact> 0.54337663E+04</totfact>
</mgrwt>
</event>
<event>
 6    1  0.1723639E-002  0.9616633E+02  0.7546771E-02  0.1351185E+00
         -4   -1    0    0    0  501 -0.00000000000E+00  0.00000000000E+00  0.37492548764E+02  0.37492548764E+02  0.00000000000E+00 0.  1.
          4   -1    0    0  501    0  0.00000000000E+00 -0.00000000000E+00 -0.11563236617E+03  0.11563236617E+03  0.00000000000E+00 0. -1.
         23    2    1    2    0    0 -0.28812463209E+02  0.12453820026E+02 -0.41119115944E+02  0.10458845435E+03  0.90899435739E+02 0.  0.
         13    1    3    3    0    0 -0.42094330972E+02  0.14233679231E+02 -0.64094132371E+02  0.77990949018E+02  0.00000000000E+00 0. -1.
        -13    1    3    3    0    0  0.13281867762E+02 -0.17798592053E+01  0.22975016426E+02  0.26597505331E+02  0.00000000000E+00 0.  1.
         22    1    1    2    0    0  0.28812463209E+02 -0.12453820026E+02 -0.37020701462E+02  0.48536460586E+02  0.00000000000E+00 0.  1.
<mgrwt>
<rscale>  0 0.72687696E+02</rscale>
<asrwt>0</asrwt>
<pdfrwt beam="1">  1        4 0.17789595E-01 0.96166330E+02</pdfrwt>
<pdfrwt beam="2">  1       -4 0.57680845E-02 0.96166330E+02</pdfrwt>
<totfact> 0.78193032E+03</totfact>
</mgrwt>
</event>
<event>
 6    1  0.1723639E-002  0.1006166E+03  0.7546771E-02  0.1325051E+00
         -2   -1    0    0    0  501 -0.00000000000E+00  0.00000000000E+00  0.74358102540E+02  0.74358102540E+02  0.00000000000E+00 0.  1.
          2   -1    0    0  501    0  0.00000000000E+00 -0.00000000000E+00 -0.80912766106E+02  0.80912766106E+02  0.00000000000E+00 0. -1.
         23    2    1    2    0    0  0.33011835890E+02 -0.27798553765E+02  0.22683795644E+02  0.10314190935E+03  0.90890912524E+02 0.  0.
         11    1    3    3    0    0  0.36888756309E+02  0.95429598399E+01  0.45393283138E+02  0.59265492309E+02  0.00000000000E+00 0.  1.
        -11    1    3    3    0    0 -0.38769204182E+01 -0.37341513605E+02 -0.22709487495E+02  0.43876417042E+02  0.00000000000E+00 0. -1.
         22    1    1    2    0    0 -0.33011835890E+02  0.27798553765E+02 -0.29238459209E+02  0.52128959295E+02  0.00000000000E+00 0. -1.
<mgrwt>
<rscale>  0 0.81426438E+02</rscale>
<asrwt>0</asrwt>
<pdfrwt beam="1">  1        2 0.12448118E-01 0.10061659E+03</pdfrwt>
<pdfrwt beam="2">  1       -2 0.11439708E-01 0.10061659E+03</pdfrwt>
<totfact> 0.23300074E+04</totfact>
</mgrwt>
</event>
<event>
 6    1  0.1723639E-002  0.9199787E+02  0.7546771E-02  0.1422743E+00
          2   -1    0    0  501    0  0.00000000000E+00  0.00000000000E+00  0.22013558289E+03  0.22013558289E+03  0.00000000000E+00 0. -1.
         -2   -1    0    0    0  501 -0.00000000000E+00 -0.00000000000E+00 -0.12433390120E+02  0.12433390120E+02  0.00000000000E+00 0.  1.
         23    2    1    2    0    0 -0.62228895457E+01  0.94138134424E+01  0.17107496474E+03  0.19424276695E+03  0.91303147338E+02 0.  0.
         13    1    3    3    0    0  0.82635843949E+01  0.37228489493E+02  0.15376183813E+03  0.15842016956E+03  0.00000000000E+00 0. -1.
        -13    1    3    3    0    0 -0.14486473941E+02 -0.27814676050E+02  0.17313126609E+02  0.35822597393E+02  0.00000000000E+00 0.  1.
         22    1    1    2    0    0  0.62228895457E+01 -0.94138134424E+01  0.36627228026E+02  0.38326206056E+02  0.00000000000E+00 0. -1.
<mgrwt>
<rscale>  0 0.54444719E+02</rscale>
<asrwt>0</asrwt>
<pdfrwt beam="1">  1        2 0.33867010E-01 0.91997875E+02</pdfrwt>
<pdfrwt beam="2">  1       -2 0.19128294E-02 0.91997875E+02</pdfrwt>
<totfact> 0.10819188E+05</totfact>
</mgrwt>
</event>
<event>
 6    1  0.1723639E-002  0.9058948E+02  0.7546771E-02  0.1416020E+00
         -2   -1    0    0    0  501 -0.00000000000E+00  0.00000000000E+00  0.30355848838E+03  0.30355848838E+03  0.00000000000E+00 0.  1.
          2   -1    0    0  501    0  0.00000000000E+00 -0.00000000000E+00 -0.94168015089E+01  0.94168015089E+01  0.00000000000E+00 0. -1.
         23    2    1    2    0    0  0.20335908984E+00  0.13106593827E+02  0.22409547705E+03  0.24171312835E+03  0.89636094441E+02 0.  0.
         11    1    3    3    0    0  0.18144244614E+02 -0.24135976968E+02  0.17475337284E+03  0.17734288911E+03  0.00000000000E+00 0.  1.
        -11    1    3    3    0    0 -0.17940885524E+02  0.37242570795E+02  0.49342104206E+02  0.64370239244E+02  0.00000000000E+00 0. -1.
         22    1    1    2    0    0 -0.20335908984E+00 -0.13106593827E+02  0.70046209823E+02  0.71262161539E+02  0.00000000000E+00 0. -1.
<mgrwt>
<rscale>  0 0.55871952E+02</rscale>
<asrwt>0</asrwt>
<pdfrwt beam="1">  1        2 0.14487389E-02 0.90589478E+02</pdfrwt>
<pdfrwt beam="2">  1       -2 0.46701298E-01 0.90589478E+02</pdfrwt>
<totfact> 0.32764579E+04</totfact>
</mgrwt>
</event>
<event>
 6    1  0.1723639E-002  0.9119716E+02  0.7546771E-02  0.1383088E+00
         -2   -1    0    0    0  501 -0.00000000000E+00  0.00000000000E+00  0.41773351637E+02  0.41773351637E+02  0.00000000000E+00 0.  1.
          2   -1    0    0  501    0  0.00000000000E+00 -0.00000000000E+00 -0.82772365157E+02  0.82772365157E+02  0.00000000000E+00 0. -1.
         23    2    1    2    0    0  0.11831002151E+02 -0.18133521049E+02 -0.17996350881E+02  0.92955849970E+02  0.88589639355E+02 0.  0.
         11    1    3    3    0    0  0.22284725165E+02 -0.19466478524E+02 -0.50641161265E+02  0.58652194981E+02  0.00000000000E+00 0. -1.
        -11    1    3    3    0    0 -0.10453723015E+02  0.13329574758E+01  0.32644810385E+02  0.34303654988E+02  0.00000000000E+00 0.  1.
         22    1    1    2    0    0 -0.11831002151E+02  0.18133521049E+02 -0.23002662639E+02  0.31589866824E+02  0.00000000000E+00 0. -1.
<mgrwt>
<rscale>  0 0.63658896E+02</rscale>
<asrwt>0</asrwt>
<pdfrwt beam="1">  1        2 0.12734210E-01 0.91197157E+02</pdfrwt>
<pdfrwt beam="2">  1       -2 0.64266695E-02 0.91197157E+02</pdfrwt>
<totfact> 0.54434666E+04</totfact>
</mgrwt>
</event>
<event>
 6    1  0.1723639E-002  0.9223999E+02  0.7546771E-02  0.1405683E+00
         -4   -1    0    0    0  501 -0.00000000000E+00  0.00000000000E+00  0.51477103949E+02  0.51477103949E+02  0.00000000000E+00 0.  1.
          4   -1    0    0  501    0  0.00000000000E+00 -0.00000000000E+00 -0.55425323047E+02  0.55425323047E+02  0.00000000000E+00 0. -1.
         23    2    1    2    0    0  0.10858790224E+02  0.97411608904E+01 -0.36168822632E+01  0.92310877225E+02  0.91079156101E+02 0.  0.
         11    1    3    3    0    0  0.22754703768E+02 -0.12642845750E+00  0.40009414834E+02  0.46027663454E+02  0.00000000000E+00 0.  1.
        -11    1    3    3    0    0 -0.11895913543E+02  0.98675893479E+01 -0.43626297097E+02  0.46283213771E+02  0.00000000000E+00 0. -1.
         22    1    1    2    0    0 -0.10858790224E+02 -0.97411608904E+01 -0.33133683556E+00  0.14591549771E+02  0.00000000000E+00 0.  1.
<mgrwt>
<rscale>  0 0.58168357E+02</rscale>
<asrwt>0</asrwt>
<pdfrwt beam="1">  1        4 0.85269728E-02 0.92239993E+02</pdfrwt>
<pdfrwt beam="2">  1       -4 0.79195545E-02 0.92239993E+02</pdfrwt>
<totfact> 0.16140770E+04</totfact>
</mgrwt>
</event>
<event>
 6    1  0.1723639E-002  0.9036060E+02  0.7546771E-02  0.1425569E+00
         -2   -1    0    0    0  501 -0.00000000000E+00  0.00000000000E+00  0.52209194025E+02  0.52209194025E+02  0.00000000000E+00 0. -1.
          2   -1    0    0  501    0  0.00000000000E+00 -0.00000000000E+00 -0.54979321580E+02  0.54979321580E+02  0.00000000000E+00 0.  1.
         23    2    1    2    0    0 -0.11134113441E+02 -0.24746779307E+01  0.89888991058E+01  0.90806598105E+02  0.89637857177E+02 0.  0.
         13    1    3    3    0    0  0.10019501059E+02  0.40792587927E+02  0.71556896927E+01  0.42610204485E+02  0.00000000000E+00 0. -1.
        -13    1    3    3    0    0 -0.21153614500E+02 -0.43267265858E+02  0.18332094131E+01  0.48196393620E+02  0.00000000000E+00 0.  1.
         22    1    1    2    0    0  0.11134113441E+02  0.24746779307E+01 -0.11759026661E+02  0.16381917500E+02  0.00000000000E+00 0. -1.
<mgrwt>
<rscale>  0 0.53859940E+02</rscale>
<asrwt>0</asrwt>
<pdfrwt beam="1">  1        2 0.84583572E-02 0.90360600E+02</pdfrwt>
<pdfrwt beam="2">  1       -2 0.80321837E-02 0.90360600E+02</pdfrwt>
<totfact> 0.63499227E+04</totfact>
</mgrwt>
</event>
<event>
 6    1  0.1723639E-002  0.9289654E+02  0.7546771E-02  0.1407828E+00
         -2   -1    0    0    0  501 -0.00000000000E+00  0.00000000000E+00  0.56550303718E+03  0.56550303718E+03  0.00000000000E+00 0.  1.
          2   -1    0    0  501    0  0.00000000000E+00 -0.00000000000E+00 -0.60257507409E+01  0.60257507409E+01  0.00000000000E+00 0. -1.
         23    2    1    2    0    0  0.13492235965E+02  0.29375681173E+01  0.53823538102E+03  0.54619327365E+03  0.91864558210E+02 0.  0.
         13    1    3    3    0    0 -0.52183395873E+01 -0.90699812680E+01  0.51068156441E+03  0.51078875854E+03  0.00000000000E+00 0.  1.
        -13    1    3    3    0    0  0.18710575552E+02  0.12007549385E+02  0.27553816618E+02  0.35404515107E+02  0.00000000000E+00 0. -1.
         22    1    1    2    0    0 -0.13492235965E+02 -0.29375681173E+01  0.21241905415E+02  0.25335514272E+02  0.00000000000E+00 0. -1.
<mgrwt>
<rscale>  0 0.57681277E+02</rscale>
<asrwt>0</asrwt>
<pdfrwt beam="1">  1        2 0.92703902E-03 0.92896538E+02</pdfrwt>
<pdfrwt beam="2">  1       -2 0.87000425E-01 0.92896538E+02</pdfrwt>
<totfact> 0.16709143E+04</totfact>
</mgrwt>
</event>
<event>
 6    1  0.1723639E-002  0.9568393E+02  0.7546771E-02  0.1356209E+00
         -2   -1    0    0    0  501 -0.00000000000E+00  0.00000000000E+00  0.55581505469E+02  0.55581505469E+02  0.00000000000E+00 0.  1.
          2   -1    0    0  501    0  0.00000000000E+00 -0.00000000000E+00 -0.74217149398E+02  0.74217149398E+02  0.00000000000E+00 0. -1.
         23    2    1    2    0    0  0.27611560607E+02 -0.96882291550E+01 -0.11109589263E+01  0.95690376580E+02  0.91099691970E+02 0.  0.
         13    1    3    3    0    0  0.20651027863E+02 -0.98079526724E+01 -0.45413954845E+02  0.50843762470E+02  0.00000000000E+00 0. -1.
        -13    1    3    3    0    0  0.69605327439E+01  0.11972351740E+00  0.44302995919E+02  0.44846614110E+02  0.00000000000E+00 0.  1.
         22    1    1    2    0    0 -0.27611560607E+02  0.96882291550E+01 -0.17524685002E+02  0.34108278287E+02  0.00000000000E+00 0.  1.
<mgrwt>
<rscale>  0 0.71154923E+02</rscale>
<asrwt>0</asrwt>
<pdfrwt beam="1">  1        2 0.11418023E-01 0.95683927E+02</pdfrwt>
<pdfrwt beam="2">  1       -2 0.85510008E-02 0.95683927E+02</pdfrwt>
<totfact> 0.40384295E+04</totfact>
</mgrwt>
</event>
<event>
 6    1  0.1723639E-002  0.9375021E+02  0.7546771E-02  0.1412960E+00
         -2   -1    0    0    0  501 -0.00000000000E+00  0.00000000000E+00  0.51592401741E+03  0.51592401741E+03  0.00000000000E+00 0.  1.
          2   -1    0    0  501    0  0.00000000000E+00 -0.00000000000E+00 -0.74129959195E+01  0.74129959195E+01  0.00000000000E+00 0. -1.
         23    2    1    2    0    0  0.12138140996E+02 -0.25402921039E+01  0.49894173589E+03  0.50767308095E+03  0.92926388898E+02 0.  0.
         11    1    3    3    0    0  0.99047594358E+01  0.24726558425E+02  0.40862235382E+02  0.48777343423E+02  0.00000000000E+00 0. -1.
        -11    1    3    3    0    0  0.22333815602E+01 -0.27266850529E+02  0.45807950051E+03  0.45889573753E+03  0.00000000000E+00 0.  1.
         22    1    1    2    0    0 -0.12138140996E+02  0.25402921039E+01  0.95692856006E+01  0.15663932384E+02  0.00000000000E+00 0. -1.
<mgrwt>
<rscale>  0 0.56538505E+02</rscale>
<asrwt>0</asrwt>
<pdfrwt beam="1">  1        2 0.11404613E-02 0.93750207E+02</pdfrwt>
<pdfrwt beam="2">  1       -2 0.79372898E-01 0.93750207E+02</pdfrwt>
<totfact> 0.15400899E+04</totfact>
</mgrwt>
</event>
<event>
 6    1  0.1723639E-002  0.9333459E+02  0.7546771E-02  0.1424350E+00
         -4   -1    0    0    0  501 -0.00000000000E+00  0.00000000000E+00  0.60204494638E+03  0.60204494638E+03  0.00000000000E+00 0.  1.
          4   -1    0    0  501    0  0.00000000000E+00 -0.00000000000E+00 -0.62605715222E+01  0.62605715222E+01  0.00000000000E+00 0. -1.
         23    2    1    2    0    0  0.59862237536E+01 -0.86801864257E+01  0.58757650907E+03  0.59494327363E+03  0.92737070868E+02 0.  0.
         13    1    3    3    0    0  0.19660227626E+02  0.38314211454E+02  0.22565541702E+03  0.22972781848E+03  0.00000000000E+00 0. -1.
        -13    1    3    3    0    0 -0.13674003872E+02 -0.46994397880E+02  0.36192109205E+03  0.36521545515E+03  0.00000000000E+00 0.  1.
         22    1    1    2    0    0 -0.59862237536E+01  0.86801864257E+01  0.82078657844E+01  0.13362244271E+02  0.00000000000E+00 0. -1.
<mgrwt>
<rscale>  0 0.54110997E+02</rscale>
<asrwt>0</asrwt>
<pdfrwt beam="1">  1        4 0.96316532E-03 0.93334585E+02</pdfrwt>
<pdfrwt beam="2">  1       -4 0.92622254E-01 0.93334585E+02</pdfrwt>
<totfact> 0.47236338E+03</totfact>
</mgrwt>
</event>
<event>
 6    1  0.1723639E-002  0.9890847E+02  0.7546771E-02  0.1350462E+00
          2   -1    0    0  501    0  0.00000000000E+00  0.00000000000E+00  0.79936464263E+03  0.79936464263E+03  0.00000000000E+00 0. -1.
         -2   -1    0    0    0  501 -0.00000000000E+00 -0.00000000000E+00 -0.51354598957E+01  0.51354598957E+01  0.00000000000E+00 0.  1.
         23    2    1    2    0    0 -0.19033765793E+01  0.29145188934E+02  0.61993193101E+03  0.62777263766E+03  0.94497728142E+02 0.  0.
         13    1    3    3    0    0  0.49120451854E+01  0.34758688151E+02  0.61765827587E+03  0.61865502531E+03  0.00000000000E+00 0. -1.
        -13    1    3    3    0    0 -0.68154217647E+01 -0.56134992167E+01  0.22736551453E+01  0.91176123523E+01  0.00000000000E+00 0.  1.
         22    1    1    2    0    0  0.19033765793E+01 -0.29145188934E+02  0.17429725172E+03  0.17672746486E+03  0.00000000000E+00 0. -1.
<mgrwt>
<rscale>  0 0.72911809E+02</rscale>
<asrwt>0</asrwt>
<pdfrwt beam="1">  1        2 0.12297908E+00 0.98908470E+02</pdfrwt>
<pdfrwt beam="2">  1       -2 0.79007139E-03 0.98908470E+02</pdfrwt>
<totfact> 0.94750539E+04</totfact>
</mgrwt>
</event>
<event>
 6    1  0.1723639E-002  0.9127668E+02  0.7546771E-02  0.1404184E+00
          2   -1    0    0  501    0  0.00000000000E+00  0.00000000000E+00  0.53758495441E+02  0.53758495441E+02  0.00000000000E+00 0. -1.
         -2   -1    0    0    0  501 -0.00000000000E+00 -0.00000000000E+00 -0.53234700982E+02  0.53234700982E+02  0.00000000000E+00 0.  1.
         23    2    1    2    0    0  0.14288142696E+02  0.57814984808E+01  0.32780357431E+01  0.91335527650E+02  0.89965862117E+02 0.  0.
         13    1    3    3    0    0  0.25818660601E+02 -0.23139966508E+02 -0.29938590174E+02  0.45808082986E+02  0.00000000000E+00 0.  1.
        -13    1    3    3    0    0 -0.11530517906E+02  0.28921464989E+02  0.33216625917E+02  0.45527444664E+02  0.00000000000E+00 0. -1.
         22    1    1    2    0    0 -0.14288142696E+02 -0.57814984808E+01 -0.27542412840E+01  0.15657668774E+02  0.00000000000E+00 0. -1.
<mgrwt>
<rscale>  0 0.58512059E+02</rscale>
<asrwt>0</asrwt>
<pdfrwt beam="1">  1        2 0.82705378E-02 0.91276684E+02</pdfrwt>
<pdfrwt beam="2">  1       -2 0.81899540E-02 0.91276684E+02</pdfrwt>
<totfact> 0.63465257E+04</totfact>
</mgrwt>
</event>
<event>
 6    1  0.1723639E-002  0.9669624E+02  0.7546771E-02  0.1347684E+00
         -1   -1    0    0    0  501 -0.00000000000E+00  0.00000000000E+00  0.35768768588E+03  0.35768768588E+03  0.00000000000E+00 0.  1.
          1   -1    0    0  501    0  0.00000000000E+00 -0.00000000000E+00 -0.25012703258E+02  0.25012703258E+02  0.00000000000E+00 0. -1.
         23    2    1    2    0    0 -0.31327983265E+02 -0.96413261735E+01  0.33610998731E+03  0.34974288676E+03  0.90971234840E+02 0.  0.
         13    1    3    3    0    0  0.31364440385E+02 -0.12891320298E+02  0.11558287599E+03  0.12045462001E+03  0.00000000000E+00 0. -1.
        -13    1    3    3    0    0 -0.62692423650E+02  0.32499941248E+01  0.22052711131E+03  0.22928826675E+03  0.00000000000E+00 0.  1.
         22    1    1    2    0    0  0.31327983265E+02  0.96413261735E+01 -0.34350046824E+01  0.32957502378E+02  0.00000000000E+00 0.  1.
<mgrwt>
<rscale>  0 0.73782409E+02</rscale>
<asrwt>0</asrwt>
<pdfrwt beam="1">  1        1 0.38481084E-02 0.96696242E+02</pdfrwt>
<pdfrwt beam="2">  1       -1 0.55028871E-01 0.96696242E+02</pdfrwt>
<totfact> 0.75677426E+03</totfact>
</mgrwt>
</event>
<event>
 6    1  0.1723639E-002  0.1161133E+03  0.7546771E-02  0.1275582E+00
         -4   -1    0    0    0  501 -0.00000000000E+00  0.00000000000E+00  0.29959015149E+02  0.29959015149E+02  0.00000000000E+00 0.  1.
          4   -1    0    0  501    0  0.00000000000E+00 -0.00000000000E+00 -0.30107538552E+03  0.30107538552E+03  0.00000000000E+00 0. -1.
         23    2    1    2    0    0  0.60990887006E+02  0.34137652297E+02 -0.13533550351E+03  0.17831992392E+03  0.92720165852E+02 0.  0.
         13    1    3    3    0    0  0.64034772419E+01 -0.22289627370E+02 -0.16048339223E+01  0.23246666449E+02  0.00000000000E+00 0. -1.
        -13    1    3    3    0    0  0.54587409764E+02  0.56427279667E+02 -0.13373066959E+03  0.15507325747E+03  0.00000000000E+00 0.  1.
         22    1    1    2    0    0 -0.60990887006E+02 -0.34137652297E+02 -0.13578086686E+03  0.15271447675E+03  0.00000000000E+00 0. -1.
<mgrwt>
<rscale>  0 0.10227571E+03</rscale>
<asrwt>0</asrwt>
<pdfrwt beam="1">  1        4 0.46319289E-01 0.11611329E+03</pdfrwt>
<pdfrwt beam="2">  1       -4 0.46090794E-02 0.11611329E+03</pdfrwt>
<totfact> 0.19586529E+03</totfact>
</mgrwt>
</event>
<event>
 6    1  0.1723639E-002  0.9398642E+02  0.7546771E-02  0.1395320E+00
          2   -1    0    0  501    0  0.00000000000E+00  0.00000000000E+00  0.39068063845E+03  0.39068063845E+03  0.00000000000E+00 0. -1.
         -2   -1    0    0    0  501 -0.00000000000E+00 -0.00000000000E+00 -0.78910616079E+01  0.78910616079E+01  0.00000000000E+00 0.  1.
         23    2    1    2    0    0 -0.15447302545E+02 -0.50339999019E+01  0.30719871423E+03  0.32125456857E+03  0.92571526358E+02 0.  0.
         13    1    3    3    0    0 -0.31765777282E+02  0.17310642232E+02  0.28043744394E+03  0.28276117645E+03  0.00000000000E+00 0. -1.
        -13    1    3    3    0    0  0.16318474737E+02 -0.22344642134E+02  0.26761270289E+02  0.38493392125E+02  0.00000000000E+00 0.  1.
         22    1    1    2    0    0  0.15447302545E+02  0.50339999019E+01  0.75590862615E+02  0.77317131489E+02  0.00000000000E+00 0.  1.
<mgrwt>
<rscale>  0 0.60602588E+02</rscale>
<asrwt>0</asrwt>
<pdfrwt beam="1">  1        2 0.60104699E-01 0.93986424E+02</pdfrwt>
<pdfrwt beam="2">  1       -2 0.12140098E-02 0.93986424E+02</pdfrwt>
<totfact> 0.11378510E+05</totfact>
</mgrwt>
</event>
<event>
 6    1  0.1723639E-002  0.9748345E+02  0.7546771E-02  0.1415685E+00
         -1   -1    0    0    0  501 -0.00000000000E+00  0.00000000000E+00  0.21297721242E+03  0.21297721242E+03  0.00000000000E+00 0.  1.
          1   -1    0    0  501    0  0.00000000000E+00 -0.00000000000E+00 -0.16881489609E+02  0.16881489609E+02  0.00000000000E+00 0. -1.
         23    2    1    2    0    0 -0.67933977990E+01  0.81028307555E+01  0.19641958061E+03  0.21927990230E+03  0.96908295752E+02 0.  0.
         11    1    3    3    0    0 -0.19200527945E+02  0.28749547180E+02  0.17504390922E+02  0.38750489520E+02  0.00000000000E+00 0. -1.
        -11    1    3    3    0    0  0.12407130146E+02 -0.20646716425E+02  0.17891518969E+03  0.18052941278E+03  0.00000000000E+00 0.  1.
         22    1    1    2    0    0  0.67933977990E+01 -0.81028307555E+01 -0.32385779603E+00  0.10578799732E+02  0.00000000000E+00 0. -1.
<mgrwt>
<rscale>  0 0.55944369E+02</rscale>
<asrwt>0</asrwt>
<pdfrwt beam="1">  1        1 0.25971524E-02 0.97483455E+02</pdfrwt>
<pdfrwt beam="2">  1       -1 0.32765723E-01 0.97483455E+02</pdfrwt>
<totfact> 0.32305792E+04</totfact>
</mgrwt>
</event>
<event>
 6    1  0.1723639E-002  0.9195212E+02  0.7546771E-02  0.1377974E+00
         -2   -1    0    0    0  501 -0.00000000000E+00  0.00000000000E+00  0.13530160851E+03  0.13530160851E+03  0.00000000000E+00 0.  1.
          2   -1    0    0  501    0  0.00000000000E+00 -0.00000000000E+00 -0.24445371094E+02  0.24445371094E+02  0.00000000000E+00 0. -1.
         23    2    1    2    0    0  0.68957128374E+01  0.21899020000E+02  0.91444522112E+02  0.12968150732E+03  0.89039737111E+02 0.  0.
         13    1    3    3    0    0  0.16903162141E+02 -0.30702450494E+02  0.53871761547E+02  0.64269153167E+02  0.00000000000E+00 0.  1.
        -13    1    3    3    0    0 -0.10007449304E+02  0.52601470494E+02  0.37572760565E+02  0.65412354155E+02  0.00000000000E+00 0. -1.
         22    1    1    2    0    0 -0.68957128374E+01 -0.21899020000E+02  0.19411715310E+02  0.30065472286E+02  0.00000000000E+00 0.  1.
<mgrwt>
<rscale>  0 0.64999466E+02</rscale>
<asrwt>0</asrwt>
<pdfrwt beam="1">  1        2 0.37608264E-02 0.91952122E+02</pdfrwt>
<pdfrwt beam="2">  1       -2 0.20815632E-01 0.91952122E+02</pdfrwt>
<totfact> 0.39139116E+04</totfact>
</mgrwt>
</event>
<event>
 6    1  0.1723639E-002  0.8940139E+02  0.7546771E-02  0.1411318E+00
         -2   -1    0    0    0  501 -0.00000000000E+00  0.00000000000E+00  0.14812081554E+02  0.14812081554E+02  0.00000000000E+00 0.  1.
          2   -1    0    0  501    0  0.00000000000E+00 -0.00000000000E+00 -0.18285793306E+03  0.18285793306E+03  0.00000000000E+00 0. -1.
         23    2    1    2    0    0 -0.14659885395E+02  0.55391599002E+00 -0.14317659430E+03  0.16879616803E+03  0.88189512545E+02 0.  0.
         13    1    3    3    0    0  0.19099955114E+02  0.22593058815E+02 -0.12633709929E+02  0.32169321077E+02  0.00000000000E+00 0.  1.
        -13    1    3    3    0    0 -0.33759840510E+02 -0.22039142825E+02 -0.13054288437E+03  0.13662684695E+03  0.00000000000E+00 0. -1.
         22    1    1    2    0    0  0.14659885395E+02 -0.55391599002E+00 -0.24869257205E+02  0.28873846586E+02  0.00000000000E+00 0. -1.
<mgrwt>
<rscale>  0 0.56900792E+02</rscale>
<asrwt>0</asrwt>
<pdfrwt beam="1">  1        2 0.28131990E-01 0.89401394E+02</pdfrwt>
<pdfrwt beam="2">  1       -2 0.22787818E-02 0.89401394E+02</pdfrwt>
<totfact> 0.10207230E+05</totfact>
</mgrwt>
</event>
<event>
 6    1  0.1723639E-002  0.9477563E+02  0.7546771E-02  0.1412278E+00
          2   -1    0    0  501    0  0.00000000000E+00  0.00000000000E+00  0.18374237538E+03  0.18374237538E+03  0.00000000000E+00 0. -1.
         -2   -1    0    0    0  501 -0.00000000000E+00 -0.00000000000E+00 -0.15685238853E+02  0.15685238853E+02  0.00000000000E+00 0.  1.
         23    2    1    2    0    0 -0.11643304051E+02  0.34044891895E+01  0.14252432754E+03  0.17115958617E+03  0.93996079283E+02 0.  0.
         11    1    3    3    0    0  0.20550438405E+02  0.32097270267E+02  0.11204982283E+03  0.11835420598E+03  0.00000000000E+00 0. -1.
        -11    1    3    3    0    0 -0.32193742456E+02 -0.28692781077E+02  0.30474504709E+02  0.52805380186E+02  0.00000000000E+00 0.  1.
         22    1    1    2    0    0  0.11643304051E+02 -0.34044891895E+01  0.25532808982E+02  0.28268028060E+02  0.00000000000E+00 0. -1.
<mgrwt>
<rscale>  0 0.56688524E+02</rscale>
<asrwt>0</asrwt>
<pdfrwt beam="1">  1        2 0.28268056E-01 0.94775630E+02</pdfrwt>
<pdfrwt beam="2">  1       -2 0.24131138E-02 0.94775630E+02</pdfrwt>
<totfact> 0.94319482E+04</totfact>
</mgrwt>
</event>
<event>
 6    1  0.1723639E-002  0.1002386E+03  0.7546771E-02  0.1332641E+00
          2   -1    0    0  501    0  0.00000000000E+00  0.00000000000E+00  0.12481560006E+02  0.12481560006E+02  0.00000000000E+00 0. -1.
         -2   -1    0    0    0  501 -0.00000000000E+00 -0.00000000000E+00 -0.38499222109E+03  0.38499222109E+03  0.00000000000E+00 0.  1.
         23    2    1    2    0    0 -0.22341547796E+02 -0.30963856650E+02 -0.27948866217E+03  0.29692032537E+03  0.92681509265E+02 0.  0.
         13    1    3    3    0    0  0.23397239287E+02 -0.72150136246E+01 -0.20431538782E+03  0.20577722160E+03  0.00000000000E+00 0.  1.
        -13    1    3    3    0    0 -0.45738787084E+02 -0.23748843026E+02 -0.75173274347E+02  0.91143103771E+02  0.00000000000E+00 0. -1.
         22    1    1    2    0    0  0.22341547796E+02  0.30963856650E+02 -0.93021998921E+02  0.10055345573E+03  0.00000000000E+00 0. -1.
<mgrwt>
<rscale>  0 0.78748492E+02</rscale>
<asrwt>0</asrwt>
<pdfrwt beam="1">  1        2 0.19202399E-02 0.10023855E+03</pdfrwt>
<pdfrwt beam="2">  1       -2 0.59229577E-01 0.10023855E+03</pdfrwt>
<totfact> 0.14137381E+04</totfact>
</mgrwt>
</event>
<event>
 6    1  0.1723639E-002  0.9167106E+02  0.7546771E-02  0.1375222E+00
         -2   -1    0    0    0  501 -0.00000000000E+00  0.00000000000E+00  0.31074876149E+03  0.31074876149E+03  0.00000000000E+00 0.  1.
          2   -1    0    0  501    0  0.00000000000E+00 -0.00000000000E+00 -0.16129578851E+02  0.16129578851E+02  0.00000000000E+00 0. -1.
         23    2    1    2    0    0  0.22894429853E+02 -0.79637196364E+01  0.28728009673E+03  0.30155171540E+03  0.88408185929E+02 0.  0.
         11    1    3    3    0    0  0.52001054075E+02  0.14962265234E+02  0.18581169202E+03  0.19353026610E+03  0.00000000000E+00 0.  1.
        -11    1    3    3    0    0 -0.29106624222E+02 -0.22925984870E+02  0.10146840470E+03  0.10802144930E+03  0.00000000000E+00 0. -1.
         22    1    1    2    0    0 -0.22894429853E+02  0.79637196364E+01  0.73390859149E+01  0.25326624939E+02  0.00000000000E+00 0. -1.
<mgrwt>
<rscale>  0 0.65736590E+02</rscale>
<asrwt>0</asrwt>
<pdfrwt beam="1">  1        2 0.24814739E-02 0.91671059E+02</pdfrwt>
<pdfrwt beam="2">  1       -2 0.47807497E-01 0.91671059E+02</pdfrwt>
<totfact> 0.15163814E+04</totfact>
</mgrwt>
</event>
<event>
 6    1  0.1723639E-002  0.9510516E+02  0.7546771E-02  0.1382187E+00
          2   -1    0    0  501    0  0.00000000000E+00  0.00000000000E+00  0.66691948429E+02  0.66691948429E+02  0.00000000000E+00 0. -1.
         -2   -1    0    0    0  501 -0.00000000000E+00 -0.00000000000E+00 -0.58898381955E+02  0.58898381955E+02  0.00000000000E+00 0.  1.
         23    2    1    2    0    0  0.19289733307E+02  0.17866809521E+01 -0.14335779292E+02  0.96179550321E+02  0.93111252232E+02 0.  0.
         13    1    3    3    0    0  0.29433691833E+01  0.23450249071E+02 -0.47662611477E+02  0.53200583986E+02  0.00000000000E+00 0.  1.
        -13    1    3    3    0    0  0.16346364124E+02 -0.21663568119E+02  0.33326832186E+02  0.42978966335E+02  0.00000000000E+00 0. -1.
         22    1    1    2    0    0 -0.19289733307E+02 -0.17866809521E+01  0.22129345765E+02  0.29410780063E+02  0.00000000000E+00 0. -1.
<mgrwt>
<rscale>  0 0.63892276E+02</rscale>
<asrwt>0</asrwt>
<pdfrwt beam="1">  1        2 0.10260300E-01 0.95105159E+02</pdfrwt>
<pdfrwt beam="2">  1       -2 0.90612895E-02 0.95105159E+02</pdfrwt>
<totfact> 0.41970254E+04</totfact>
</mgrwt>
</event>
<event>
 6    1  0.1723639E-002  0.1105456E+03  0.7546771E-02  0.1297192E+00
          3   -1    0    0  501    0  0.00000000000E+00  0.00000000000E+00  0.63719580876E+03  0.63719580876E+03  0.00000000000E+00 0. -1.
         -3   -1    0    0    0  501 -0.00000000000E+00 -0.00000000000E+00 -0.10836815361E+02  0.10836815361E+02  0.00000000000E+00 0.  1.
         23    2    1    2    0    0  0.29345933520E+02  0.45221559647E+02  0.46275627213E+03  0.47577693139E+03  0.96509832539E+02 0.  0.
         11    1    3    3    0    0  0.27709358477E+01  0.61966343978E+02  0.16339864015E+03  0.17477591789E+03  0.00000000000E+00 0. -1.
        -11    1    3    3    0    0  0.26574997673E+02 -0.16744784332E+02  0.29935763198E+03  0.30100101350E+03  0.00000000000E+00 0.  1.
         22    1    1    2    0    0 -0.29345933520E+02 -0.45221559647E+02  0.16360272126E+03  0.17225569272E+03  0.00000000000E+00 0.  1.
<mgrwt>
<rscale>  0 0.92378556E+02</rscale>
<asrwt>0</asrwt>
<pdfrwt beam="1">  1        3 0.98030095E-01 0.11054556E+03</pdfrwt>
<pdfrwt beam="2">  1       -3 0.16672029E-02 0.11054556E+03</pdfrwt>
<totfact> 0.26358447E+03</totfact>
</mgrwt>
</event>
<event>
 6    1  0.1723639E-002  0.9153918E+02  0.7546771E-02  0.1426704E+00
         -2   -1    0    0    0  501 -0.00000000000E+00  0.00000000000E+00  0.95199789667E+01  0.95199789667E+01  0.00000000000E+00 0.  1.
          2   -1    0    0  501    0  0.00000000000E+00 -0.00000000000E+00 -0.29602025859E+03  0.29602025859E+03  0.00000000000E+00 0. -1.
         23    2    1    2    0    0 -0.93023864175E+01  0.54524907423E+01 -0.22179318474E+03  0.23994090694E+03  0.90901914063E+02 0.  0.
         11    1    3    3    0    0  0.20686204374E+02 -0.34082945045E+02 -0.74256500738E+02  0.84282822071E+02  0.00000000000E+00 0. -1.
        -11    1    3    3    0    0 -0.29988590792E+02  0.39535435788E+02 -0.14753668400E+03  0.15565808487E+03  0.00000000000E+00 0.  1.
         22    1    1    2    0    0  0.93023864175E+01 -0.54524907423E+01 -0.64707094886E+02  0.65599330613E+02  0.00000000000E+00 0.  1.
<mgrwt>
<rscale>  0 0.53627303E+02</rscale>
<asrwt>0</asrwt>
<pdfrwt beam="1">  1        2 0.45541574E-01 0.91539183E+02</pdfrwt>
<pdfrwt beam="2">  1       -2 0.14646123E-02 0.91539183E+02</pdfrwt>
<totfact> 0.11602618E+05</totfact>
</mgrwt>
</event>
<event>
 6    1  0.1723639E-002  0.1040377E+03  0.7546771E-02  0.1320691E+00
          2   -1    0    0  501    0  0.00000000000E+00  0.00000000000E+00  0.54214418937E+03  0.54214418937E+03  0.00000000000E+00 0. -1.
         -2   -1    0    0    0  501 -0.00000000000E+00 -0.00000000000E+00 -0.10064860222E+02  0.10064860222E+02  0.00000000000E+00 0.  1.
         23    2    1    2    0    0 -0.19733694558E+02 -0.37286864358E+02  0.41207244726E+03  0.42500299371E+03  0.95100546321E+02 0.  0.
         11    1    3    3    0    0  0.12403328400E+02 -0.14545404751E+02  0.35587086476E+03  0.35638389938E+03  0.00000000000E+00 0. -1.
        -11    1    3    3    0    0 -0.32137022958E+02 -0.22741459607E+02  0.56201582502E+02  0.68619094321E+02  0.00000000000E+00 0.  1.
         22    1    1    2    0    0  0.19733694558E+02  0.37286864358E+02  0.12000688188E+03  0.12720605589E+03  0.00000000000E+00 0.  1.
<mgrwt>
<rscale>  0 0.83020871E+02</rscale>
<asrwt>0</asrwt>
<pdfrwt beam="1">  1        2 0.83406775E-01 0.10403770E+03</pdfrwt>
<pdfrwt beam="2">  1       -2 0.15484405E-02 0.10403770E+03</pdfrwt>
<totfact> 0.57345363E+04</totfact>
</mgrwt>
</event>
<event>
 6    1  0.1723639E-002  0.9722579E+02  0.7546771E-02  0.1395661E+00
         -3   -1    0    0    0  501 -0.00000000000E+00  0.00000000000E+00  0.95723913197E+02  0.95723913197E+02  0.00000000000E+00 0.  1.
          3   -1    0    0  501    0  0.00000000000E+00 -0.00000000000E+00 -0.54990197126E+02  0.54990197126E+02  0.00000000000E+00 0. -1.
         23    2    1    2    0    0 -0.12335476153E+02  0.78044064133E+01  0.68781313565E+02  0.11909543773E+03  0.96123781973E+02 0.  0.
         11    1    3    3    0    0 -0.25201368978E+02 -0.40228526885E+02  0.32135243645E+02  0.57324665353E+02  0.00000000000E+00 0. -1.
        -11    1    3    3    0    0  0.12865892826E+02  0.48032933298E+02  0.36646069920E+02  0.61770772377E+02  0.00000000000E+00 0.  1.
         22    1    1    2    0    0  0.12335476153E+02 -0.78044064133E+01 -0.28047597494E+02  0.31618672594E+02  0.00000000000E+00 0. -1.
<mgrwt>
<rscale>  0 0.60520442E+02</rscale>
<asrwt>0</asrwt>
<pdfrwt beam="1">  1        3 0.84600303E-02 0.97225790E+02</pdfrwt>
<pdfrwt beam="2">  1       -3 0.14726756E-01 0.97225790E+02</pdfrwt>
<totfact> 0.78539869E+03</totfact>
</mgrwt>
</event>
<event>
 6    1  0.1723639E-002  0.9670397E+02  0.7546771E-02  0.1381505E+00
          4   -1    0    0  501    0  0.00000000000E+00  0.00000000000E+00  0.45553481029E+03  0.45553481029E+03  0.00000000000E+00 0. -1.
         -4   -1    0    0    0  501 -0.00000000000E+00 -0.00000000000E+00 -0.73093989625E+01  0.73093989625E+01  0.00000000000E+00 0.  1.
         23    2    1    2    0    0  0.12028537371E+01 -0.18594101078E+02  0.36969777714E+03  0.38213623701E+03  0.94891884604E+02 0.  0.
         13    1    3    3    0    0 -0.38759070335E+02  0.88443228215E+01  0.24753790748E+03  0.25070999824E+03  0.00000000000E+00 0. -1.
        -13    1    3    3    0    0  0.39961924073E+02 -0.27438423900E+02  0.12215986966E+03  0.13142623877E+03  0.00000000000E+00 0.  1.
         22    1    1    2    0    0 -0.12028537371E+01  0.18594101078E+02  0.78527634187E+02  0.80707972240E+02  0.00000000000E+00 0. -1.
<mgrwt>
<rscale>  0 0.64069852E+02</rscale>
<asrwt>0</asrwt>
<pdfrwt beam="1">  1        4 0.70082256E-01 0.96703967E+02</pdfrwt>
<pdfrwt beam="2">  1       -4 0.11245233E-02 0.96703967E+02</pdfrwt>
<totfact> 0.69790035E+03</totfact>
</mgrwt>
</event>
<event>
 6    1  0.1723639E-002  0.9132970E+02  0.7546771E-02  0.1401041E+00
         -1   -1    0    0    0  501 -0.00000000000E+00  0.00000000000E+00  0.38251000901E+02  0.38251000901E+02  0.00000000000E+00 0.  1.
          1   -1    0    0  501    0  0.00000000000E+00 -0.00000000000E+00 -0.10864212260E+03  0.10864212260E+03  0.00000000000E+00 0. -1.
         23    2    1    2    0    0 -0.11910013937E+02  0.10935306384E+02 -0.19356419821E+02  0.93358367001E+02  0.89887064382E+02 0.  0.
         13    1    3    3    0    0  0.19542817878E+02  0.31308307693E+02 -0.36714898932E+02  0.52058771257E+02  0.00000000000E+00 0. -1.
        -13    1    3    3    0    0 -0.31452831815E+02 -0.20373001309E+02  0.17358479112E+02  0.41299595744E+02  0.00000000000E+00 0.  1.
         22    1    1    2    0    0  0.11910013937E+02 -0.10935306384E+02 -0.51034701876E+02  0.53534756498E+02  0.00000000000E+00 0. -1.
<mgrwt>
<rscale>  0 0.59241809E+02</rscale>
<asrwt>0</asrwt>
<pdfrwt beam="1">  1        1 0.16714173E-01 0.91329698E+02</pdfrwt>
<pdfrwt beam="2">  1       -1 0.58847694E-02 0.91329698E+02</pdfrwt>
<totfact> 0.38657084E+04</totfact>
</mgrwt>
</event>
<event>
 6    1  0.1723639E-002  0.9286543E+02  0.7546771E-02  0.1406679E+00
         -4   -1    0    0    0  501 -0.00000000000E+00  0.00000000000E+00  0.25069368843E+02  0.25069368843E+02  0.00000000000E+00 0.  1.
          4   -1    0    0  501    0  0.00000000000E+00 -0.00000000000E+00 -0.12235929265E+03  0.12235929265E+03  0.00000000000E+00 0. -1.
         23    2    1    2    0    0  0.18156616757E+01 -0.13955758911E+02 -0.68542453464E+02  0.11542121103E+03  0.91792854812E+02 0.  0.
         11    1    3    3    0    0  0.22859271711E+02 -0.47802542514E+02 -0.40391662983E+02  0.66626689941E+02  0.00000000000E+00 0. -1.
        -11    1    3    3    0    0 -0.21043610035E+02  0.33846783603E+02 -0.28150790481E+02  0.48794521089E+02  0.00000000000E+00 0.  1.
         22    1    1    2    0    0 -0.18156616757E+01  0.13955758911E+02 -0.28747470343E+02  0.32007450465E+02  0.00000000000E+00 0.  1.
<mgrwt>
<rscale>  0 0.57941550E+02</rscale>
<asrwt>0</asrwt>
<pdfrwt beam="1">  1        4 0.18824507E-01 0.92865430E+02</pdfrwt>
<pdfrwt beam="2">  1       -4 0.38568260E-02 0.92865430E+02</pdfrwt>
<totfact> 0.13282535E+04</totfact>
</mgrwt>
</event>
<event>
 6    1  0.1723639E-002  0.9451463E+02  0.7546771E-02  0.1359626E+00
         -2   -1    0    0    0  501 -0.00000000000E+00  0.00000000000E+00  0.41432715603E+02  0.41432715603E+02  0.00000000000E+00 0.  1.
          2   -1    0    0  501    0  0.00000000000E+00 -0.00000000000E+00 -0.20256920534E+03  0.20256920534E+03  0.00000000000E+00 0. -1.
         23    2    1    2    0    0 -0.16130419516E+02  0.23692262423E+02 -0.15751042989E+02  0.95818109888E+02  0.90063872307E+02 0.  0.
         13    1    3    3    0    0  0.19397904528E+02  0.18698698085E+02  0.28253917980E+02  0.39041053923E+02  0.00000000000E+00 0.  1.
        -13    1    3    3    0    0 -0.35528324045E+02  0.49935643375E+01 -0.44004960969E+02  0.56777055966E+02  0.00000000000E+00 0. -1.
         22    1    1    2    0    0  0.16130419516E+02 -0.23692262423E+02 -0.14538544674E+03  0.14818381105E+03  0.00000000000E+00 0.  1.
<mgrwt>
<rscale>  0 0.70137636E+02</rscale>
<asrwt>0</asrwt>
<pdfrwt beam="1">  1        2 0.31164492E-01 0.94514628E+02</pdfrwt>
<pdfrwt beam="2">  1       -2 0.63742641E-02 0.94514628E+02</pdfrwt>
<totfact> 0.20315974E+04</totfact>
</mgrwt>
</event>
<event>
 6    1  0.1723639E-002  0.1001153E+03  0.7546771E-02  0.1326327E+00
         -1   -1    0    0    0  501 -0.00000000000E+00  0.00000000000E+00  0.13474781927E+03  0.13474781927E+03  0.00000000000E+00 0.  1.
          1   -1    0    0  501    0  0.00000000000E+00 -0.00000000000E+00 -0.43339884515E+02  0.43339884515E+02  0.00000000000E+00 0. -1.
         23    2    1    2    0    0  0.91169441773E+01  0.41848662529E+02  0.90944113083E+02  0.13525495513E+03  0.90491115350E+02 0.  0.
         13    1    3    3    0    0 -0.27366430634E+02  0.17959726718E+02 -0.17865267530E+01  0.32782083328E+02  0.00000000000E+00 0. -1.
        -13    1    3    3    0    0  0.36483374812E+02  0.23888935811E+02  0.92730639836E+02  0.10247287181E+03  0.00000000000E+00 0.  1.
         22    1    1    2    0    0 -0.91169441773E+01 -0.41848662529E+02  0.46382167372E+00  0.42832748653E+02  0.00000000000E+00 0. -1.
<mgrwt>
<rscale>  0 0.80967909E+02</rscale>
<asrwt>0</asrwt>
<pdfrwt beam="1">  1        1 0.66676746E-02 0.10011529E+03</pdfrwt>
<pdfrwt beam="2">  1       -1 0.20730434E-01 0.10011529E+03</pdfrwt>
<totfact> 0.19027423E+04</totfact>
</mgrwt>
</event>
<event>
 6    1  0.1790764E-002  0.1045258E+03  0.7546771E-02  0.1392720E+00
          2   -1    0    0  501    0  0.00000000000E+00  0.00000000000E+00  0.50438927900E+02  0.50438927900E+02  0.00000000000E+00 0. -1.
         -2   -1    0    0    0  501 -0.00000000000E+00 -0.00000000000E+00 -0.74501881560E+02  0.74501881560E+02  0.00000000000E+00 0.  1.
         23    2    1    2    0    0  0.12280259253E+02 -0.88487020801E+00 -0.33129737949E+02  0.10965047461E+03  0.10379816608E+03 0.  0.
         13    1    3    3    0    0  0.99088003874E+01  0.31585277088E+01  0.37474471745E+02  0.38890829960E+02  0.00000000000E+00 0. -1.
        -13    1    3    3    0    0  0.23714588652E+01 -0.40433979168E+01 -0.70604209694E+02  0.70759644646E+02  0.00000000000E+00 0.  1.
         22    1    1    2    0    0 -0.12280259253E+02  0.88487020801E+00  0.90667842897E+01  0.15290334854E+02  0.00000000000E+00 0.  1.
<mgrwt>
<rscale>  0 0.61235139E+02</rscale>
<asrwt>0</asrwt>
<pdfrwt beam="1">  1        2 0.77598351E-02 0.10452582E+03</pdfrwt>
<pdfrwt beam="2">  1       -2 0.11461828E-01 0.10452582E+03</pdfrwt>
<totfact> 0.41509544E+04</totfact>
</mgrwt>
</event>
<event>
 6    1  0.1723639E-002  0.9374875E+02  0.7546771E-02  0.1411537E+00
         -3   -1    0    0    0  501 -0.00000000000E+00  0.00000000000E+00  0.28864356559E+03  0.28864356559E+03  0.00000000000E+00 0.  1.
          3   -1    0    0  501    0  0.00000000000E+00 -0.00000000000E+00 -0.16457928085E+02  0.16457928085E+02  0.00000000000E+00 0. -1.
         23    2    1    2    0    0 -0.12677497034E+02 -0.20739552140E+00  0.27630008859E+03  0.29177142797E+03  0.92887379548E+02 0.  0.
         11    1    3    3    0    0  0.38320340978E+02 -0.23974703096E+01  0.16368493895E+03  0.16812779555E+03  0.00000000000E+00 0.  1.
        -11    1    3    3    0    0 -0.50997838013E+02  0.21900747882E+01  0.11261514964E+03  0.12364363242E+03  0.00000000000E+00 0. -1.
         22    1    1    2    0    0  0.12677497034E+02  0.20739552140E+00 -0.41144510866E+01  0.13330065705E+02  0.00000000000E+00 0. -1.
<mgrwt>
<rscale>  0 0.56852164E+02</rscale>
<asrwt>0</asrwt>
<pdfrwt beam="1">  1        3 0.25319891E-02 0.93748745E+02</pdfrwt>
<pdfrwt beam="2">  1       -3 0.44406699E-01 0.93748745E+02</pdfrwt>
<totfact> 0.70326444E+03</totfact>
</mgrwt>
</event>
<event>
 6    1  0.1723639E-002  0.9334270E+02  0.7546771E-02  0.1369452E+00
         -2   -1    0    0    0  501 -0.00000000000E+00  0.00000000000E+00  0.41613065442E+01  0.41613065442E+01  0.00000000000E+00 0.  1.
          2   -1    0    0  501    0  0.00000000000E+00 -0.00000000000E+00 -0.86009007270E+03  0.86009007270E+03  0.00000000000E+00 0. -1.
         23    2    1    2    0    0 -0.24187034938E+02 -0.72624801540E+01 -0.71642966054E+03  0.72248482203E+03  0.89861578461E+02 0.  0.
         13    1    3    3    0    0 -0.26162306743E+02  0.19173595154E+02 -0.65211084207E+03  0.65291702642E+03  0.00000000000E+00 0. -1.
        -13    1    3    3    0    0  0.19752718051E+01 -0.26436075308E+02 -0.64318818474E+02  0.69567795612E+02  0.00000000000E+00 0.  1.
         22    1    1    2    0    0  0.24187034938E+02  0.72624801540E+01 -0.13949910561E+03  0.14176655721E+03  0.00000000000E+00 0.  1.
<mgrwt>
<rscale>  0 0.67319690E+02</rscale>
<asrwt>0</asrwt>
<pdfrwt beam="1">  1        2 0.13232169E+00 0.93342700E+02</pdfrwt>
<pdfrwt beam="2">  1       -2 0.64020031E-03 0.93342700E+02</pdfrwt>
<totfact> 0.11549117E+05</totfact>
</mgrwt>
</event>
<event>
 6    1  0.1723639E-002  0.9392588E+02  0.7546771E-02  0.1415498E+00
          1   -1    0    0  501    0  0.00000000000E+00  0.00000000000E+00  0.53360894991E+03  0.53360894991E+03  0.00000000000E+00 0. -1.
         -1   -1    0    0    0  501 -0.00000000000E+00 -0.00000000000E+00 -0.53577856541E+01  0.53577856541E+01  0.00000000000E+00 0.  1.
         23    2    1    2    0    0 -0.47392149651E+01 -0.10867319158E+02  0.48998053023E+03  0.49890178563E+03  0.93174636677E+02 0.  0.
         13    1    3    3    0    0  0.34805038505E+02 -0.14456591628E+02  0.99347044993E+02  0.10625544266E+03  0.00000000000E+00 0.  1.
        -13    1    3    3    0    0 -0.39544253470E+02  0.35892724700E+01  0.39063348523E+03  0.39264634297E+03  0.00000000000E+00 0. -1.
         22    1    1    2    0    0  0.47392149651E+01  0.10867319158E+02  0.38270634026E+02  0.40064949930E+02  0.00000000000E+00 0. -1.
<mgrwt>
<rscale>  0 0.55984940E+02</rscale>
<asrwt>0</asrwt>
<pdfrwt beam="1">  1        1 0.82093643E-01 0.93925884E+02</pdfrwt>
<pdfrwt beam="2">  1       -1 0.82427514E-03 0.93925884E+02</pdfrwt>
<totfact> 0.89998533E+04</totfact>
</mgrwt>
</event>
<event>
 6    1  0.1723639E-002  0.9220546E+02  0.7546771E-02  0.1421013E+00
         -2   -1    0    0    0  501 -0.00000000000E+00  0.00000000000E+00  0.27174454608E+02  0.27174454608E+02  0.00000000000E+00 0. -1.
          2   -1    0    0  501    0  0.00000000000E+00 -0.00000000000E+00 -0.10090029123E+03  0.10090029123E+03  0.00000000000E+00 0.  1.
         23    2    1    2    0    0  0.38877149200E+01 -0.10833648682E+02 -0.59335094504E+02  0.10964716516E+03  0.91484234250E+02 0.  0.
         13    1    3    3    0    0 -0.25842152387E+02  0.10784056712E+02 -0.66537469526E+02  0.72189663873E+02  0.00000000000E+00 0.  1.
        -13    1    3    3    0    0  0.29729867307E+02 -0.21617705394E+02  0.72023750218E+01  0.37457501285E+02  0.00000000000E+00 0. -1.
         22    1    1    2    0    0 -0.38877149200E+01  0.10833648682E+02 -0.14390742122E+02  0.18427580685E+02  0.00000000000E+00 0.  1.
<mgrwt>
<rscale>  0 0.54807149E+02</rscale>
<asrwt>0</asrwt>
<pdfrwt beam="1">  1        2 0.15523122E-01 0.92205463E+02</pdfrwt>
<pdfrwt beam="2">  1       -2 0.41806853E-02 0.92205463E+02</pdfrwt>
<totfact> 0.82108759E+04</totfact>
</mgrwt>
</event>
<event>
 6    1  0.1723639E-002  0.9515772E+02  0.7546771E-02  0.1400349E+00
          1   -1    0    0  501    0  0.00000000000E+00  0.00000000000E+00  0.25204584661E+02  0.25204584661E+02  0.00000000000E+00 0. -1.
         -1   -1    0    0    0  501 -0.00000000000E+00 -0.00000000000E+00 -0.12060962670E+03  0.12060962670E+03  0.00000000000E+00 0.  1.
         23    2    1    2    0    0  0.14430383984E+02 -0.79658375126E+00 -0.76975280541E+02  0.12239356584E+03  0.94053817669E+02 0.  0.
         11    1    3    3    0    0  0.52627194240E+02  0.13510357100E+02 -0.45623748117E+02  0.70948415873E+02  0.00000000000E+00 0. -1.
        -11    1    3    3    0    0 -0.38196810257E+02 -0.14306940851E+02 -0.31351532424E+02  0.51445149972E+02  0.00000000000E+00 0.  1.
         22    1    1    2    0    0 -0.14430383984E+02  0.79658375126E+00 -0.18429761501E+02  0.23420645520E+02  0.00000000000E+00 0. -1.
<mgrwt>
<rscale>  0 0.59404269E+02</rscale>
<asrwt>0</asrwt>
<pdfrwt beam="1">  1        1 0.38776284E-02 0.95157717E+02</pdfrwt>
<pdfrwt beam="2">  1       -1 0.18555327E-01 0.95157717E+02</pdfrwt>
<totfact> 0.46925853E+04</totfact>
</mgrwt>
</event>
<event>
 6    1  0.1723639E-002  0.9268778E+02  0.7546771E-02  0.1401065E+00
          2   -1    0    0  501    0  0.00000000000E+00  0.00000000000E+00  0.51463682081E+02  0.51463682081E+02  0.00000000000E+00 0. -1.
         -2   -1    0    0    0  501 -0.00000000000E+00 -0.00000000000E+00 -0.65735487221E+02  0.65735487221E+02  0.00000000000E+00 0.  1.
         23    2    1    2    0    0  0.13350385547E+02  0.78012124570E+01 -0.27680172349E+02  0.96732708414E+02  0.91388911941E+02 0.  0.
         13    1    3    3    0    0 -0.77662592143E+01 -0.28764887415E+01  0.31725010397E+02  0.32788187726E+02  0.00000000000E+00 0. -1.
        -13    1    3    3    0    0  0.21116644762E+02  0.10677701199E+02 -0.59405182746E+02  0.63944520688E+02  0.00000000000E+00 0.  1.
         22    1    1    2    0    0 -0.13350385547E+02 -0.78012124570E+01  0.13408367209E+02  0.20466460888E+02  0.00000000000E+00 0. -1.
<mgrwt>
<rscale>  0 0.59236233E+02</rscale>
<asrwt>0</asrwt>
<pdfrwt beam="1">  1        2 0.79174896E-02 0.92687782E+02</pdfrwt>
<pdfrwt beam="2">  1       -2 0.10113152E-01 0.92687782E+02</pdfrwt>
<totfact> 0.48475054E+04</totfact>
</mgrwt>
</event>
<event>
 6    1  0.1723639E-002  0.8653715E+02  0.7546771E-02  0.1421901E+00
         -3   -1    0    0    0  501 -0.00000000000E+00  0.00000000000E+00  0.45812210243E+03  0.45812210243E+03  0.00000000000E+00 0.  1.
          3   -1    0    0  501    0  0.00000000000E+00 -0.00000000000E+00 -0.71635233293E+01  0.71635233293E+01  0.00000000000E+00 0. -1.
         23    2    1    2    0    0  0.13719455586E+02 -0.65024042569E+00  0.43777941370E+03  0.44625048261E+03  0.85440224086E+02 0.  0.
         11    1    3    3    0    0  0.34605558998E+01 -0.39037094770E+01 -0.25381343453E+01  0.58014240296E+01  0.00000000000E+00 0. -1.
        -11    1    3    3    0    0  0.10258899686E+02  0.32534690513E+01  0.44031754805E+03  0.44044905858E+03  0.00000000000E+00 0.  1.
         22    1    1    2    0    0 -0.13719455586E+02  0.65024042569E+00  0.13179165398E+02  0.19035143151E+02  0.00000000000E+00 0. -1.
<mgrwt>
<rscale>  0 0.54620789E+02</rscale>
<asrwt>0</asrwt>
<pdfrwt beam="1">  1        3 0.11020809E-02 0.86537149E+02</pdfrwt>
<pdfrwt beam="2">  1       -3 0.70480301E-01 0.86537149E+02</pdfrwt>
<totfact> 0.94751734E+03</totfact>
</mgrwt>
</event>
<event>
 6    1  0.1723639E-002  0.1089984E+03  0.7546771E-02  0.1340357E+00
         -1   -1    0    0    0  501 -0.00000000000E+00  0.00000000000E+00  0.25698989738E+03  0.25698989738E+03  0.00000000000E+00 0.  1.
          1   -1    0    0  501    0  0.00000000000E+00 -0.00000000000E+00 -0.19156939926E+02  0.19156939926E+02  0.00000000000E+00 0. -1.
         23    2    1    2    0    0 -0.53884921041E+01 -0.25396658368E+02  0.21708554559E+03  0.24291310139E+03  0.10586129898E+03 0.  0.
         11    1    3    3    0    0  0.64453606630E+01 -0.33040280461E+02  0.22448866952E+03  0.22699860253E+03  0.00000000000E+00 0.  1.
        -11    1    3    3    0    0 -0.11833852767E+02  0.76436220925E+01 -0.74031239360E+01  0.15914498862E+02  0.00000000000E+00 0. -1.
         22    1    1    2    0    0  0.53884921041E+01  0.25396658368E+02  0.20747411864E+02  0.33233735909E+02  0.00000000000E+00 0. -1.
<mgrwt>
<rscale>  0 0.76146428E+02</rscale>
<asrwt>0</asrwt>
<pdfrwt beam="1">  1        1 0.29472217E-02 0.10899835E+03</pdfrwt>
<pdfrwt beam="2">  1       -1 0.39536905E-01 0.10899835E+03</pdfrwt>
<totfact> 0.19956780E+04</totfact>
</mgrwt>
</event>
<event>
 6    1  0.1723639E-002  0.9263675E+02  0.7546771E-02  0.1422459E+00
          2   -1    0    0  501    0  0.00000000000E+00  0.00000000000E+00  0.15038369141E+03  0.15038369141E+03  0.00000000000E+00 0. -1.
         -2   -1    0    0    0  501 -0.00000000000E+00 -0.00000000000E+00 -0.17892155515E+02  0.17892155515E+02  0.00000000000E+00 0.  1.
         23    2    1    2    0    0 -0.96667343375E+01  0.54579517537E+01  0.11775684641E+03  0.14982737641E+03  0.91969195143E+02 0.  0.
         13    1    3    3    0    0  0.97650923752E+01 -0.30301331533E+01 -0.13462940105E+02  0.16905309589E+02  0.00000000000E+00 0.  1.
        -13    1    3    3    0    0 -0.19431826713E+02  0.84880849070E+01  0.13121978651E+03  0.13292206682E+03  0.00000000000E+00 0. -1.
         22    1    1    2    0    0  0.96667343375E+01 -0.54579517537E+01  0.14734689485E+02  0.18448470514E+02  0.00000000000E+00 0. -1.
<mgrwt>
<rscale>  0 0.54504109E+02</rscale>
<asrwt>0</asrwt>
<pdfrwt beam="1">  1        2 0.23135952E-01 0.92636752E+02</pdfrwt>
<pdfrwt beam="2">  1       -2 0.27526394E-02 0.92636752E+02</pdfrwt>
<totfact> 0.96601108E+04</totfact>
</mgrwt>
</event>
<event>
 6    1  0.1723639E-002  0.9477781E+02  0.7546771E-02  0.1390897E+00
         -2   -1    0    0    0  501 -0.00000000000E+00  0.00000000000E+00  0.44494449296E+02  0.44494449296E+02  0.00000000000E+00 0.  1.
          2   -1    0    0  501    0  0.00000000000E+00 -0.00000000000E+00 -0.87703207576E+02  0.87703207576E+02  0.00000000000E+00 0. -1.
         23    2    1    2    0    0  0.12938391865E+02 -0.11034768007E+02 -0.10532231871E+02  0.95361214763E+02  0.93239826705E+02 0.  0.
         13    1    3    3    0    0  0.12122694937E+02 -0.40065970665E+02 -0.37148870994E+02  0.55966779021E+02  0.00000000000E+00 0. -1.
        -13    1    3    3    0    0  0.81569692853E+00  0.29031202658E+02  0.26616639123E+02  0.39394435742E+02  0.00000000000E+00 0.  1.
         22    1    1    2    0    0 -0.12938391865E+02  0.11034768007E+02 -0.32676526409E+02  0.36836442109E+02  0.00000000000E+00 0. -1.
<mgrwt>
<rscale>  0 0.61684181E+02</rscale>
<asrwt>0</asrwt>
<pdfrwt beam="1">  1        2 0.13492801E-01 0.94777811E+02</pdfrwt>
<pdfrwt beam="2">  1       -2 0.68452999E-02 0.94777811E+02</pdfrwt>
<totfact> 0.46471878E+04</totfact>
</mgrwt>
</event>
<event>
 6    1  0.1723639E-002  0.9266855E+02  0.7546771E-02  0.1381161E+00
          2   -1    0    0  501    0  0.00000000000E+00  0.00000000000E+00  0.19482252535E+02  0.19482252535E+02  0.00000000000E+00 0. -1.
         -2   -1    0    0    0  501 -0.00000000000E+00 -0.00000000000E+00 -0.17274612287E+03  0.17274612287E+03  0.00000000000E+00 0.  1.
         23    2    1    2    0    0  0.34826567119E+01  0.21006788685E+02 -0.13716259854E+03  0.16553258881E+03  0.90188943059E+02 0.  0.
         13    1    3    3    0    0  0.42230618915E+02  0.16644508578E+02 -0.38771559653E+02  0.59696722504E+02  0.00000000000E+00 0. -1.
        -13    1    3    3    0    0 -0.38747962204E+02  0.43622801071E+01 -0.98391038891E+02  0.10583586631E+03  0.00000000000E+00 0.  1.
         22    1    1    2    0    0 -0.34826567119E+01 -0.21006788685E+02 -0.16101271791E+02  0.26695786595E+02  0.00000000000E+00 0.  1.
<mgrwt>
<rscale>  0 0.64159525E+02</rscale>
<asrwt>0</asrwt>
<pdfrwt beam="1">  1        2 0.29972697E-02 0.92668547E+02</pdfrwt>
<pdfrwt beam="2">  1       -2 0.26576326E-01 0.92668547E+02</pdfrwt>
<totfact> 0.34774532E+04</totfact>
</mgrwt>
</event>
<event>
 6    1  0.1723639E-002  0.1064532E+03  0.7546771E-02  0.1326350E+00
         -2   -1    0    0    0  501 -0.00000000000E+00  0.00000000000E+00  0.32193917361E+03  0.32193917361E+03  0.00000000000E+00 0.  1.
          2   -1    0    0  501    0  0.00000000000E+00 -0.00000000000E+00 -0.16187194413E+02  0.16187194413E+02  0.00000000000E+00 0. -1.
         23    2    1    2    0    0  0.28587006596E+02 -0.21236868205E+02  0.20041993378E+03  0.22693706409E+03  0.10031978710E+03 0.  0.
         11    1    3    3    0    0  0.78775269159E+01 -0.51078788218E+02  0.17533437493E+03  0.18279289118E+03  0.00000000000E+00 0.  1.
        -11    1    3    3    0    0  0.20709479680E+02  0.29841920013E+02  0.25085558854E+02  0.44144172907E+02  0.00000000000E+00 0. -1.
         22    1    1    2    0    0 -0.28587006596E+02  0.21236868205E+02  0.10533204542E+03  0.11118930393E+03  0.00000000000E+00 0. -1.
<mgrwt>
<rscale>  0 0.80959607E+02</rscale>
<asrwt>0</asrwt>
<pdfrwt beam="1">  1        2 0.24903378E-02 0.10645319E+03</pdfrwt>
<pdfrwt beam="2">  1       -2 0.49529099E-01 0.10645319E+03</pdfrwt>
<totfact> 0.14337590E+04</totfact>
</mgrwt>
</event>
<event>
 6    1  0.1723639E-002  0.9203972E+02  0.7546771E-02  0.1407320E+00
          4   -1    0    0  501    0  0.00000000000E+00  0.00000000000E+00  0.21273061752E+02  0.21273061752E+02  0.00000000000E+00 0. -1.
         -4   -1    0    0    0  501 -0.00000000000E+00 -0.00000000000E+00 -0.19579773402E+03  0.19579773402E+03  0.00000000000E+00 0.  1.
         23    2    1    2    0    0  0.41739421764E+01  0.13688748804E+02 -0.17966201200E+03  0.20186566846E+03  0.90920327275E+02 0.  0.
         11    1    3    3    0    0 -0.66527485706E+01 -0.16610138664E+01  0.95316541222E+01  0.11741825280E+02  0.00000000000E+00 0. -1.
        -11    1    3    3    0    0  0.10826690747E+02  0.15349762670E+02 -0.18919366612E+03  0.19012384318E+03  0.00000000000E+00 0.  1.
         22    1    1    2    0    0 -0.41739421764E+01 -0.13688748804E+02  0.51373397275E+01  0.15205127312E+02  0.00000000000E+00 0. -1.
<mgrwt>
<rscale>  0 0.57796117E+02</rscale>
<asrwt>0</asrwt>
<pdfrwt beam="1">  1        4 0.32727788E-02 0.92039717E+02</pdfrwt>
<pdfrwt beam="2">  1       -4 0.30122728E-01 0.92039717E+02</pdfrwt>
<totfact> 0.72773857E+03</totfact>
</mgrwt>
</event>
<event>
 6    1  0.1723639E-002  0.1104387E+03  0.7546771E-02  0.1351603E+00
          4   -1    0    0  501    0  0.00000000000E+00  0.00000000000E+00  0.20459200439E+02  0.20459200439E+02  0.00000000000E+00 0. -1.
         -4   -1    0    0    0  501 -0.00000000000E+00 -0.00000000000E+00 -0.22839876818E+03  0.22839876818E+03  0.00000000000E+00 0.  1.
         23    2    1    2    0    0  0.87602451776E+01 -0.18619541611E+02 -0.19625404536E+03  0.22519405815E+03  0.10850476616E+03 0.  0.
         11    1    3    3    0    0  0.49265960316E+02 -0.25431478020E+02 -0.55024069908E+02  0.78112375392E+02  0.00000000000E+00 0.  1.
        -11    1    3    3    0    0 -0.40505715138E+02  0.68119364090E+01 -0.14122997545E+03  0.14708168276E+03  0.00000000000E+00 0. -1.
         22    1    1    2    0    0 -0.87602451776E+01  0.18619541611E+02 -0.11685522382E+02  0.23663910470E+02  0.00000000000E+00 0. -1.
<mgrwt>
<rscale>  0 0.72558561E+02</rscale>
<asrwt>0</asrwt>
<pdfrwt beam="1">  1        4 0.31475691E-02 0.11043873E+03</pdfrwt>
<pdfrwt beam="2">  1       -4 0.35138275E-01 0.11043873E+03</pdfrwt>
<totfact> 0.60749142E+03</totfact>
</mgrwt>
</event>
<event>
 6    1  0.1723639E-002  0.9573167E+02  0.7546771E-02  0.1389321E+00
          2   -1    0    0  501    0  0.00000000000E+00  0.00000000000E+00  0.76799020683E+02  0.76799020683E+02  0.00000000000E+00 0. -1.
         -2   -1    0    0    0  501 -0.00000000000E+00 -0.00000000000E+00 -0.70581438906E+02  0.70581438906E+02  0.00000000000E+00 0.  1.
         23    2    1    2    0    0  0.10604281658E+02 -0.13191020954E+02 -0.35702601375E+02  0.10217254459E+03  0.94223666344E+02 0.  0.
         13    1    3    3    0    0 -0.81859976942E+01 -0.42009610181E+02 -0.49204829482E+02  0.65214516407E+02  0.00000000000E+00 0.  1.
        -13    1    3    3    0    0  0.18790279353E+02  0.28818589226E+02  0.13502228108E+02  0.36958028181E+02  0.00000000000E+00 0. -1.
         22    1    1    2    0    0 -0.10604281658E+02  0.13191020954E+02  0.41920183152E+02  0.45207915001E+02  0.00000000000E+00 0.  1.
<mgrwt>
<rscale>  0 0.62075977E+02</rscale>
<asrwt>0</asrwt>
<pdfrwt beam="1">  1        2 0.11815234E-01 0.95731673E+02</pdfrwt>
<pdfrwt beam="2">  1       -2 0.10858683E-01 0.95731673E+02</pdfrwt>
<totfact> 0.26754356E+04</totfact>
</mgrwt>
</event>
<event>
 6    1  0.1723639E-002  0.9118951E+02  0.7546771E-02  0.1431660E+00
          2   -1    0    0  501    0  0.00000000000E+00  0.00000000000E+00  0.12085465972E+03  0.12085465972E+03  0.00000000000E+00 0. -1.
         -2   -1    0    0    0  501 -0.00000000000E+00 -0.00000000000E+00 -0.27039617436E+02  0.27039617436E+02  0.00000000000E+00 0.  1.
         23    2    1    2    0    0 -0.71627689644E+01 -0.71444705318E+01  0.52212585371E+02  0.10507940661E+03  0.90626590495E+02 0.  0.
         13    1    3    3    0    0 -0.10778346082E+02  0.20964689847E+02  0.68464780807E+02  0.72409372153E+02  0.00000000000E+00 0. -1.
        -13    1    3    3    0    0  0.36155771172E+01 -0.28109160379E+02 -0.16252195437E+02  0.32670034460E+02  0.00000000000E+00 0.  1.
         22    1    1    2    0    0  0.71627689644E+01  0.71444705318E+01  0.41602456917E+02  0.42814870547E+02  0.00000000000E+00 0.  1.
<mgrwt>
<rscale>  0 0.52628256E+02</rscale>
<asrwt>0</asrwt>
<pdfrwt beam="1">  1        2 0.18593024E-01 0.91189515E+02</pdfrwt>
<pdfrwt beam="2">  1       -2 0.41599412E-02 0.91189515E+02</pdfrwt>
<totfact> 0.67229557E+04</totfact>
</mgrwt>
</event>
<event>
 6    1  0.1723639E-002  0.9891478E+02  0.7546771E-02  0.1335134E+00
          2   -1    0    0  501    0  0.00000000000E+00  0.00000000000E+00  0.57777709493E+02  0.57777709493E+02  0.00000000000E+00 0. -1.
         -2   -1    0    0    0  501 -0.00000000000E+00 -0.00000000000E+00 -0.82079419779E+02  0.82079419779E+02  0.00000000000E+00 0.  1.
         23    2    1    2    0    0 -0.26818059274E+02  0.26979349626E+02 -0.10849743889E+02  0.99508039947E+02  0.91307389965E+02 0.  0.
         13    1    3    3    0    0 -0.31902482449E+02  0.34349267588E+02 -0.44530433874E+02  0.64657560357E+02  0.00000000000E+00 0.  1.
        -13    1    3    3    0    0  0.50844231750E+01 -0.73699179625E+01  0.33680689985E+02  0.34850479590E+02  0.00000000000E+00 0. -1.
         22    1    1    2    0    0  0.26818059274E+02 -0.26979349626E+02 -0.13451966397E+02  0.40349089325E+02  0.00000000000E+00 0. -1.
<mgrwt>
<rscale>  0 0.77894709E+02</rscale>
<asrwt>0</asrwt>
<pdfrwt beam="1">  1        2 0.88888784E-02 0.98914777E+02</pdfrwt>
<pdfrwt beam="2">  1       -2 0.12627603E-01 0.98914777E+02</pdfrwt>
<totfact> 0.29871214E+04</totfact>
</mgrwt>
</event>
<event>
 6    1  0.1723639E-002  0.9175837E+02  0.7546771E-02  0.1408930E+00
         -4   -1    0    0    0  501 -0.00000000000E+00  0.00000000000E+00  0.16375089218E+02  0.16375089218E+02  0.00000000000E+00 0.  1.
          4   -1    0    0  501    0  0.00000000000E+00 -0.00000000000E+00 -0.19326149964E+03  0.19326149964E+03  0.00000000000E+00 0. -1.
         23    2    1    2    0    0  0.46901735474E+01 -0.13279807087E+02 -0.12016396935E+03  0.15119186005E+03  0.90671097995E+02 0.  0.
         11    1    3    3    0    0  0.32967776940E+02 -0.32151556445E+02 -0.10360264985E+03  0.11337594963E+03  0.00000000000E+00 0. -1.
        -11    1    3    3    0    0 -0.28277603392E+02  0.18871749358E+02 -0.16561319499E+02  0.37815910422E+02  0.00000000000E+00 0.  1.
         22    1    1    2    0    0 -0.46901735474E+01  0.13279807087E+02 -0.56722441070E+02  0.58444728806E+02  0.00000000000E+00 0.  1.
<mgrwt>
<rscale>  0 0.57433275E+02</rscale>
<asrwt>0</asrwt>
<pdfrwt beam="1">  1        4 0.29732538E-01 0.91758373E+02</pdfrwt>
<pdfrwt beam="2">  1       -4 0.25192445E-02 0.91758373E+02</pdfrwt>
<totfact> 0.11178447E+04</totfact>
</mgrwt>
</event>
<event>
 6    1  0.1723639E-002  0.9795829E+02  0.7546771E-02  0.1346534E+00
          2   -1    0    0  501    0  0.00000000000E+00  0.00000000000E+00  0.14572995786E+03  0.14572995786E+03  0.00000000000E+00 0. -1.
         -2   -1    0    0    0  501 -0.00000000000E+00 -0.00000000000E+00 -0.36563605952E+02  0.36563605952E+02  0.00000000000E+00 0.  1.
         23    2    1    2    0    0  0.31173070925E+02 -0.78842210645E+01  0.39608074048E+02  0.10566279120E+03  0.92530560471E+02 0.  0.
         11    1    3    3    0    0  0.63223816878E+00  0.35794356924E+02  0.38191339385E+02  0.52347054518E+02  0.00000000000E+00 0. -1.
        -11    1    3    3    0    0  0.30540832756E+02 -0.43678577988E+02  0.14167346629E+01  0.53315736679E+02  0.00000000000E+00 0.  1.
         22    1    1    2    0    0 -0.31173070925E+02  0.78842210645E+01  0.69558277856E+02  0.76630772611E+02  0.00000000000E+00 0. -1.
<mgrwt>
<rscale>  0 0.74146699E+02</rscale>
<asrwt>0</asrwt>
<pdfrwt beam="1">  1        2 0.22419993E-01 0.97958287E+02</pdfrwt>
<pdfrwt beam="2">  1       -2 0.56251702E-02 0.97958287E+02</pdfrwt>
<totfact> 0.35187355E+04</totfact>
</mgrwt>
</event>
<event>
 6    1  0.1723639E-002  0.1055879E+03  0.7546771E-02  0.1311598E+00
          2   -1    0    0  501    0  0.00000000000E+00  0.00000000000E+00  0.58461631081E+02  0.58461631081E+02  0.00000000000E+00 0. -1.
         -2   -1    0    0    0  501 -0.00000000000E+00 -0.00000000000E+00 -0.16545323537E+03  0.16545323537E+03  0.00000000000E+00 0.  1.
         23    2    1    2    0    0  0.45323662252E+02 -0.14284100464E+02 -0.13294057950E+03  0.16977043737E+03  0.94289627434E+02 0.  0.
         13    1    3    3    0    0 -0.18683907083E+02  0.37380337348E+01 -0.86719177778E+02  0.88787820531E+02  0.00000000000E+00 0.  1.
        -13    1    3    3    0    0  0.64007569335E+02 -0.18022134199E+02 -0.46221401723E+02  0.80982616842E+02  0.00000000000E+00 0. -1.
         22    1    1    2    0    0 -0.45323662252E+02  0.14284100464E+02  0.25948975209E+02  0.54144429081E+02  0.00000000000E+00 0. -1.
<mgrwt>
<rscale>  0 0.86483365E+02</rscale>
<asrwt>0</asrwt>
<pdfrwt beam="1">  1        2 0.89940971E-02 0.10558790E+03</pdfrwt>
<pdfrwt beam="2">  1       -2 0.25454344E-01 0.10558790E+03</pdfrwt>
<totfact> 0.92591261E+03</totfact>
</mgrwt>
</event>
<event>
 6    1  0.1723639E-002  0.9420897E+02  0.7546771E-02  0.1372763E+00
         -2   -1    0    0    0  501 -0.00000000000E+00  0.00000000000E+00  0.29783298309E+01  0.29783298309E+01  0.00000000000E+00 0. -1.
          2   -1    0    0  501    0  0.00000000000E+00 -0.00000000000E+00 -0.12765754415E+04  0.12765754415E+04  0.00000000000E+00 0.  1.
         23    2    1    2    0    0  0.80838257901E+00  0.23241451716E+02 -0.11451316167E+04  0.11490003265E+04  0.91293549407E+02 0.  0.
         13    1    3    3    0    0  0.13429478268E+02  0.31887316174E+02 -0.15773656477E+03  0.16148676628E+03  0.00000000000E+00 0. -1.
        -13    1    3    3    0    0 -0.12621095689E+02 -0.86458644581E+01 -0.98739505193E+03  0.98751356021E+03  0.00000000000E+00 0.  1.
         22    1    1    2    0    0 -0.80838257901E+00 -0.23241451716E+02 -0.12846549494E+03  0.13055344480E+03  0.00000000000E+00 0. -1.
<mgrwt>
<rscale>  0 0.66404980E+02</rscale>
<asrwt>0</asrwt>
<pdfrwt beam="1">  1        2 0.19639658E+00 0.94208974E+02</pdfrwt>
<pdfrwt beam="2">  1       -2 0.45820375E-03 0.94208974E+02</pdfrwt>
<totfact> 0.10660115E+05</totfact>
</mgrwt>
</event>
<event>
 6    1  0.1723639E-002  0.9266625E+02  0.7546771E-02  0.1411626E+00
         -4   -1    0    0    0  501 -0.00000000000E+00  0.00000000000E+00  0.14095807815E+03  0.14095807815E+03  0.00000000000E+00 0.  1.
          4   -1    0    0  501    0  0.00000000000E+00 -0.00000000000E+00 -0.30113377235E+02  0.30113377235E+02  0.00000000000E+00 0. -1.
         23    2    1    2    0    0 -0.13108448790E+02 -0.23606694256E+00  0.12245077191E+03  0.15356179972E+03  0.91734113808E+02 0.  0.
         13    1    3    3    0    0  0.29502470450E+02 -0.26632891601E+02  0.35973633398E+02  0.53607918981E+02  0.00000000000E+00 0. -1.
        -13    1    3    3    0    0 -0.42610919240E+02  0.26396824658E+02  0.86477138511E+02  0.99953880742E+02  0.00000000000E+00 0.  1.
         22    1    1    2    0    0  0.13108448790E+02  0.23606694256E+00 -0.11606070996E+02  0.17509655658E+02  0.00000000000E+00 0. -1.
<mgrwt>
<rscale>  0 0.56832484E+02</rscale>
<asrwt>0</asrwt>
<pdfrwt beam="1">  1        4 0.46328273E-02 0.92666255E+02</pdfrwt>
<pdfrwt beam="2">  1       -4 0.21685858E-01 0.92666255E+02</pdfrwt>
<totfact> 0.77173878E+03</totfact>
</mgrwt>
</event>
<event>
 6    1  0.1723639E-002  0.1041427E+03  0.7546771E-02  0.1311582E+00
          2   -1    0    0  501    0  0.00000000000E+00  0.00000000000E+00  0.33575765819E+03  0.33575765819E+03  0.00000000000E+00 0. -1.
         -2   -1    0    0    0  501 -0.00000000000E+00 -0.00000000000E+00 -0.19222682792E+02  0.19222682792E+02  0.00000000000E+00 0.  1.
         23    2    1    2    0    0  0.22181814810E+02  0.44298328874E+02  0.16100526913E+03  0.19175085718E+03  0.91604146705E+02 0.  0.
         11    1    3    3    0    0  0.56058403809E+02  0.12072493720E+02  0.91424317198E+02  0.10791985692E+03  0.00000000000E+00 0. -1.
        -11    1    3    3    0    0 -0.33876588999E+02  0.32225835154E+02  0.69580951930E+02  0.83831000263E+02  0.00000000000E+00 0.  1.
         22    1    1    2    0    0 -0.22181814810E+02 -0.44298328874E+02  0.15552970627E+03  0.16322948380E+03  0.00000000000E+00 0. -1.
<mgrwt>
<rscale>  0 0.86489647E+02</rscale>
<asrwt>0</asrwt>
<pdfrwt beam="1">  1        2 0.51655020E-01 0.10414266E+03</pdfrwt>
<pdfrwt beam="2">  1       -2 0.29573361E-02 0.10414266E+03</pdfrwt>
<totfact> 0.37578216E+04</totfact>
</mgrwt>
</event>
<event>
 6    1  0.1723639E-002  0.8676782E+02  0.7546771E-02  0.1414885E+00
         -4   -1    0    0    0  501 -0.00000000000E+00  0.00000000000E+00  0.64531362286E+02  0.64531362286E+02  0.00000000000E+00 0. -1.
          4   -1    0    0  501    0  0.00000000000E+00 -0.00000000000E+00 -0.47634599690E+02  0.47634599690E+02  0.00000000000E+00 0.  1.
         23    2    1    2    0    0 -0.29760240541E+01 -0.14887466336E+02  0.30307933818E+02  0.91908793206E+02  0.85429280947E+02 0.  0.
         11    1    3    3    0    0  0.31882033833E+02  0.13363913460E+02 -0.48472764314E+01  0.34907797884E+02  0.00000000000E+00 0.  1.
        -11    1    3    3    0    0 -0.34858057887E+02 -0.28251379796E+02  0.35155210249E+02  0.57000995322E+02  0.00000000000E+00 0. -1.
         22    1    1    2    0    0  0.29760240541E+01  0.14887466336E+02 -0.13411171222E+02  0.20257168771E+02  0.00000000000E+00 0.  1.
<mgrwt>
<rscale>  0 0.56117891E+02</rscale>
<asrwt>0</asrwt>
<pdfrwt beam="1">  1        4 0.73283999E-02 0.86767825E+02</pdfrwt>
<pdfrwt beam="2">  1       -4 0.99279019E-02 0.86767825E+02</pdfrwt>
<totfact> 0.13968044E+04</totfact>
</mgrwt>
</event>
<event>
 6    1  0.1723639E-002  0.9474932E+02  0.7546771E-02  0.1399007E+00
         -2   -1    0    0    0  501 -0.00000000000E+00  0.00000000000E+00  0.20999012915E+02  0.20999012915E+02  0.00000000000E+00 0.  1.
          2   -1    0    0  501    0  0.00000000000E+00 -0.00000000000E+00 -0.16786314915E+03  0.16786314915E+03  0.00000000000E+00 0. -1.
         23    2    1    2    0    0  0.69247220466E+00  0.14938603012E+02 -0.92260247061E+02  0.13224744586E+03  0.93561703552E+02 0.  0.
         13    1    3    3    0    0 -0.21680493430E+02  0.41285847925E+02 -0.17364243023E+02  0.49760244875E+02  0.00000000000E+00 0.  1.
        -13    1    3    3    0    0  0.22372965635E+02 -0.26347244913E+02 -0.74896004037E+02  0.82487200986E+02  0.00000000000E+00 0. -1.
         22    1    1    2    0    0 -0.69247220466E+00 -0.14938603012E+02 -0.54603889172E+02  0.56614716200E+02  0.00000000000E+00 0.  1.
<mgrwt>
<rscale>  0 0.59720866E+02</rscale>
<asrwt>0</asrwt>
<pdfrwt beam="1">  1        2 0.25825100E-01 0.94749321E+02</pdfrwt>
<pdfrwt beam="2">  1       -2 0.32306174E-02 0.94749321E+02</pdfrwt>
<totfact> 0.68081709E+04</totfact>
</mgrwt>
</event>
<event>
 6    1  0.1723639E-002  0.9055258E+02  0.7546771E-02  0.1412230E+00
         -1   -1    0    0    0  501 -0.00000000000E+00  0.00000000000E+00  0.21916314219E+02  0.21916314219E+02  0.00000000000E+00 0.  1.
          1   -1    0    0  501    0  0.00000000000E+00 -0.00000000000E+00 -0.16693312088E+03  0.16693312088E+03  0.00000000000E+00 0. -1.
         23    2    1    2    0    0  0.13848642602E+02  0.13977554222E+01 -0.75339968496E+02  0.11779593132E+03  0.89476432435E+02 0.  0.
         11    1    3    3    0    0  0.34206720768E+02 -0.34606054544E+02 -0.47047485027E+02  0.67684153272E+02  0.00000000000E+00 0.  1.
        -11    1    3    3    0    0 -0.20358078166E+02  0.36003809966E+02 -0.28292483470E+02  0.50111778052E+02  0.00000000000E+00 0. -1.
         22    1    1    2    0    0 -0.13848642602E+02 -0.13977554222E+01 -0.69676838165E+02  0.71053503775E+02  0.00000000000E+00 0. -1.
<mgrwt>
<rscale>  0 0.56699296E+02</rscale>
<asrwt>0</asrwt>
<pdfrwt beam="1">  1        1 0.25682018E-01 0.90552585E+02</pdfrwt>
<pdfrwt beam="2">  1       -1 0.33717407E-02 0.90552585E+02</pdfrwt>
<totfact> 0.50764752E+04</totfact>
</mgrwt>
</event>
<event>
 6    1  0.1723639E-002  0.8964946E+02  0.7546771E-02  0.1399271E+00
         -2   -1    0    0    0  501 -0.00000000000E+00  0.00000000000E+00  0.24526279340E+02  0.24526279340E+02  0.00000000000E+00 0.  1.
          2   -1    0    0  501    0  0.00000000000E+00 -0.00000000000E+00 -0.14258993131E+03  0.14258993131E+03  0.00000000000E+00 0. -1.
         23    2    1    2    0    0 -0.15500557068E+02  0.82958601541E+01 -0.63687993280E+02  0.10996902504E+03  0.87908687938E+02 0.  0.
         11    1    3    3    0    0 -0.18384633284E+02  0.45216974978E+02 -0.20139883809E+02  0.52803262087E+02  0.00000000000E+00 0.  1.
        -11    1    3    3    0    0  0.28840762164E+01 -0.36921114824E+02 -0.43548109471E+02  0.57165762953E+02  0.00000000000E+00 0. -1.
         22    1    1    2    0    0  0.15500557068E+02 -0.82958601541E+01 -0.54375658685E+02  0.57147185605E+02  0.00000000000E+00 0. -1.
<mgrwt>
<rscale>  0 0.59658335E+02</rscale>
<asrwt>0</asrwt>
<pdfrwt beam="1">  1        2 0.21936912E-01 0.89649462E+02</pdfrwt>
<pdfrwt beam="2">  1       -2 0.37732738E-02 0.89649462E+02</pdfrwt>
<totfact> 0.64362905E+04</totfact>
</mgrwt>
</event>
<event>
 6    1  0.1723639E-002  0.8908415E+02  0.7546771E-02  0.1430492E+00
         -4   -1    0    0    0  501 -0.00000000000E+00  0.00000000000E+00  0.33800245947E+02  0.33800245947E+02  0.00000000000E+00 0.  1.
          4   -1    0    0  501    0  0.00000000000E+00 -0.00000000000E+00 -0.80197143790E+02  0.80197143790E+02  0.00000000000E+00 0. -1.
         23    2    1    2    0    0 -0.25311616082E+00  0.11041789139E+02 -0.50275094180E+02  0.10229159707E+03  0.88396835693E+02 0.  0.
         11    1    3    3    0    0  0.38513794227E+02  0.42010111726E+01 -0.49577328849E+02  0.62919570695E+02  0.00000000000E+00 0. -1.
        -11    1    3    3    0    0 -0.38766910388E+02  0.68407779668E+01 -0.69776533048E+00  0.39372026372E+02  0.00000000000E+00 0.  1.
         22    1    1    2    0    0  0.25311616082E+00 -0.11041789139E+02  0.38781963371E+01  0.11705792669E+02  0.00000000000E+00 0. -1.
<mgrwt>
<rscale>  0 0.52861406E+02</rscale>
<asrwt>0</asrwt>
<pdfrwt beam="1">  1        4 0.12338022E-01 0.89084150E+02</pdfrwt>
<pdfrwt beam="2">  1       -4 0.52000378E-02 0.89084150E+02</pdfrwt>
<totfact> 0.16992816E+04</totfact>
</mgrwt>
</event>
<event>
 6    1  0.1723639E-002  0.9066723E+02  0.7546771E-02  0.1399425E+00
         -2   -1    0    0    0  501 -0.00000000000E+00  0.00000000000E+00  0.13082503278E+03  0.13082503278E+03  0.00000000000E+00 0.  1.
          2   -1    0    0  501    0  0.00000000000E+00 -0.00000000000E+00 -0.24762693739E+02  0.24762693739E+02  0.00000000000E+00 0. -1.
         23    2    1    2    0    0 -0.19693528685E+01  0.16839400573E+02  0.10481410058E+03  0.13858767177E+03  0.89067970239E+02 0.  0.
         13    1    3    3    0    0 -0.68282035177E+01 -0.16853476238E+02  0.10289796030E+03  0.10449236460E+03  0.00000000000E+00 0.  1.
        -13    1    3    3    0    0  0.48588506492E+01  0.33692876811E+02  0.19161402805E+01  0.34095307170E+02  0.00000000000E+00 0. -1.
         22    1    1    2    0    0  0.19693528685E+01 -0.16839400573E+02  0.12482384603E+01  0.17000054754E+02  0.00000000000E+00 0. -1.
<mgrwt>
<rscale>  0 0.59622047E+02</rscale>
<asrwt>0</asrwt>
<pdfrwt beam="1">  1        2 0.38096453E-02 0.90667233E+02</pdfrwt>
<pdfrwt beam="2">  1       -2 0.20126928E-01 0.90667233E+02</pdfrwt>
<totfact> 0.40642149E+04</totfact>
</mgrwt>
</event>
<event>
 6    1  0.1723639E-002  0.9173513E+02  0.7546771E-02  0.1427618E+00
          2   -1    0    0  501    0  0.00000000000E+00  0.00000000000E+00  0.33718364706E+02  0.33718364706E+02  0.00000000000E+00 0. -1.
         -2   -1    0    0    0  501 -0.00000000000E+00 -0.00000000000E+00 -0.83110913659E+02  0.83110913659E+02  0.00000000000E+00 0.  1.
         23    2    1    2    0    0 -0.57943141627E+00 -0.10549714671E+02 -0.52653300140E+02  0.10577194059E+03  0.91124646389E+02 0.  0.
         11    1    3    3    0    0  0.42790668359E+02 -0.18668901624E+02 -0.19563194673E+02  0.50619045549E+02  0.00000000000E+00 0. -1.
        -11    1    3    3    0    0 -0.43370099776E+02  0.81191869525E+01 -0.33090105468E+02  0.55152895039E+02  0.00000000000E+00 0.  1.
         22    1    1    2    0    0  0.57943141627E+00  0.10549714671E+02  0.32607511870E+01  0.11057337777E+02  0.00000000000E+00 0.  1.
<mgrwt>
<rscale>  0 0.53441107E+02</rscale>
<asrwt>0</asrwt>
<pdfrwt beam="1">  1        2 0.51874408E-02 0.91735126E+02</pdfrwt>
<pdfrwt beam="2">  1       -2 0.12786294E-01 0.91735126E+02</pdfrwt>
<totfact> 0.57139975E+04</totfact>
</mgrwt>
</event>
<event>
 6    1  0.1723639E-002  0.9178855E+02  0.7546771E-02  0.1416934E+00
          2   -1    0    0  501    0  0.00000000000E+00  0.00000000000E+00  0.56718564613E+01  0.56718564613E+01  0.00000000000E+00 0.  1.
         -2   -1    0    0    0  501 -0.00000000000E+00 -0.00000000000E+00 -0.57458418301E+03  0.57458418301E+03  0.00000000000E+00 0. -1.
         23    2    1    2    0    0  0.71380852813E+01 -0.10169050971E+02 -0.55013971175E+03  0.55774442190E+03  0.90943806064E+02 0.  0.
         13    1    3    3    0    0 -0.23090024150E+01 -0.40767203168E+02 -0.46486831425E+03  0.46665816819E+03  0.00000000000E+00 0. -1.
        -13    1    3    3    0    0  0.94470876964E+01  0.30598152197E+02 -0.85271397504E+02  0.91086253716E+02  0.00000000000E+00 0.  1.
         22    1    1    2    0    0 -0.71380852813E+01  0.10169050971E+02 -0.18772614801E+02  0.22511617570E+02  0.00000000000E+00 0. -1.
<mgrwt>
<rscale>  0 0.55674827E+02</rscale>
<asrwt>0</asrwt>
<pdfrwt beam="1">  1        2 0.87259325E-03 0.91788549E+02</pdfrwt>
<pdfrwt beam="2">  1       -2 0.88397572E-01 0.91788549E+02</pdfrwt>
<totfact> 0.17496454E+04</totfact>
</mgrwt>
</event>
<event>
 6    1  0.1723639E-002  0.9037360E+02  0.7546771E-02  0.1412681E+00
          2   -1    0    0  501    0  0.00000000000E+00  0.00000000000E+00  0.10485934676E+03  0.10485934676E+03  0.00000000000E+00 0. -1.
         -2   -1    0    0    0  501 -0.00000000000E+00 -0.00000000000E+00 -0.28002594047E+02  0.28002594047E+02  0.00000000000E+00 0.  1.
         23    2    1    2    0    0 -0.44145691960E+01 -0.13184482259E+02  0.51694926285E+02  0.10411413215E+03  0.89297637793E+02 0.  0.
         13    1    3    3    0    0 -0.15232151155E+02  0.90179712654E+00  0.74025469464E+02  0.75581755711E+02  0.00000000000E+00 0. -1.
        -13    1    3    3    0    0  0.10817581959E+02 -0.14086279386E+02 -0.22330543179E+02  0.28532376436E+02  0.00000000000E+00 0.  1.
         22    1    1    2    0    0  0.44145691960E+01  0.13184482259E+02  0.25161826424E+02  0.28747808657E+02  0.00000000000E+00 0. -1.
<mgrwt>
<rscale>  0 0.56599878E+02</rscale>
<asrwt>0</asrwt>
<pdfrwt beam="1">  1        2 0.16132207E-01 0.90373597E+02</pdfrwt>
<pdfrwt beam="2">  1       -2 0.43080914E-02 0.90373597E+02</pdfrwt>
<totfact> 0.74931469E+04</totfact>
</mgrwt>
</event>
<event>
 6    1  0.1723639E-002  0.9337328E+02  0.7546771E-02  0.1363235E+00
         -1   -1    0    0    0  501 -0.00000000000E+00  0.00000000000E+00  0.44938880307E+02  0.44938880307E+02  0.00000000000E+00 0.  1.
          1   -1    0    0  501    0  0.00000000000E+00 -0.00000000000E+00 -0.83375042514E+02  0.83375042514E+02  0.00000000000E+00 0. -1.
         23    2    1    2    0    0 -0.24361590601E+02  0.13762422872E+02 -0.36544053213E+02  0.10026982440E+03  0.89082425200E+02 0.  0.
         11    1    3    3    0    0  0.19630116879E+02  0.57904827168E+01 -0.49631277230E+02  0.53685518142E+02  0.00000000000E+00 0. -1.
        -11    1    3    3    0    0 -0.43991707479E+02  0.79719401556E+01  0.13087224017E+02  0.46584306255E+02  0.00000000000E+00 0.  1.
         22    1    1    2    0    0  0.24361590601E+02 -0.13762422872E+02 -0.18921089939E+01  0.28044098423E+02  0.00000000000E+00 0.  1.
<mgrwt>
<rscale>  0 0.69084347E+02</rscale>
<asrwt>0</asrwt>
<pdfrwt beam="1">  1        1 0.12826929E-01 0.93373282E+02</pdfrwt>
<pdfrwt beam="2">  1       -1 0.69136740E-02 0.93373282E+02</pdfrwt>
<totfact> 0.42888809E+04</totfact>
</mgrwt>
</event>
<event>
 6    1  0.1723639E-002  0.1007260E+03  0.7546771E-02  0.1329707E+00
          2   -1    0    0  501    0  0.00000000000E+00  0.00000000000E+00  0.16429193364E+02  0.16429193364E+02  0.00000000000E+00 0. -1.
         -2   -1    0    0    0  501 -0.00000000000E+00 -0.00000000000E+00 -0.30072819358E+03  0.30072819358E+03  0.00000000000E+00 0.  1.
         23    2    1    2    0    0 -0.23771435565E+02  0.31697320752E+02 -0.21206792261E+03  0.23477334806E+03  0.92606262556E+02 0.  0.
         11    1    3    3    0    0 -0.90980791902E+01 -0.10766013485E+02  0.35409425362E+01  0.14533422355E+02  0.00000000000E+00 0. -1.
        -11    1    3    3    0    0 -0.14673356375E+02  0.42463334237E+02 -0.21560886515E+03  0.22023992570E+03  0.00000000000E+00 0.  1.
         22    1    1    2    0    0  0.23771435565E+02 -0.31697320752E+02 -0.72231077602E+02  0.82384038887E+02  0.00000000000E+00 0.  1.
<mgrwt>
<rscale>  0 0.79769465E+02</rscale>
<asrwt>0</asrwt>
<pdfrwt beam="1">  1        2 0.25275684E-02 0.10072597E+03</pdfrwt>
<pdfrwt beam="2">  1       -2 0.46265873E-01 0.10072597E+03</pdfrwt>
<totfact> 0.15946370E+04</totfact>
</mgrwt>
</event>
<event>
 6    1  0.1723639E-002  0.9495579E+02  0.7546771E-02  0.1404323E+00
          2   -1    0    0  501    0  0.00000000000E+00  0.00000000000E+00  0.92508558742E+02  0.92508558742E+02  0.00000000000E+00 0. -1.
         -2   -1    0    0    0  501 -0.00000000000E+00 -0.00000000000E+00 -0.59441526146E+02  0.59441526146E+02  0.00000000000E+00 0.  1.
         23    2    1    2    0    0 -0.12447819439E+01  0.13603761808E+02 -0.20096858726E+02  0.97059182565E+02  0.93968023137E+02 0.  0.
         11    1    3    3    0    0 -0.24823393103E+02 -0.11241779213E+02 -0.46442187650E+02  0.53846589853E+02  0.00000000000E+00 0.  1.
        -11    1    3    3    0    0  0.23578611159E+02  0.24845541021E+02  0.26345328925E+02  0.43212592713E+02  0.00000000000E+00 0. -1.
         22    1    1    2    0    0  0.12447819439E+01 -0.13603761808E+02  0.53163891321E+02  0.54890902323E+02  0.00000000000E+00 0.  1.
<mgrwt>
<rscale>  0 0.58480148E+02</rscale>
<asrwt>0</asrwt>
<pdfrwt beam="1">  1        2 0.14232086E-01 0.94955785E+02</pdfrwt>
<pdfrwt beam="2">  1       -2 0.91448502E-02 0.94955785E+02</pdfrwt>
<totfact> 0.28045651E+04</totfact>
</mgrwt>
</event>
<event>
 6    1  0.1723639E-002  0.9381901E+02  0.7546771E-02  0.1393170E+00
         -2   -1    0    0    0  501 -0.00000000000E+00  0.00000000000E+00  0.88926983076E+02  0.88926983076E+02  0.00000000000E+00 0.  1.
          2   -1    0    0  501    0  0.00000000000E+00 -0.00000000000E+00 -0.36196604297E+02  0.36196604297E+02  0.00000000000E+00 0. -1.
         23    2    1    2    0    0 -0.14283579040E+02 -0.90410906993E+01  0.53862511210E+02  0.10818122405E+03  0.92283504329E+02 0.  0.
         13    1    3    3    0    0 -0.20830089370E+02  0.23776590994E+02 -0.12393971205E+02  0.33953341878E+02  0.00000000000E+00 0. -1.
        -13    1    3    3    0    0  0.65465103299E+01 -0.32817681693E+02  0.66256482415E+02  0.74227882169E+02  0.00000000000E+00 0.  1.
         22    1    1    2    0    0  0.14283579040E+02  0.90410906993E+01 -0.11321324319E+01  0.16942363326E+02  0.00000000000E+00 0. -1.
<mgrwt>
<rscale>  0 0.61124975E+02</rscale>
<asrwt>0</asrwt>
<pdfrwt beam="1">  1        2 0.55687084E-02 0.93819013E+02</pdfrwt>
<pdfrwt beam="2">  1       -2 0.13681074E-01 0.93819013E+02</pdfrwt>
<totfact> 0.46974979E+04</totfact>
</mgrwt>
</event>
<event>
 6    1  0.1723639E-002  0.9772919E+02  0.7546771E-02  0.1360803E+00
          2   -1    0    0  501    0  0.00000000000E+00  0.00000000000E+00  0.17649768905E+03  0.17649768905E+03  0.00000000000E+00 0. -1.
         -2   -1    0    0    0  501 -0.00000000000E+00 -0.00000000000E+00 -0.22662334639E+02  0.22662334639E+02  0.00000000000E+00 0.  1.
         23    2    1    2    0    0 -0.14672506572E+02 -0.20755272755E+02  0.10107211690E+03  0.14059362522E+03  0.94365941119E+02 0.  0.
         11    1    3    3    0    0  0.91905136093E+01 -0.48784918513E+02  0.88900060167E+02  0.10182167997E+03  0.00000000000E+00 0. -1.
        -11    1    3    3    0    0 -0.23863020181E+02  0.28029645758E+02  0.12172056729E+02  0.38771945250E+02  0.00000000000E+00 0.  1.
         22    1    1    2    0    0  0.14672506572E+02  0.20755272755E+02  0.52763237513E+02  0.58566398464E+02  0.00000000000E+00 0. -1.
<mgrwt>
<rscale>  0 0.69791519E+02</rscale>
<asrwt>0</asrwt>
<pdfrwt beam="1">  1        2 0.27153490E-01 0.97729190E+02</pdfrwt>
<pdfrwt beam="2">  1       -2 0.34865131E-02 0.97729190E+02</pdfrwt>
<totfact> 0.57920353E+04</totfact>
</mgrwt>
</event>
<event>
 6    1  0.1723639E-002  0.1121226E+03  0.7546771E-02  0.1284235E+00
          2   -1    0    0  501    0  0.00000000000E+00  0.00000000000E+00  0.10878854027E+03  0.10878854027E+03  0.00000000000E+00 0. -1.
         -2   -1    0    0    0  501 -0.00000000000E+00 -0.00000000000E+00 -0.72888493311E+02  0.72888493311E+02  0.00000000000E+00 0.  1.
         23    2    1    2    0    0  0.62740314499E+02  0.19958477840E+02  0.26010654863E+02  0.11510010081E+03  0.90756769108E+02 0.  0.
         11    1    3    3    0    0 -0.12597219165E+02 -0.71378477808E+00  0.34292541473E+02  0.36540085114E+02  0.00000000000E+00 0. -1.
        -11    1    3    3    0    0  0.75337533664E+02  0.20672262618E+02 -0.82818866103E+01  0.78560015696E+02  0.00000000000E+00 0.  1.
         22    1    1    2    0    0 -0.62740314499E+02 -0.19958477840E+02  0.98893920960E+01  0.66576932771E+02  0.00000000000E+00 0. -1.
<mgrwt>
<rscale>  0 0.98149845E+02</rscale>
<asrwt>0</asrwt>
<pdfrwt beam="1">  1        2 0.16736698E-01 0.11212261E+03</pdfrwt>
<pdfrwt beam="2">  1       -2 0.11213614E-01 0.11212261E+03</pdfrwt>
<totfact> 0.17219735E+04</totfact>
</mgrwt>
</event>
<event>
 6    1  0.1723639E-002  0.9066022E+02  0.7546771E-02  0.1423220E+00
          2   -1    0    0  501    0  0.00000000000E+00  0.00000000000E+00  0.21779242241E+02  0.21779242241E+02  0.00000000000E+00 0. -1.
         -2   -1    0    0    0  501 -0.00000000000E+00 -0.00000000000E+00 -0.12040009556E+03  0.12040009556E+03  0.00000000000E+00 0.  1.
         23    2    1    2    0    0  0.15689340618E+01 -0.11600270716E+02 -0.88709799471E+02  0.12684125372E+03  0.89901319731E+02 0.  0.
         11    1    3    3    0    0  0.22253452256E+02  0.15432073591E+02  0.46436392443E+01  0.27475960731E+02  0.00000000000E+00 0. -1.
        -11    1    3    3    0    0 -0.20684518194E+02 -0.27032344307E+02 -0.93353438715E+02  0.99365292993E+02  0.00000000000E+00 0.  1.
         22    1    1    2    0    0 -0.15689340618E+01  0.11600270716E+02 -0.99110538462E+01  0.15338084075E+02  0.00000000000E+00 0.  1.
<mgrwt>
<rscale>  0 0.54345510E+02</rscale>
<asrwt>0</asrwt>
<pdfrwt beam="1">  1        2 0.33506527E-02 0.90660218E+02</pdfrwt>
<pdfrwt beam="2">  1       -2 0.18523091E-01 0.90660218E+02</pdfrwt>
<totfact> 0.55274834E+04</totfact>
</mgrwt>
</event>
<event>
 6    1  0.1723639E-002  0.9619346E+02  0.7546771E-02  0.1357985E+00
         -2   -1    0    0    0  501 -0.00000000000E+00  0.00000000000E+00  0.84254914113E+02  0.84254914113E+02  0.00000000000E+00 0.  1.
          2   -1    0    0  501    0  0.00000000000E+00 -0.00000000000E+00 -0.49285889193E+02  0.49285889193E+02  0.00000000000E+00 0. -1.
         23    2    1    2    0    0  0.27943680243E+02 -0.54950664124E+00  0.41619948635E+02  0.10481127130E+03  0.92043637715E+02 0.  0.
         11    1    3    3    0    0 -0.15883334853E+02  0.72167293421E+00 -0.22245685456E+02  0.27343585341E+02  0.00000000000E+00 0. -1.
        -11    1    3    3    0    0  0.43827015096E+02 -0.12711795755E+01  0.63865634091E+02  0.77467685958E+02  0.00000000000E+00 0.  1.
         22    1    1    2    0    0 -0.27943680243E+02  0.54950664124E+00 -0.66509237150E+01  0.28729532007E+02  0.00000000000E+00 0.  1.
<mgrwt>
<rscale>  0 0.70623797E+02</rscale>
<asrwt>0</asrwt>
<pdfrwt beam="1">  1        2 0.75824445E-02 0.96193464E+02</pdfrwt>
<pdfrwt beam="2">  1       -2 0.12962294E-01 0.96193464E+02</pdfrwt>
<totfact> 0.34770057E+04</totfact>
</mgrwt>
</event>
<event>
 6    1  0.1723639E-002  0.9185271E+02  0.7546771E-02  0.1386349E+00
          2   -1    0    0  501    0  0.00000000000E+00  0.00000000000E+00  0.95113460155E+02  0.95113460155E+02  0.00000000000E+00 0. -1.
         -2   -1    0    0    0  501 -0.00000000000E+00 -0.00000000000E+00 -0.70622775340E+02  0.70622775340E+02  0.00000000000E+00 0.  1.
         23    2    1    2    0    0  0.33694884613E+00 -0.20098572069E+02 -0.38515614815E+02  0.99601071424E+02  0.89626194332E+02 0.  0.
         13    1    3    3    0    0  0.26283011595E+02  0.27219961795E+02 -0.14270617356E+02  0.40439751957E+02  0.00000000000E+00 0. -1.
        -13    1    3    3    0    0 -0.25946062749E+02 -0.47318533864E+02 -0.24244997459E+02  0.59161319467E+02  0.00000000000E+00 0.  1.
         22    1    1    2    0    0 -0.33694884613E+00  0.20098572069E+02  0.63006299630E+02  0.66135164072E+02  0.00000000000E+00 0.  1.
<mgrwt>
<rscale>  0 0.62823995E+02</rscale>
<asrwt>0</asrwt>
<pdfrwt beam="1">  1        2 0.14632840E-01 0.91852713E+02</pdfrwt>
<pdfrwt beam="2">  1       -2 0.10865042E-01 0.91852713E+02</pdfrwt>
<totfact> 0.20687543E+04</totfact>
</mgrwt>
</event>
<event>
 6    1  0.1723639E-002  0.9827523E+02  0.7546771E-02  0.1332992E+00
         -2   -1    0    0    0  501 -0.00000000000E+00  0.00000000000E+00  0.35076873260E+03  0.35076873260E+03  0.00000000000E+00 0.  1.
          2   -1    0    0  501    0  0.00000000000E+00 -0.00000000000E+00 -0.51980489105E+02  0.51980489105E+02  0.00000000000E+00 0. -1.
         23    2    1    2    0    0 -0.16076527092E+02  0.36920191966E+02  0.33467782426E+03  0.34880835311E+03  0.89646337606E+02 0.  0.
         11    1    3    3    0    0 -0.27131346238E+02  0.23115567990E+02  0.39905498627E+02  0.53505964647E+02  0.00000000000E+00 0. -1.
        -11    1    3    3    0    0  0.11054819146E+02  0.13804623976E+02  0.29477232564E+03  0.29530238846E+03  0.00000000000E+00 0.  1.
         22    1    1    2    0    0  0.16076527092E+02 -0.36920191966E+02 -0.35889580763E+02  0.53940868602E+02  0.00000000000E+00 0. -1.
<mgrwt>
<rscale>  0 0.78627511E+02</rscale>
<asrwt>0</asrwt>
<pdfrwt beam="1">  1        2 0.79969986E-02 0.98275232E+02</pdfrwt>
<pdfrwt beam="2">  1       -2 0.53964419E-01 0.98275232E+02</pdfrwt>
<totfact> 0.26328340E+03</totfact>
</mgrwt>
</event>
<event>
 6    1  0.1723639E-002  0.9539643E+02  0.7546771E-02  0.1360003E+00
         -2   -1    0    0    0  501 -0.00000000000E+00  0.00000000000E+00  0.16377420005E+04  0.16377420005E+04  0.00000000000E+00 0. -1.
          2   -1    0    0  501    0  0.00000000000E+00 -0.00000000000E+00 -0.28239844302E+01  0.28239844302E+01  0.00000000000E+00 0.  1.
         23    2    1    2    0    0 -0.17760601777E+02 -0.21254260574E+02  0.14883283129E+04  0.14913824616E+04  0.91286894566E+02 0.  0.
         11    1    3    3    0    0 -0.32186994096E+02 -0.95436571435E+01  0.19146443681E+03  0.19438547926E+03  0.00000000000E+00 0.  1.
        -11    1    3    3    0    0  0.14426392320E+02 -0.11710603430E+02  0.12968638761E+04  0.12969969823E+04  0.00000000000E+00 0. -1.
         22    1    1    2    0    0  0.17760601777E+02  0.21254260574E+02  0.14658970319E+03  0.14918352338E+03  0.00000000000E+00 0.  1.
<mgrwt>
<rscale>  0 0.70026343E+02</rscale>
<asrwt>0</asrwt>
<pdfrwt beam="1">  1        2 0.43446045E-03 0.95396434E+02</pdfrwt>
<pdfrwt beam="2">  1       -2 0.25195955E+00 0.95396434E+02</pdfrwt>
<totfact> 0.30199058E+03</totfact>
</mgrwt>
</event>
<event>
 6    1  0.1723639E-002  0.1133400E+03  0.7546771E-02  0.1280468E+00
          2   -1    0    0  501    0  0.00000000000E+00  0.00000000000E+00  0.33560856963E+03  0.33560856963E+03  0.00000000000E+00 0.  1.
         -2   -1    0    0    0  501 -0.00000000000E+00 -0.00000000000E+00 -0.34122839398E+02  0.34122839398E+02  0.00000000000E+00 0. -1.
         23    2    1    2    0    0  0.40732603066E+02  0.55021602566E+02  0.82204877214E+02  0.14001285470E+03  0.90329596159E+02 0.  0.
         11    1    3    3    0    0 -0.18619724611E+02 -0.94299785817E+01  0.34310600629E+02  0.40160128936E+02  0.00000000000E+00 0.  1.
        -11    1    3    3    0    0  0.59352327677E+02  0.64451581148E+02  0.47894276585E+02  0.99852725765E+02  0.00000000000E+00 0. -1.
         22    1    1    2    0    0 -0.40732603066E+02 -0.55021602566E+02  0.21928085302E+03  0.22971855433E+03  0.00000000000E+00 0.  1.
<mgrwt>
<rscale>  0 0.99918007E+02</rscale>
<asrwt>0</asrwt>
<pdfrwt beam="1">  1        2 0.51632085E-01 0.11334001E+03</pdfrwt>
<pdfrwt beam="2">  1       -2 0.52496678E-02 0.11334001E+03</pdfrwt>
<totfact> 0.16248118E+04</totfact>
</mgrwt>
</event>
<event>
 6    1  0.1723639E-002  0.8898069E+02  0.7546771E-02  0.1434041E+00
          2   -1    0    0  501    0  0.00000000000E+00  0.00000000000E+00  0.20584218310E+03  0.20584218310E+03  0.00000000000E+00 0. -1.
         -2   -1    0    0    0  501 -0.00000000000E+00 -0.00000000000E+00 -0.12287888724E+02  0.12287888724E+02  0.00000000000E+00 0.  1.
         23    2    1    2    0    0  0.10504551652E+02 -0.10127884255E-01  0.16139217361E+03  0.18429595117E+03  0.88358464271E+02 0.  0.
         11    1    3    3    0    0 -0.24006355630E+02  0.33190710639E+02  0.79384079794E+02  0.89329505249E+02  0.00000000000E+00 0. -1.
        -11    1    3    3    0    0  0.34510907282E+02 -0.33200838523E+02  0.82008093813E+02  0.94966445921E+02  0.00000000000E+00 0.  1.
         22    1    1    2    0    0 -0.10504551652E+02  0.10127884255E-01  0.32162120769E+02  0.33834120653E+02  0.00000000000E+00 0. -1.
<mgrwt>
<rscale>  0 0.52157441E+02</rscale>
<asrwt>0</asrwt>
<pdfrwt beam="1">  1        2 0.31668026E-01 0.88980694E+02</pdfrwt>
<pdfrwt beam="2">  1       -2 0.18904446E-02 0.88980694E+02</pdfrwt>
<totfact> 0.11754691E+05</totfact>
</mgrwt>
</event>
<event>
 6    1  0.1723639E-002  0.9133711E+02  0.7546771E-02  0.1400698E+00
         -2   -1    0    0    0  501 -0.00000000000E+00  0.00000000000E+00  0.36294409610E+02  0.36294409610E+02  0.00000000000E+00 0.  1.
          2   -1    0    0  501    0  0.00000000000E+00 -0.00000000000E+00 -0.14919850373E+03  0.14919850373E+03  0.00000000000E+00 0. -1.
         23    2    1    2    0    0  0.21037769680E+01 -0.16116062309E+02 -0.23076981260E+02  0.94207298117E+02  0.89879444884E+02 0.  0.
         13    1    3    3    0    0  0.33650232964E+02 -0.81629203739E+01 -0.43648865210E+02  0.55715302043E+02  0.00000000000E+00 0. -1.
        -13    1    3    3    0    0 -0.31546455996E+02 -0.79531419352E+01  0.20571883950E+02  0.38491996075E+02  0.00000000000E+00 0.  1.
         22    1    1    2    0    0 -0.21037769680E+01  0.16116062309E+02 -0.89827112864E+02  0.91285615227E+02  0.00000000000E+00 0. -1.
<mgrwt>
<rscale>  0 0.59322230E+02</rscale>
<asrwt>0</asrwt>
<pdfrwt beam="1">  1        2 0.22953616E-01 0.91337112E+02</pdfrwt>
<pdfrwt beam="2">  1       -2 0.55837552E-02 0.91337112E+02</pdfrwt>
<totfact> 0.34372803E+04</totfact>
</mgrwt>
</event>
<event>
 6    1  0.1723639E-002  0.9048552E+02  0.7546771E-02  0.1430566E+00
          2   -1    0    0  501    0  0.00000000000E+00  0.00000000000E+00  0.13917239486E+03  0.13917239486E+03  0.00000000000E+00 0. -1.
         -2   -1    0    0    0  501 -0.00000000000E+00 -0.00000000000E+00 -0.18410036595E+02  0.18410036595E+02  0.00000000000E+00 0.  1.
         23    2    1    2    0    0  0.10525907310E+02  0.18563787246E+00  0.10476296558E+03  0.13843015346E+03  0.89871014480E+02 0.  0.
         13    1    3    3    0    0  0.85903753018E+01  0.44457135925E+02  0.43239503906E+02  0.62608994405E+02  0.00000000000E+00 0.  1.
        -13    1    3    3    0    0  0.19355320083E+01 -0.44271498052E+02  0.61523461678E+02  0.75821159057E+02  0.00000000000E+00 0. -1.
         22    1    1    2    0    0 -0.10525907310E+02 -0.18563787246E+00  0.15999392680E+02  0.19152277991E+02  0.00000000000E+00 0.  1.
<mgrwt>
<rscale>  0 0.52846480E+02</rscale>
<asrwt>0</asrwt>
<pdfrwt beam="1">  1        2 0.21411137E-01 0.90485515E+02</pdfrwt>
<pdfrwt beam="2">  1       -2 0.28323134E-02 0.90485515E+02</pdfrwt>
<totfact> 0.10059351E+05</totfact>
</mgrwt>
</event>
<event>
 6    1  0.1723639E-002  0.9256689E+02  0.7546771E-02  0.1398803E+00
          4   -1    0    0  501    0  0.00000000000E+00  0.00000000000E+00  0.10961328842E+03  0.10961328842E+03  0.00000000000E+00 0. -1.
         -4   -1    0    0    0  501 -0.00000000000E+00 -0.00000000000E+00 -0.34219627099E+02  0.34219627099E+02  0.00000000000E+00 0.  1.
         23    2    1    2    0    0  0.73192119397E+01 -0.14328302359E+02  0.32641554128E+02  0.98153447689E+02  0.91157869245E+02 0.  0.
         11    1    3    3    0    0 -0.32195772117E+02  0.47124488759E+00  0.43936788462E+02  0.54472297494E+02  0.00000000000E+00 0. -1.
        -11    1    3    3    0    0  0.39514984056E+02 -0.14799547247E+02 -0.11295234334E+02  0.43681150195E+02  0.00000000000E+00 0.  1.
         22    1    1    2    0    0 -0.73192119397E+01  0.14328302359E+02  0.42752107197E+02  0.45679467835E+02  0.00000000000E+00 0. -1.
<mgrwt>
<rscale>  0 0.59769165E+02</rscale>
<asrwt>0</asrwt>
<pdfrwt beam="1">  1        4 0.16863583E-01 0.92566885E+02</pdfrwt>
<pdfrwt beam="2">  1       -4 0.52645581E-02 0.92566885E+02</pdfrwt>
<totfact> 0.98355759E+03</totfact>
</mgrwt>
</event>
<event>
 6    1  0.1723639E-002  0.9214979E+02  0.7546771E-02  0.1409198E+00
         -1   -1    0    0    0  501 -0.00000000000E+00  0.00000000000E+00  0.31386036460E+03  0.31386036460E+03  0.00000000000E+00 0.  1.
          1   -1    0    0  501    0  0.00000000000E+00 -0.00000000000E+00 -0.23010274335E+02  0.23010274335E+02  0.00000000000E+00 0. -1.
         23    2    1    2    0    0  0.12006424523E+01 -0.13794693353E+02  0.30406993196E+03  0.31772646693E+03  0.91103507928E+02 0.  0.
         11    1    3    3    0    0  0.42175629175E+02  0.94776083021E+01  0.17694918201E+03  0.18215274296E+03  0.00000000000E+00 0.  1.
        -11    1    3    3    0    0 -0.40974986723E+02 -0.23272301655E+02  0.12712074996E+03  0.13557372397E+03  0.00000000000E+00 0. -1.
         22    1    1    2    0    0 -0.12006424523E+01  0.13794693353E+02 -0.13219841701E+02  0.19144172001E+02  0.00000000000E+00 0. -1.
<mgrwt>
<rscale>  0 0.57373121E+02</rscale>
<asrwt>0</asrwt>
<pdfrwt beam="1">  1        1 0.35400424E-02 0.92149793E+02</pdfrwt>
<pdfrwt beam="2">  1       -1 0.48286207E-01 0.92149793E+02</pdfrwt>
<totfact> 0.10707500E+04</totfact>
</mgrwt>
</event>
<event>
 6    1  0.1723639E-002  0.9306306E+02  0.7546771E-02  0.1372846E+00
          3   -1    0    0  501    0  0.00000000000E+00  0.00000000000E+00  0.45453667188E+03  0.45453667188E+03  0.00000000000E+00 0. -1.
         -3   -1    0    0    0  501 -0.00000000000E+00 -0.00000000000E+00 -0.76108788010E+01  0.76108788010E+01  0.00000000000E+00 0.  1.
         23    2    1    2    0    0  0.19406521805E+02 -0.14276458008E+02  0.33708309059E+03  0.34969378404E+03  0.89890501680E+02 0.  0.
         13    1    3    3    0    0  0.32246852329E+02 -0.26039200606E+02  0.65234465274E+02  0.77287999799E+02  0.00000000000E+00 0.  1.
        -13    1    3    3    0    0 -0.12840330524E+02  0.11762742598E+02  0.27184862532E+03  0.27240578424E+03  0.00000000000E+00 0. -1.
         22    1    1    2    0    0 -0.19406521805E+02  0.14276458008E+02  0.10984270249E+03  0.11245376664E+03  0.00000000000E+00 0. -1.
<mgrwt>
<rscale>  0 0.66382217E+02</rscale>
<asrwt>0</asrwt>
<pdfrwt beam="1">  1        3 0.69928698E-01 0.93063057E+02</pdfrwt>
<pdfrwt beam="2">  1       -3 0.11709048E-02 0.93063057E+02</pdfrwt>
<totfact> 0.89683183E+03</totfact>
</mgrwt>
</event>
<event>
 6    1  0.1723639E-002  0.9114290E+02  0.7546771E-02  0.1431315E+00
          2   -1    0    0  501    0  0.00000000000E+00  0.00000000000E+00  0.52470035498E+02  0.52470035498E+02  0.00000000000E+00 0. -1.
         -2   -1    0    0    0  501 -0.00000000000E+00 -0.00000000000E+00 -0.49182169795E+02  0.49182169795E+02  0.00000000000E+00 0.  1.
         23    2    1    2    0    0 -0.98890259048E+01  0.24389154962E+01  0.51909409549E+01  0.91290601288E+02  0.90571998285E+02 0.  0.
         11    1    3    3    0    0 -0.32788682956E+02 -0.39699359461E+01  0.38269883291E+02  0.50551380678E+02  0.00000000000E+00 0. -1.
        -11    1    3    3    0    0  0.22899657051E+02  0.64088514423E+01 -0.33078942336E+02  0.40739220610E+02  0.00000000000E+00 0.  1.
         22    1    1    2    0    0  0.98890259048E+01 -0.24389154962E+01 -0.19030752510E+01  0.10361604005E+02  0.00000000000E+00 0.  1.
<mgrwt>
<rscale>  0 0.52697014E+02</rscale>
<asrwt>0</asrwt>
<pdfrwt beam="1">  1        2 0.80723131E-02 0.91142899E+02</pdfrwt>
<pdfrwt beam="2">  1       -2 0.75664877E-02 0.91142899E+02</pdfrwt>
<totfact> 0.73787149E+04</totfact>
</mgrwt>
</event>
<event>
 6    1  0.1723639E-002  0.9144458E+02  0.7546771E-02  0.1429108E+00
          2   -1    0    0  501    0  0.00000000000E+00  0.00000000000E+00  0.19566169891E+02  0.19566169891E+02  0.00000000000E+00 0. -1.
         -2   -1    0    0    0  501 -0.00000000000E+00 -0.00000000000E+00 -0.19262870470E+03  0.19262870470E+03  0.00000000000E+00 0.  1.
         23    2    1    2    0    0 -0.57440501767E+01 -0.87031959308E+01 -0.17840691254E+03  0.20047727650E+03  0.90848072189E+02 0.  0.
         13    1    3    3    0    0  0.22670221730E+02  0.14365963599E+02 -0.10815720476E+02  0.28936130924E+02  0.00000000000E+00 0. -1.
        -13    1    3    3    0    0 -0.28414271907E+02 -0.23069159530E+02 -0.16759119206E+03  0.17154114558E+03  0.00000000000E+00 0.  1.
         22    1    1    2    0    0  0.57440501767E+01  0.87031959308E+01  0.53443777233E+01  0.11717598094E+02  0.00000000000E+00 0.  1.
<mgrwt>
<rscale>  0 0.53139446E+02</rscale>
<asrwt>0</asrwt>
<pdfrwt beam="1">  1        2 0.30101801E-02 0.91444584E+02</pdfrwt>
<pdfrwt beam="2">  1       -2 0.29635185E-01 0.91444584E+02</pdfrwt>
<totfact> 0.28482849E+04</totfact>
</mgrwt>
</event>
<event>
 6    1  0.1723639E-002  0.9681638E+02  0.7546771E-02  0.1378796E+00
         -2   -1    0    0    0  501 -0.00000000000E+00  0.00000000000E+00  0.12182804264E+02  0.12182804264E+02  0.00000000000E+00 0.  1.
          2   -1    0    0  501    0  0.00000000000E+00 -0.00000000000E+00 -0.28358085669E+03  0.28358085669E+03  0.00000000000E+00 0. -1.
         23    2    1    2    0    0 -0.92324274909E+01 -0.17070144903E+02 -0.20733721536E+03  0.22882773330E+03  0.94851373702E+02 0.  0.
         13    1    3    3    0    0 -0.16047206584E+02 -0.46622874939E+02 -0.18418968039E+03  0.19067523088E+03  0.00000000000E+00 0. -1.
        -13    1    3    3    0    0  0.68147790931E+01  0.29552730035E+02 -0.23147534964E+02  0.38152502428E+02  0.00000000000E+00 0.  1.
         22    1    1    2    0    0  0.92324274909E+01  0.17070144903E+02 -0.64060837072E+02  0.66935927652E+02  0.00000000000E+00 0. -1.
<mgrwt>
<rscale>  0 0.64781445E+02</rscale>
<asrwt>0</asrwt>
<pdfrwt beam="1">  1        2 0.43627823E-01 0.96816376E+02</pdfrwt>
<pdfrwt beam="2">  1       -2 0.18742776E-02 0.96816376E+02</pdfrwt>
<totfact> 0.85972433E+04</totfact>
</mgrwt>
</event>
<event>
 6    1  0.1723639E-002  0.9059899E+02  0.7546771E-02  0.1371517E+00
          2   -1    0    0  501    0  0.00000000000E+00  0.00000000000E+00  0.14521564682E+04  0.14521564682E+04  0.00000000000E+00 0.  1.
         -2   -1    0    0    0  501 -0.00000000000E+00 -0.00000000000E+00 -0.43318846973E+01  0.43318846973E+01  0.00000000000E+00 0. -1.
         23    2    1    2    0    0  0.85760103949E+01 -0.25275521269E+02  0.13883060973E+04  0.13912591407E+04  0.86578153750E+02 0.  0.
         13    1    3    3    0    0 -0.31247272750E+02 -0.17560254819E+02  0.29036017002E+03  0.29256415183E+03  0.00000000000E+00 0. -1.
        -13    1    3    3    0    0  0.39823283145E+02 -0.77152664504E+01  0.10979459273E+04  0.10986949889E+04  0.00000000000E+00 0.  1.
         22    1    1    2    0    0 -0.85760103949E+01  0.25275521269E+02  0.59518486110E+02  0.65229212156E+02  0.00000000000E+00 0. -1.
<mgrwt>
<rscale>  0 0.66747191E+02</rscale>
<asrwt>0</asrwt>
<pdfrwt beam="1">  1        2 0.22340830E+00 0.90598988E+02</pdfrwt>
<pdfrwt beam="2">  1       -2 0.66644495E-03 0.90598988E+02</pdfrwt>
<totfact> 0.50783302E+04</totfact>
</mgrwt>
</event>
<event>
 6    1  0.1723639E-002  0.9452220E+02  0.7546771E-02  0.1405875E+00
         -2   -1    0    0    0  501 -0.00000000000E+00  0.00000000000E+00  0.15902713083E+03  0.15902713083E+03  0.00000000000E+00 0.  1.
          2   -1    0    0  501    0  0.00000000000E+00 -0.00000000000E+00 -0.21093460827E+02  0.21093460827E+02  0.00000000000E+00 0. -1.
         23    2    1    2    0    0 -0.12626668799E+02 -0.48207280667E+01  0.13716990465E+03  0.16658340134E+03  0.93550920240E+02 0.  0.
         13    1    3    3    0    0 -0.34188219212E+02 -0.23232094551E+02  0.19790475318E+02  0.45828238712E+02  0.00000000000E+00 0. -1.
        -13    1    3    3    0    0  0.21561550414E+02  0.18411366485E+02  0.11737942933E+03  0.12075516263E+03  0.00000000000E+00 0.  1.
         22    1    1    2    0    0  0.12626668799E+02  0.48207280667E+01  0.76376535225E+00  0.13537190313E+02  0.00000000000E+00 0. -1.
<mgrwt>
<rscale>  0 0.58124527E+02</rscale>
<asrwt>0</asrwt>
<pdfrwt beam="1">  1        2 0.32451479E-02 0.94522203E+02</pdfrwt>
<pdfrwt beam="2">  1       -2 0.24465712E-01 0.94522203E+02</pdfrwt>
<totfact> 0.36229639E+04</totfact>
</mgrwt>
</event>
<event>
 6    1  0.1723639E-002  0.8806199E+02  0.7546771E-02  0.1436977E+00
         -3   -1    0    0    0  501 -0.00000000000E+00  0.00000000000E+00  0.89033809289E+01  0.89033809289E+01  0.00000000000E+00 0.  1.
          3   -1    0    0  501    0  0.00000000000E+00 -0.00000000000E+00 -0.29129236510E+03  0.29129236510E+03  0.00000000000E+00 0. -1.
         23    2    1    2    0    0  0.60368908785E+01 -0.84298623911E+01 -0.22033209657E+03  0.23727862650E+03  0.87449455013E+02 0.  0.
         11    1    3    3    0    0  0.46291782191E+00 -0.26152299212E+02 -0.21679426131E+03  0.21836645526E+03  0.00000000000E+00 0. -1.
        -11    1    3    3    0    0  0.55739730566E+01  0.17722436821E+02 -0.35378352609E+01  0.18912171236E+02  0.00000000000E+00 0.  1.
         22    1    1    2    0    0 -0.60368908785E+01  0.84298623911E+01 -0.62056887603E+02  0.62917119533E+02  0.00000000000E+00 0. -1.
<mgrwt>
<rscale>  0 0.51584684E+02</rscale>
<asrwt>0</asrwt>
<pdfrwt beam="1">  1        3 0.44814213E-01 0.88061988E+02</pdfrwt>
<pdfrwt beam="2">  1       -3 0.13697508E-02 0.88061988E+02</pdfrwt>
<totfact> 0.17174012E+04</totfact>
</mgrwt>
</event>
<event>
 6    1  0.1723639E-002  0.1100570E+03  0.7546771E-02  0.1294508E+00
         -2   -1    0    0    0  501 -0.00000000000E+00  0.00000000000E+00  0.51316786940E+02  0.51316786940E+02  0.00000000000E+00 0.  1.
          2   -1    0    0  501    0  0.00000000000E+00 -0.00000000000E+00 -0.23591515355E+03  0.23591515355E+03  0.00000000000E+00 0. -1.
         23    2    1    2    0    0  0.32521853774E+02  0.47321485805E+02 -0.18644144157E+02  0.11162499888E+03  0.93891119239E+02 0.  0.
         13    1    3    3    0    0  0.50653802447E+02  0.89766963405E+01  0.19073210518E+02  0.54865072122E+02  0.00000000000E+00 0.  1.
        -13    1    3    3    0    0 -0.18131948673E+02  0.38344789465E+02 -0.37717354676E+02  0.56759926757E+02  0.00000000000E+00 0. -1.
         22    1    1    2    0    0 -0.32521853774E+02 -0.47321485805E+02 -0.16595422245E+03  0.17560694161E+03  0.00000000000E+00 0. -1.
<mgrwt>
<rscale>  0 0.93535814E+02</rscale>
<asrwt>0</asrwt>
<pdfrwt beam="1">  1        2 0.36294640E-01 0.11005697E+03</pdfrwt>
<pdfrwt beam="2">  1       -2 0.78948902E-02 0.11005697E+03</pdfrwt>
<totfact> 0.12664717E+04</totfact>
</mgrwt>
</event>
<event>
 6    1  0.1723639E-002  0.1049551E+03  0.7546771E-02  0.1393612E+00
          3   -1    0    0  501    0  0.00000000000E+00  0.00000000000E+00  0.16064252281E+02  0.16064252281E+02  0.00000000000E+00 0. -1.
         -3   -1    0    0    0  501 -0.00000000000E+00 -0.00000000000E+00 -0.25528059763E+03  0.25528059763E+03  0.00000000000E+00 0.  1.
         23    2    1    2    0    0  0.11936002762E+02 -0.11310467467E+01 -0.23693474136E+03  0.25914021368E+03  0.10426807399E+03 0.  0.
         11    1    3    3    0    0  0.52795311641E+02  0.22226739490E+02 -0.14378767816E+03  0.15477812918E+03  0.00000000000E+00 0.  1.
        -11    1    3    3    0    0 -0.40859308879E+02 -0.23357786237E+02 -0.93147063201E+02  0.10436208451E+03  0.00000000000E+00 0. -1.
         22    1    1    2    0    0 -0.11936002762E+02  0.11310467467E+01 -0.22816039855E+01  0.12204636227E+02  0.00000000000E+00 0.  1.
<mgrwt>
<rscale>  0 0.61017267E+02</rscale>
<asrwt>0</asrwt>
<pdfrwt beam="1">  1        3 0.24714236E-02 0.10495513E+03</pdfrwt>
<pdfrwt beam="2">  1       -3 0.39273936E-01 0.10495513E+03</pdfrwt>
<totfact> 0.94856568E+03</totfact>
</mgrwt>
</event>
<event>
 6    1  0.1723639E-002  0.9617024E+02  0.7546771E-02  0.1416834E+00
          2   -1    0    0  501    0  0.00000000000E+00  0.00000000000E+00  0.87833639426E+02  0.87833639426E+02  0.00000000000E+00 0. -1.
         -2   -1    0    0    0  501 -0.00000000000E+00 -0.00000000000E+00 -0.41138225713E+02  0.41138225713E+02  0.00000000000E+00 0.  1.
         23    2    1    2    0    0 -0.46642994433E+00 -0.10808858387E+02  0.17385661166E+02  0.97729096841E+02  0.95559751877E+02 0.  0.
         11    1    3    3    0    0  0.57269203385E+01 -0.41352785381E+02  0.41087259568E+02  0.58574852745E+02  0.00000000000E+00 0. -1.
        -11    1    3    3    0    0 -0.61933502828E+01  0.30543926994E+02 -0.23701598402E+02  0.39154244096E+02  0.00000000000E+00 0.  1.
         22    1    1    2    0    0  0.46642994433E+00  0.10808858387E+02  0.29309752547E+02  0.31242768297E+02  0.00000000000E+00 0. -1.
<mgrwt>
<rscale>  0 0.55696317E+02</rscale>
<asrwt>0</asrwt>
<pdfrwt beam="1">  1        2 0.13512868E-01 0.96170240E+02</pdfrwt>
<pdfrwt beam="2">  1       -2 0.63289578E-02 0.96170240E+02</pdfrwt>
<totfact> 0.52328890E+04</totfact>
</mgrwt>
</event>
<event>
 6    1  0.1723639E-002  0.9471499E+02  0.7546771E-02  0.1376465E+00
          2   -1    0    0  501    0  0.00000000000E+00  0.00000000000E+00  0.48197785422E+02  0.48197785422E+02  0.00000000000E+00 0. -1.
         -2   -1    0    0    0  501 -0.00000000000E+00 -0.00000000000E+00 -0.70184510720E+02  0.70184510720E+02  0.00000000000E+00 0.  1.
         23    2    1    2    0    0  0.17961147664E+02  0.11878148893E+02 -0.19547016006E+02  0.96710991890E+02  0.92234683667E+02 0.  0.
         11    1    3    3    0    0 -0.38104031730E+01  0.31098876835E+02  0.27323644296E+02  0.41572116261E+02  0.00000000000E+00 0. -1.
        -11    1    3    3    0    0  0.21771550837E+02 -0.19220727943E+02 -0.46870660303E+02  0.55138875630E+02  0.00000000000E+00 0.  1.
         22    1    1    2    0    0 -0.17961147664E+02 -0.11878148893E+02 -0.24397092923E+01  0.21671304252E+02  0.00000000000E+00 0.  1.
<mgrwt>
<rscale>  0 0.65402282E+02</rscale>
<asrwt>0</asrwt>
<pdfrwt beam="1">  1        2 0.74150439E-02 0.94714994E+02</pdfrwt>
<pdfrwt beam="2">  1       -2 0.10797617E-01 0.94714994E+02</pdfrwt>
<totfact> 0.47627651E+04</totfact>
</mgrwt>
</event>
<event>
 6    1  0.1723639E-002  0.9282485E+02  0.7546771E-02  0.1391447E+00
         -2   -1    0    0    0  501 -0.00000000000E+00  0.00000000000E+00  0.18201769381E+03  0.18201769381E+03  0.00000000000E+00 0. -1.
          2   -1    0    0  501    0  0.00000000000E+00 -0.00000000000E+00 -0.57867910863E+02  0.57867910863E+02  0.00000000000E+00 0.  1.
         23    2    1    2    0    0 -0.68053074842E+01 -0.16601215432E+02  0.16831535293E+03  0.19221475262E+03  0.91074368126E+02 0.  0.
         11    1    3    3    0    0  0.44319451599E+01  0.13899176724E+02 -0.53461972305E+01  0.15537408933E+02  0.00000000000E+00 0.  1.
        -11    1    3    3    0    0 -0.11237252644E+02 -0.30500392156E+02  0.17366155016E+03  0.17667734369E+03  0.00000000000E+00 0. -1.
         22    1    1    2    0    0  0.68053074842E+01  0.16601215432E+02 -0.44165569981E+02  0.47670852054E+02  0.00000000000E+00 0.  1.
<mgrwt>
<rscale>  0 0.61548212E+02</rscale>
<asrwt>0</asrwt>
<pdfrwt beam="1">  1        2 0.89027556E-02 0.92824852E+02</pdfrwt>
<pdfrwt beam="2">  1       -2 0.28002722E-01 0.92824852E+02</pdfrwt>
<totfact> 0.78393733E+03</totfact>
</mgrwt>
</event>
<event>
 6    1  0.1723639E-002  0.9776524E+02  0.7546771E-02  0.1410328E+00
          2   -1    0    0  501    0  0.00000000000E+00  0.00000000000E+00  0.43452157840E+03  0.43452157840E+03  0.00000000000E+00 0. -1.
         -2   -1    0    0    0  501 -0.00000000000E+00 -0.00000000000E+00 -0.68622549051E+01  0.68622549051E+01  0.00000000000E+00 0.  1.
         23    2    1    2    0    0 -0.37695884548E+01  0.10750807620E+02  0.37861516952E+03  0.39103387103E+03  0.97099186627E+02 0.  0.
         13    1    3    3    0    0  0.44538993759E+02  0.17150440448E+02  0.21925974505E+03  0.22439406269E+03  0.00000000000E+00 0.  1.
        -13    1    3    3    0    0 -0.48308582213E+02 -0.63996328284E+01  0.15935542447E+03  0.16663980834E+03  0.00000000000E+00 0. -1.
         22    1    1    2    0    0  0.37695884548E+01 -0.10750807620E+02  0.49044153974E+02  0.50349962270E+02  0.00000000000E+00 0. -1.
<mgrwt>
<rscale>  0 0.57120679E+02</rscale>
<asrwt>0</asrwt>
<pdfrwt beam="1">  1        2 0.66849452E-01 0.97765238E+02</pdfrwt>
<pdfrwt beam="2">  1       -2 0.10557319E-02 0.97765238E+02</pdfrwt>
<totfact> 0.12472605E+05</totfact>
</mgrwt>
</event>
<event>
 6    1  0.1723639E-002  0.9732031E+02  0.7546771E-02  0.1391376E+00
         -4   -1    0    0    0  501 -0.00000000000E+00  0.00000000000E+00  0.19467444738E+03  0.19467444738E+03  0.00000000000E+00 0.  1.
          4   -1    0    0  501    0  0.00000000000E+00 -0.00000000000E+00 -0.16979254746E+02  0.16979254746E+02  0.00000000000E+00 0. -1.
         23    2    1    2    0    0  0.68751071953E+01  0.13988163462E+02  0.16495081375E+03  0.19152027199E+03  0.96064081788E+02 0.  0.
         11    1    3    3    0    0  0.27997289399E+02  0.35055379224E+02  0.15289972112E+03  0.15934570137E+03  0.00000000000E+00 0.  1.
        -11    1    3    3    0    0 -0.21122182204E+02 -0.21067215762E+02  0.12051092632E+02  0.32174570621E+02  0.00000000000E+00 0. -1.
         22    1    1    2    0    0 -0.68751071953E+01 -0.13988163462E+02  0.12744378886E+02  0.20133430140E+02  0.00000000000E+00 0. -1.
<mgrwt>
<rscale>  0 0.61565735E+02</rscale>
<asrwt>0</asrwt>
<pdfrwt beam="1">  1        4 0.26121932E-02 0.97320315E+02</pdfrwt>
<pdfrwt beam="2">  1       -4 0.29949913E-01 0.97320315E+02</pdfrwt>
<totfact> 0.10608997E+04</totfact>
</mgrwt>
</event>
<event>
 6    1  0.1723639E-002  0.9195897E+02  0.7546771E-02  0.1424652E+00
          2   -1    0    0  501    0  0.00000000000E+00  0.00000000000E+00  0.14766958080E+02  0.14766958080E+02  0.00000000000E+00 0.  1.
         -2   -1    0    0    0  501 -0.00000000000E+00 -0.00000000000E+00 -0.18147002048E+03  0.18147002048E+03  0.00000000000E+00 0. -1.
         23    2    1    2    0    0  0.10973801445E+02 -0.38980585373E-01 -0.15474397268E+03  0.18000596921E+03  0.91301840247E+02 0.  0.
         11    1    3    3    0    0  0.26145566361E+02 -0.40742867075E+02 -0.85924568208E+02  0.98623543231E+02  0.00000000000E+00 0.  1.
        -11    1    3    3    0    0 -0.15171764916E+02  0.40703886490E+02 -0.68819404470E+02  0.81382425975E+02  0.00000000000E+00 0. -1.
         22    1    1    2    0    0 -0.10973801445E+02  0.38980585373E-01 -0.11959089724E+02  0.16231009354E+02  0.00000000000E+00 0.  1.
<mgrwt>
<rscale>  0 0.54048734E+02</rscale>
<asrwt>0</asrwt>
<pdfrwt beam="1">  1        2 0.22718398E-02 0.91958968E+02</pdfrwt>
<pdfrwt beam="2">  1       -2 0.27918464E-01 0.91958968E+02</pdfrwt>
<totfact> 0.46138667E+04</totfact>
</mgrwt>
</event>
<event>
 6    1  0.1723639E-002  0.9426812E+02  0.7546771E-02  0.1422629E+00
         -2   -1    0    0    0  501 -0.00000000000E+00  0.00000000000E+00  0.46353303515E+02  0.46353303515E+02  0.00000000000E+00 0.  1.
          2   -1    0    0  501    0  0.00000000000E+00 -0.00000000000E+00 -0.65641621906E+02  0.65641621906E+02  0.00000000000E+00 0. -1.
         23    2    1    2    0    0 -0.27609063419E+01  0.10137994300E+02 -0.51886930993E+01  0.94410814252E+02  0.93680722560E+02 0.  0.
         11    1    3    3    0    0 -0.23457956344E+02 -0.34958294599E+02  0.84770447679E+01  0.42944363601E+02  0.00000000000E+00 0.  1.
        -11    1    3    3    0    0  0.20697050002E+02  0.45096288898E+02 -0.13665737867E+02  0.51466450651E+02  0.00000000000E+00 0. -1.
         22    1    1    2    0    0  0.27609063419E+01 -0.10137994300E+02 -0.14099625292E+02  0.17584111169E+02  0.00000000000E+00 0.  1.
<mgrwt>
<rscale>  0 0.54468515E+02</rscale>
<asrwt>0</asrwt>
<pdfrwt beam="1">  1        2 0.10098711E-01 0.94268125E+02</pdfrwt>
<pdfrwt beam="2">  1       -2 0.71312775E-02 0.94268125E+02</pdfrwt>
<totfact> 0.61658924E+04</totfact>
</mgrwt>
</event>
<event>
 6    1  0.1723639E-002  0.8237222E+02  0.7546771E-02  0.1429082E+00
         -2   -1    0    0    0  501 -0.00000000000E+00  0.00000000000E+00  0.15736403956E+02  0.15736403956E+02  0.00000000000E+00 0.  1.
          2   -1    0    0  501    0  0.00000000000E+00 -0.00000000000E+00 -0.14839950698E+03  0.14839950698E+03  0.00000000000E+00 0. -1.
         23    2    1    2    0    0  0.13612938111E+02  0.42882321055E+01 -0.11248979314E+03  0.13942430536E+03  0.81126335706E+02 0.  0.
         11    1    3    3    0    0  0.14156236452E+02  0.32200448035E+02 -0.15396085457E+02  0.38396709905E+02  0.00000000000E+00 0. -1.
        -11    1    3    3    0    0 -0.54329834137E+00 -0.27912215930E+02 -0.97093707682E+02  0.10102759545E+03  0.00000000000E+00 0.  1.
         22    1    1    2    0    0 -0.13612938111E+02 -0.42882321055E+01 -0.20173309882E+02  0.24711605577E+02  0.00000000000E+00 0. -1.
<mgrwt>
<rscale>  0 0.53144674E+02</rscale>
<asrwt>0</asrwt>
<pdfrwt beam="1">  1        2 0.22830693E-01 0.82372224E+02</pdfrwt>
<pdfrwt beam="2">  1       -2 0.24209853E-02 0.82372224E+02</pdfrwt>
<totfact> 0.11582502E+05</totfact>
</mgrwt>
</event>
<event>
 6    1  0.1723639E-002  0.9425238E+02  0.7546771E-02  0.1396167E+00
          2   -1    0    0  501    0  0.00000000000E+00  0.00000000000E+00  0.38707086669E+03  0.38707086669E+03  0.00000000000E+00 0. -1.
         -2   -1    0    0    0  501 -0.00000000000E+00 -0.00000000000E+00 -0.82043476684E+01  0.82043476684E+01  0.00000000000E+00 0.  1.
         23    2    1    2    0    0  0.13786769980E+02 -0.79080972899E+01  0.28804040515E+03  0.30306894565E+03  0.92902625289E+02 0.  0.
         13    1    3    3    0    0 -0.17090096346E+02 -0.16917326698E+01  0.26097982724E+03  0.26154426696E+03  0.00000000000E+00 0. -1.
        -13    1    3    3    0    0  0.30876866326E+02 -0.62163646201E+01  0.27060577914E+02  0.41524678689E+02  0.00000000000E+00 0.  1.
         22    1    1    2    0    0 -0.13786769980E+02  0.79080972899E+01  0.90826113872E+02  0.92206268714E+02  0.00000000000E+00 0.  1.
<mgrwt>
<rscale>  0 0.60398507E+02</rscale>
<asrwt>0</asrwt>
<pdfrwt beam="1">  1        2 0.59549350E-01 0.94252378E+02</pdfrwt>
<pdfrwt beam="2">  1       -2 0.12622076E-02 0.94252378E+02</pdfrwt>
<totfact> 0.10875750E+05</totfact>
</mgrwt>
</event>
<event>
 6    1  0.1723639E-002  0.9566057E+02  0.7546771E-02  0.1352587E+00
          2   -1    0    0  501    0  0.00000000000E+00  0.00000000000E+00  0.87183024138E+03  0.87183024138E+03  0.00000000000E+00 0.  1.
         -2   -1    0    0    0  501 -0.00000000000E+00 -0.00000000000E+00 -0.88485365304E+01  0.88485365304E+01  0.00000000000E+00 0. -1.
         23    2    1    2    0    0  0.23574335096E+02 -0.20341539330E+02  0.82934059044E+03  0.83483936173E+03  0.90451188120E+02 0.  0.
         13    1    3    3    0    0 -0.31269895687E+02 -0.23073995084E+02  0.42779243903E+03  0.42955393901E+03  0.00000000000E+00 0.  1.
        -13    1    3    3    0    0  0.54844230783E+02  0.27324557544E+01  0.40154815142E+03  0.40528542272E+03  0.00000000000E+00 0. -1.
         22    1    1    2    0    0 -0.23574335096E+02  0.20341539330E+02  0.33641114402E+02  0.45839416180E+02  0.00000000000E+00 0. -1.
<mgrwt>
<rscale>  0 0.72255306E+02</rscale>
<asrwt>0</asrwt>
<pdfrwt beam="1">  1        2 0.13412766E+00 0.95660571E+02</pdfrwt>
<pdfrwt beam="2">  1       -2 0.13613140E-02 0.95660571E+02</pdfrwt>
<totfact> 0.39134938E+04</totfact>
</mgrwt>
</event>
<event>
 6    1  0.1723639E-002  0.9603864E+02  0.7546771E-02  0.1368140E+00
         -2   -1    0    0    0  501 -0.00000000000E+00  0.00000000000E+00  0.26384632804E+03  0.26384632804E+03  0.00000000000E+00 0.  1.
          2   -1    0    0  501    0  0.00000000000E+00 -0.00000000000E+00 -0.14192449912E+02  0.14192449912E+02  0.00000000000E+00 0. -1.
         23    2    1    2    0    0 -0.21494855950E+02  0.99744343642E+01  0.22022845846E+03  0.24025818114E+03  0.93069337125E+02 0.  0.
         13    1    3    3    0    0 -0.22732122859E+02  0.44177952085E+02  0.67922913378E+02  0.84154399896E+02  0.00000000000E+00 0. -1.
        -13    1    3    3    0    0  0.12372669094E+01 -0.34203517721E+02  0.15230554509E+03  0.15610378124E+03  0.00000000000E+00 0.  1.
         22    1    1    2    0    0  0.21494855950E+02 -0.99744343642E+01  0.29425419664E+02  0.37780596814E+02  0.00000000000E+00 0.  1.
<mgrwt>
<rscale>  0 0.67686953E+02</rscale>
<asrwt>0</asrwt>
<pdfrwt beam="1">  1        2 0.21834540E-02 0.96038636E+02</pdfrwt>
<pdfrwt beam="2">  1       -2 0.40591739E-01 0.96038636E+02</pdfrwt>
<totfact> 0.24773281E+04</totfact>
</mgrwt>
</event>
<event>
 6    1  0.1723639E-002  0.8961165E+02  0.7546771E-02  0.1434564E+00
          2   -1    0    0  501    0  0.00000000000E+00  0.00000000000E+00  0.23500388740E+03  0.23500388740E+03  0.00000000000E+00 0. -1.
         -2   -1    0    0    0  501 -0.00000000000E+00 -0.00000000000E+00 -0.10598846698E+02  0.10598846698E+02  0.00000000000E+00 0.  1.
         23    2    1    2    0    0  0.95716852633E+01 -0.35344788726E+01  0.20160230851E+03  0.22062125505E+03  0.89028858728E+02 0.  0.
         11    1    3    3    0    0 -0.36171232164E+02 -0.13374566665E+02  0.12544517589E+03  0.13123920612E+03  0.00000000000E+00 0. -1.
        -11    1    3    3    0    0  0.45742917428E+02  0.98400877921E+01  0.76157132617E+02  0.89382048930E+02  0.00000000000E+00 0.  1.
         22    1    1    2    0    0 -0.95716852633E+01  0.35344788726E+01  0.22802732191E+02  0.24981479041E+02  0.00000000000E+00 0. -1.
<mgrwt>
<rscale>  0 0.52054676E+02</rscale>
<asrwt>0</asrwt>
<pdfrwt beam="1">  1        2 0.36154440E-01 0.89611648E+02</pdfrwt>
<pdfrwt beam="2">  1       -2 0.16305920E-02 0.89611648E+02</pdfrwt>
<totfact> 0.12637609E+05</totfact>
</mgrwt>
</event>
<event>
 6    1  0.1723639E-002  0.9380780E+02  0.7546771E-02  0.1372067E+00
         -4   -1    0    0    0  501 -0.00000000000E+00  0.00000000000E+00  0.55743751587E+03  0.55743751587E+03  0.00000000000E+00 0.  1.
          4   -1    0    0  501    0  0.00000000000E+00 -0.00000000000E+00 -0.86685649107E+01  0.86685649107E+01  0.00000000000E+00 0. -1.
         23    2    1    2    0    0 -0.23826327126E+02 -0.20630616984E+00  0.52160276761E+03  0.52997108466E+03  0.90731289948E+02 0.  0.
         11    1    3    3    0    0  0.34918346364E+02 -0.23360937473E+01  0.18841311167E+03  0.19163571926E+03  0.00000000000E+00 0. -1.
        -11    1    3    3    0    0 -0.58744673490E+02  0.21297875775E+01  0.33318965593E+03  0.33833536540E+03  0.00000000000E+00 0.  1.
         22    1    1    2    0    0  0.23826327126E+02  0.20630616984E+00  0.27166183350E+02  0.36134996117E+02  0.00000000000E+00 0. -1.
<mgrwt>
<rscale>  0 0.66595910E+02</rscale>
<asrwt>0</asrwt>
<pdfrwt beam="1">  1        4 0.13336258E-02 0.93807800E+02</pdfrwt>
<pdfrwt beam="2">  1       -4 0.85759590E-01 0.93807800E+02</pdfrwt>
<totfact> 0.34487304E+03</totfact>
</mgrwt>
</event>
<event>
 6    1  0.1723639E-002  0.9298620E+02  0.7546771E-02  0.1384956E+00
          2   -1    0    0  501    0  0.00000000000E+00  0.00000000000E+00  0.13388542451E+02  0.13388542451E+02  0.00000000000E+00 0. -1.
         -2   -1    0    0    0  501 -0.00000000000E+00 -0.00000000000E+00 -0.27215682962E+03  0.27215682962E+03  0.00000000000E+00 0.  1.
         23    2    1    2    0    0 -0.74165580649E+01  0.18376522633E+02 -0.24311894107E+03  0.26029455127E+03  0.90850052274E+02 0.  0.
         11    1    3    3    0    0 -0.19247963814E+02  0.44959637317E+01 -0.24114000479E+03  0.24194875431E+03  0.00000000000E+00 0.  1.
        -11    1    3    3    0    0  0.11831405749E+02  0.13880558901E+02 -0.19789362761E+01  0.18345796962E+02  0.00000000000E+00 0. -1.
         22    1    1    2    0    0  0.74165580649E+01 -0.18376522633E+02 -0.15649346097E+02  0.25250820796E+02  0.00000000000E+00 0. -1.
<mgrwt>
<rscale>  0 0.63178857E+02</rscale>
<asrwt>0</asrwt>
<pdfrwt beam="1">  1        2 0.20597762E-02 0.92986203E+02</pdfrwt>
<pdfrwt beam="2">  1       -2 0.41870273E-01 0.92986203E+02</pdfrwt>
<totfact> 0.25164783E+04</totfact>
</mgrwt>
</event>
<event>
 6    1  0.1723639E-002  0.9672549E+02  0.7546771E-02  0.1349743E+00
         -1   -1    0    0    0  501 -0.00000000000E+00  0.00000000000E+00  0.86659943389E+02  0.86659943389E+02  0.00000000000E+00 0.  1.
          1   -1    0    0  501    0  0.00000000000E+00 -0.00000000000E+00 -0.48557953987E+02  0.48557953987E+02  0.00000000000E+00 0. -1.
         23    2    1    2    0    0  0.31051115135E+02 -0.59469938101E+01  0.19948147206E+02  0.98761067111E+02  0.91412697769E+02 0.  0.
         11    1    3    3    0    0 -0.10459567514E+02  0.20024538131E+02  0.39927641228E+02  0.45875932840E+02  0.00000000000E+00 0.  1.
        -11    1    3    3    0    0  0.41510682650E+02 -0.25971531941E+02 -0.19979494022E+02  0.52885134270E+02  0.00000000000E+00 0. -1.
         22    1    1    2    0    0 -0.31051115135E+02  0.59469938101E+01  0.18153842196E+02  0.36456830265E+02  0.00000000000E+00 0. -1.
<mgrwt>
<rscale>  0 0.73135904E+02</rscale>
<asrwt>0</asrwt>
<pdfrwt beam="1">  1        1 0.74704545E-02 0.96725487E+02</pdfrwt>
<pdfrwt beam="2">  1       -1 0.13332299E-01 0.96725487E+02</pdfrwt>
<totfact> 0.32513675E+04</totfact>
</mgrwt>
</event>
<event>
 6    1  0.1723639E-002  0.1037277E+03  0.7546771E-02  0.1311250E+00
         -2   -1    0    0    0  501 -0.00000000000E+00  0.00000000000E+00  0.12334644095E+02  0.12334644095E+02  0.00000000000E+00 0.  1.
          2   -1    0    0  501    0  0.00000000000E+00 -0.00000000000E+00 -0.55952555819E+03  0.55952555819E+03  0.00000000000E+00 0. -1.
         23    2    1    2    0    0 -0.40376703902E+02  0.30233856916E+02 -0.25403076884E+03  0.27439216184E+03  0.90636982728E+02 0.  0.
         13    1    3    3    0    0  0.22523510587E+02  0.12819374734E+02 -0.14517296131E+03  0.14746807653E+03  0.00000000000E+00 0. -1.
        -13    1    3    3    0    0 -0.62900214490E+02  0.17414482182E+02 -0.10885780753E+03  0.12692408531E+03  0.00000000000E+00 0.  1.
         22    1    1    2    0    0  0.40376703902E+02 -0.30233856916E+02 -0.29316014525E+03  0.29746804045E+03  0.00000000000E+00 0.  1.
<mgrwt>
<rscale>  0 0.86620032E+02</rscale>
<asrwt>0</asrwt>
<pdfrwt beam="1">  1        2 0.86080856E-01 0.10372766E+03</pdfrwt>
<pdfrwt beam="2">  1       -2 0.18976375E-02 0.10372766E+03</pdfrwt>
<totfact> 0.41339992E+04</totfact>
</mgrwt>
</event>
<event>
 6    1  0.1723639E-002  0.9102099E+02  0.7546771E-02  0.1393482E+00
          2   -1    0    0  501    0  0.00000000000E+00  0.00000000000E+00  0.37116717341E+03  0.37116717341E+03  0.00000000000E+00 0. -1.
         -2   -1    0    0    0  501 -0.00000000000E+00 -0.00000000000E+00 -0.82595349857E+01  0.82595349857E+01  0.00000000000E+00 0.  1.
         23    2    1    2    0    0 -0.86480864392E+01 -0.16263676832E+02  0.32087756968E+03  0.33353745844E+03  0.89137673705E+02 0.  0.
         11    1    3    3    0    0  0.55885648319E+01  0.12259770453E+02  0.28587955791E+03  0.28619688269E+03  0.00000000000E+00 0. -1.
        -11    1    3    3    0    0 -0.14236651271E+02 -0.28523447285E+02  0.34998011766E+02  0.47340575747E+02  0.00000000000E+00 0.  1.
         22    1    1    2    0    0  0.86480864392E+01  0.16263676832E+02  0.42030068745E+02  0.45889249960E+02  0.00000000000E+00 0.  1.
<mgrwt>
<rscale>  0 0.61049009E+02</rscale>
<asrwt>0</asrwt>
<pdfrwt beam="1">  1        2 0.57102629E-01 0.91020995E+02</pdfrwt>
<pdfrwt beam="2">  1       -2 0.12706980E-02 0.91020995E+02</pdfrwt>
<totfact> 0.11199613E+05</totfact>
</mgrwt>
</event>
<event>
 6    1  0.1723639E-002  0.9379265E+02  0.7546771E-02  0.1421733E+00
         -2   -1    0    0    0  501 -0.00000000000E+00  0.00000000000E+00  0.15183247647E+02  0.15183247647E+02  0.00000000000E+00 0.  1.
          2   -1    0    0  501    0  0.00000000000E+00 -0.00000000000E+00 -0.18284640731E+03  0.18284640731E+03  0.00000000000E+00 0. -1.
         23    2    1    2    0    0 -0.10091236331E+02  0.38910744952E+01 -0.14198763927E+03  0.17016918370E+03  0.93166989126E+02 0.  0.
         11    1    3    3    0    0  0.22693239605E+02 -0.31819235204E+02 -0.94700872882E+02  0.10244853429E+03  0.00000000000E+00 0.  1.
        -11    1    3    3    0    0 -0.32784475936E+02  0.35710309699E+02 -0.47286766393E+02  0.67720649414E+02  0.00000000000E+00 0. -1.
         22    1    1    2    0    0  0.10091236331E+02 -0.38910744952E+01 -0.25675520389E+02  0.27860471257E+02  0.00000000000E+00 0.  1.
<mgrwt>
<rscale>  0 0.54655963E+02</rscale>
<asrwt>0</asrwt>
<pdfrwt beam="1">  1        2 0.28130217E-01 0.93792651E+02</pdfrwt>
<pdfrwt beam="2">  1       -2 0.23358842E-02 0.93792651E+02</pdfrwt>
<totfact> 0.99224335E+04</totfact>
</mgrwt>
</event>
<event>
 6    1  0.1723639E-002  0.9257515E+02  0.7546771E-02  0.1405044E+00
          4   -1    0    0  501    0  0.00000000000E+00  0.00000000000E+00  0.12575938933E+03  0.12575938933E+03  0.00000000000E+00 0. -1.
         -4   -1    0    0    0  501 -0.00000000000E+00 -0.00000000000E+00 -0.22922617386E+02  0.22922617386E+02  0.00000000000E+00 0.  1.
         23    2    1    2    0    0  0.49598908485E+01 -0.13705710625E+02  0.85333663147E+02  0.12590469699E+03  0.91420520869E+02 0.  0.
         13    1    3    3    0    0 -0.16898840210E+01 -0.10764478087E+01  0.10309761021E+03  0.10311707753E+03  0.00000000000E+00 0. -1.
        -13    1    3    3    0    0  0.66497748695E+01 -0.12629262817E+02 -0.17763947063E+02  0.22787619453E+02  0.00000000000E+00 0.  1.
         22    1    1    2    0    0 -0.49598908485E+01  0.13705710625E+02  0.17503108793E+02  0.22777309727E+02  0.00000000000E+00 0. -1.
<mgrwt>
<rscale>  0 0.58314580E+02</rscale>
<asrwt>0</asrwt>
<pdfrwt beam="1">  1        4 0.19347598E-01 0.92575151E+02</pdfrwt>
<pdfrwt beam="2">  1       -4 0.35265566E-02 0.92575151E+02</pdfrwt>
<totfact> 0.14545710E+04</totfact>
</mgrwt>
</event>
<event>
 6    1  0.1723639E-002  0.9238493E+02  0.7546771E-02  0.1393640E+00
         -2   -1    0    0    0  501 -0.00000000000E+00  0.00000000000E+00  0.16431321380E+02  0.16431321380E+02  0.00000000000E+00 0.  1.
          2   -1    0    0  501    0  0.00000000000E+00 -0.00000000000E+00 -0.19114485702E+03  0.19114485702E+03  0.00000000000E+00 0. -1.
         23    2    1    2    0    0 -0.16781892719E+02 -0.52082504255E+01 -0.12956734292E+03  0.15913098759E+03  0.90698495378E+02 0.  0.
         11    1    3    3    0    0 -0.46139097663E+02  0.20590783282E+02 -0.53353131881E+02  0.73480292397E+02  0.00000000000E+00 0.  1.
        -11    1    3    3    0    0  0.29357204943E+02 -0.25799033707E+02 -0.76214211043E+02  0.85650695194E+02  0.00000000000E+00 0. -1.
         22    1    1    2    0    0  0.16781892719E+02  0.52082504255E+01 -0.45146192711E+02  0.48445190804E+02  0.00000000000E+00 0.  1.
<mgrwt>
<rscale>  0 0.61010289E+02</rscale>
<asrwt>0</asrwt>
<pdfrwt beam="1">  1        2 0.29406902E-01 0.92384928E+02</pdfrwt>
<pdfrwt beam="2">  1       -2 0.25278955E-02 0.92384928E+02</pdfrwt>
<totfact> 0.84210050E+04</totfact>
</mgrwt>
</event>
<event>
 6    1  0.1746153E-002  0.9416278E+02  0.7546771E-02  0.1366560E+00
          2   -1    0    0  501    0  0.00000000000E+00  0.00000000000E+00  0.18792942700E+04  0.18792942700E+04  0.00000000000E+00 0. -1.
         -2   -1    0    0    0  501 -0.00000000000E+00 -0.00000000000E+00 -0.45944427712E+01  0.45944427712E+01  0.00000000000E+00 0.  1.
         23    2    1    2    0    0 -0.13250676420E+02  0.22148952534E+02  0.18288577029E+04  0.18312801879E+04  0.90556461428E+02 0.  0.
         11    1    3    3    0    0 -0.38684779333E+02  0.37897814576E+02  0.15231167225E+04  0.15240791668E+04  0.00000000000E+00 0. -1.
        -11    1    3    3    0    0  0.25434102913E+02 -0.15748862042E+02  0.30574098037E+03  0.30720102103E+03  0.00000000000E+00 0.  1.
         22    1    1    2    0    0  0.13250676420E+02 -0.22148952534E+02  0.45842124363E+02  0.52608524880E+02  0.00000000000E+00 0.  1.
<mgrwt>
<rscale>  0 0.68132840E+02</rscale>
<asrwt>0</asrwt>
<pdfrwt beam="1">  1        2 0.28912158E+00 0.94162780E+02</pdfrwt>
<pdfrwt beam="2">  1       -2 0.70683885E-03 0.94162780E+02</pdfrwt>
<totfact> 0.28529453E+04</totfact>
</mgrwt>
</event>
<event>
 6    1  0.1723639E-002  0.9093302E+02  0.7546771E-02  0.1402091E+00
          2   -1    0    0  501    0  0.00000000000E+00  0.00000000000E+00  0.91847037512E+01  0.91847037512E+01  0.00000000000E+00 0. -1.
         -2   -1    0    0    0  501 -0.00000000000E+00 -0.00000000000E+00 -0.32755631306E+03  0.32755631306E+03  0.00000000000E+00 0.  1.
         23    2    1    2    0    0 -0.14757419820E+02  0.64661459772E+01 -0.29205619091E+03  0.30588500072E+03  0.89494259775E+02 0.  0.
         13    1    3    3    0    0  0.24850442372E+02  0.27922923986E+01 -0.23229732139E+02  0.34131537295E+02  0.00000000000E+00 0. -1.
        -13    1    3    3    0    0 -0.39607862192E+02  0.36738535786E+01 -0.26882645877E+03  0.27175346342E+03  0.00000000000E+00 0.  1.
         22    1    1    2    0    0  0.14757419820E+02 -0.64661459772E+01 -0.26315418399E+02  0.30856016092E+02  0.00000000000E+00 0.  1.
<mgrwt>
<rscale>  0 0.58996703E+02</rscale>
<asrwt>0</asrwt>
<pdfrwt beam="1">  1        2 0.14130310E-02 0.90933025E+02</pdfrwt>
<pdfrwt beam="2">  1       -2 0.50393290E-01 0.90933025E+02</pdfrwt>
<totfact> 0.29239348E+04</totfact>
</mgrwt>
</event>
<event>
 6    1  0.1723639E-002  0.8793248E+02  0.7546771E-02  0.1391166E+00
          3   -1    0    0  501    0  0.00000000000E+00  0.00000000000E+00  0.53095346940E+02  0.53095346940E+02  0.00000000000E+00 0. -1.
         -3   -1    0    0    0  501 -0.00000000000E+00 -0.00000000000E+00 -0.10159271761E+03  0.10159271761E+03  0.00000000000E+00 0.  1.
         23    2    1    2    0    0  0.26410542902E+01 -0.21036614231E+02 -0.78551110564E+02  0.11790842906E+03  0.85338188202E+02 0.  0.
         13    1    3    3    0    0 -0.22795052987E+02  0.24523040534E+02 -0.44149927907E+02  0.55409476553E+02  0.00000000000E+00 0.  1.
        -13    1    3    3    0    0  0.25436107277E+02 -0.45559654766E+02 -0.34401182657E+02  0.62498952503E+02  0.00000000000E+00 0. -1.
         22    1    1    2    0    0 -0.26410542902E+01  0.21036614231E+02  0.30053739889E+02  0.36779635498E+02  0.00000000000E+00 0. -1.
<mgrwt>
<rscale>  0 0.61617621E+02</rscale>
<asrwt>0</asrwt>
<pdfrwt beam="1">  1        3 0.81685151E-02 0.87932478E+02</pdfrwt>
<pdfrwt beam="2">  1       -3 0.15629649E-01 0.87932478E+02</pdfrwt>
<totfact> 0.73401068E+03</totfact>
</mgrwt>
</event>
<event>
 6    1  0.1723639E-002  0.9603839E+02  0.7546771E-02  0.1348833E+00
         -2   -1    0    0    0  501 -0.00000000000E+00  0.00000000000E+00  0.13762167311E+02  0.13762167311E+02  0.00000000000E+00 0.  1.
          2   -1    0    0  501    0  0.00000000000E+00 -0.00000000000E+00 -0.33581499268E+03  0.33581499268E+03  0.00000000000E+00 0. -1.
         23    2    1    2    0    0  0.29348753619E+02 -0.14656227330E+02 -0.18257527403E+03  0.20629372876E+03  0.90261938262E+02 0.  0.
         13    1    3    3    0    0 -0.21460476347E+02 -0.30749328084E+02 -0.43930760141E+02  0.57757985675E+02  0.00000000000E+00 0. -1.
        -13    1    3    3    0    0  0.50809229966E+02  0.16093100753E+02 -0.13864451389E+03  0.14853574308E+03  0.00000000000E+00 0.  1.
         22    1    1    2    0    0 -0.29348753619E+02  0.14656227330E+02 -0.13947755134E+03  0.14328343124E+03  0.00000000000E+00 0. -1.
<mgrwt>
<rscale>  0 0.73420606E+02</rscale>
<asrwt>0</asrwt>
<pdfrwt beam="1">  1        2 0.51663847E-01 0.96038387E+02</pdfrwt>
<pdfrwt beam="2">  1       -2 0.21172564E-02 0.96038387E+02</pdfrwt>
<totfact> 0.60371533E+04</totfact>
</mgrwt>
</event>
<event>
 6    1  0.1723639E-002  0.1452070E+03  0.7546771E-02  0.1217579E+00
         -2   -1    0    0    0  501 -0.00000000000E+00  0.00000000000E+00  0.18135766012E+02  0.18135766012E+02  0.00000000000E+00 0.  1.
          2   -1    0    0  501    0  0.00000000000E+00 -0.00000000000E+00 -0.10522211342E+04  0.10522211342E+04  0.00000000000E+00 0. -1.
         23    2    1    2    0    0 -0.11113432963E+02 -0.11414223664E+03 -0.75126799734E+03  0.76517232684E+03  0.89068105103E+02 0.  0.
         11    1    3    3    0    0  0.12392993998E+02 -0.11972176285E+03 -0.59549788713E+03  0.60753980971E+03  0.00000000000E+00 0. -1.
        -11    1    3    3    0    0 -0.23506426961E+02  0.55795262114E+01 -0.15577011021E+03  0.15763251713E+03  0.00000000000E+00 0.  1.
         22    1    1    2    0    0  0.11113432963E+02  0.11414223664E+03 -0.28281737089E+03  0.30518457342E+03  0.00000000000E+00 0.  1.
<mgrwt>
<rscale>  0 0.13688775E+03</rscale>
<asrwt>0</asrwt>
<pdfrwt beam="1">  1        2 0.16188012E+00 0.14520705E+03</pdfrwt>
<pdfrwt beam="2">  1       -2 0.27901187E-02 0.14520705E+03</pdfrwt>
<totfact> 0.11141513E+04</totfact>
</mgrwt>
</event>
<event>
 6    1  0.1723639E-002  0.9252744E+02  0.7546771E-02  0.1421417E+00
         -1   -1    0    0    0  501 -0.00000000000E+00  0.00000000000E+00  0.53357695978E+02  0.53357695978E+02  0.00000000000E+00 0.  1.
          1   -1    0    0  501    0  0.00000000000E+00 -0.00000000000E+00 -0.60227798576E+02  0.60227798576E+02  0.00000000000E+00 0. -1.
         23    2    1    2    0    0  0.11319875060E+02 -0.18583043035E-01  0.10216058413E+02  0.93089719018E+02  0.91832390913E+02 0.  0.
         13    1    3    3    0    0 -0.17859464561E+02 -0.38977459158E+02  0.11528983418E+02  0.44397300092E+02  0.00000000000E+00 0. -1.
        -13    1    3    3    0    0  0.29179339620E+02  0.38958876115E+02 -0.13129250051E+01  0.48692418926E+02  0.00000000000E+00 0.  1.
         22    1    1    2    0    0 -0.11319875060E+02  0.18583043035E-01 -0.17086161012E+02  0.20495775536E+02  0.00000000000E+00 0. -1.
<mgrwt>
<rscale>  0 0.54722191E+02</rscale>
<asrwt>0</asrwt>
<pdfrwt beam="1">  1        1 0.92658151E-02 0.92527444E+02</pdfrwt>
<pdfrwt beam="2">  1       -1 0.82088763E-02 0.92527444E+02</pdfrwt>
<totfact> 0.50696474E+04</totfact>
</mgrwt>
</event>
<event>
 6    1  0.1723639E-002  0.9225321E+02  0.7546771E-02  0.1401424E+00
         -3   -1    0    0    0  501 -0.00000000000E+00  0.00000000000E+00  0.78410884241E+02  0.78410884241E+02  0.00000000000E+00 0.  1.
          3   -1    0    0  501    0  0.00000000000E+00 -0.00000000000E+00 -0.42634199652E+02  0.42634199652E+02  0.00000000000E+00 0. -1.
         23    2    1    2    0    0  0.58047091132E+00  0.15582729483E+02  0.45298182159E+02  0.10277441558E+03  0.90925776248E+02 0.  0.
         11    1    3    3    0    0 -0.66402315954E+01 -0.70562219371E+01 -0.25933104831E+02  0.27684090555E+02  0.00000000000E+00 0. -1.
        -11    1    3    3    0    0  0.72207025067E+01  0.22638951420E+02  0.71231286991E+02  0.75090325026E+02  0.00000000000E+00 0.  1.
         22    1    1    2    0    0 -0.58047091132E+00 -0.15582729483E+02 -0.95214975698E+01  0.18270668313E+02  0.00000000000E+00 0.  1.
<mgrwt>
<rscale>  0 0.59152388E+02</rscale>
<asrwt>0</asrwt>
<pdfrwt beam="1">  1        3 0.65591077E-02 0.92253212E+02</pdfrwt>
<pdfrwt beam="2">  1       -3 0.12063213E-01 0.92253212E+02</pdfrwt>
<totfact> 0.16311419E+04</totfact>
</mgrwt>
</event>
<event>
 6    1  0.1723639E-002  0.9200275E+02  0.7546771E-02  0.1408014E+00
          2   -1    0    0  501    0  0.00000000000E+00  0.00000000000E+00  0.53160412415E+03  0.53160412415E+03  0.00000000000E+00 0. -1.
         -2   -1    0    0    0  501 -0.00000000000E+00 -0.00000000000E+00 -0.53088871729E+01  0.53088871729E+01  0.00000000000E+00 0.  1.
         23    2    1    2    0    0 -0.14067363309E+02 -0.17313961321E+01  0.44900166687E+03  0.45833066965E+03  0.90904441288E+02 0.  0.
         11    1    3    3    0    0  0.18865795637E+02 -0.21370405247E+02  0.50513686674E+02  0.58002112090E+02  0.00000000000E+00 0.  1.
        -11    1    3    3    0    0 -0.32933158946E+02  0.19639009115E+02  0.39848798019E+03  0.40032855756E+03  0.00000000000E+00 0. -1.
         22    1    1    2    0    0  0.14067363309E+02  0.17313961321E+01  0.77293570111E+02  0.78582341677E+02  0.00000000000E+00 0. -1.
<mgrwt>
<rscale>  0 0.57639469E+02</rscale>
<asrwt>0</asrwt>
<pdfrwt beam="1">  1        2 0.81785208E-01 0.92002749E+02</pdfrwt>
<pdfrwt beam="2">  1       -2 0.81675229E-03 0.92002749E+02</pdfrwt>
<totfact> 0.14303802E+05</totfact>
</mgrwt>
</event>
<event>
 6    1  0.1723639E-002  0.1232542E+03  0.7546771E-02  0.1257241E+00
          1   -1    0    0  501    0  0.00000000000E+00  0.00000000000E+00  0.48088124036E+03  0.48088124036E+03  0.00000000000E+00 0. -1.
         -1   -1    0    0    0  501 -0.00000000000E+00 -0.00000000000E+00 -0.29806250331E+02  0.29806250331E+02  0.00000000000E+00 0.  1.
         23    2    1    2    0    0 -0.58979564871E+02  0.59092618810E+02  0.13085584107E+03  0.17976328483E+03  0.90670065390E+02 0.  0.
         13    1    3    3    0    0 -0.74600622614E+01  0.34295061199E+02  0.11527810884E+03  0.12050247354E+03  0.00000000000E+00 0. -1.
        -13    1    3    3    0    0 -0.51519502610E+02  0.24797557611E+02  0.15577732235E+02  0.59260811285E+02  0.00000000000E+00 0.  1.
         22    1    1    2    0    0  0.58979564871E+02 -0.59092618810E+02  0.32021914896E+03  0.33092420587E+03  0.00000000000E+00 0. -1.
<mgrwt>
<rscale>  0 0.11181740E+03</rscale>
<asrwt>0</asrwt>
<pdfrwt beam="1">  1        1 0.73981723E-01 0.12325416E+03</pdfrwt>
<pdfrwt beam="2">  1       -1 0.45855773E-02 0.12325416E+03</pdfrwt>
<totfact> 0.90297298E+03</totfact>
</mgrwt>
</event>
<event>
 6    1  0.1723639E-002  0.8924325E+02  0.7546771E-02  0.1429150E+00
          3   -1    0    0  501    0  0.00000000000E+00  0.00000000000E+00  0.35294040253E+02  0.35294040253E+02  0.00000000000E+00 0. -1.
         -3   -1    0    0    0  501 -0.00000000000E+00 -0.00000000000E+00 -0.10696019052E+03  0.10696019052E+03  0.00000000000E+00 0.  1.
         23    2    1    2    0    0 -0.10018774103E+02  0.50320564467E+01 -0.86080678596E+02  0.12399290406E+03  0.88536205042E+02 0.  0.
         13    1    3    3    0    0 -0.40185181198E+02 -0.21874829100E-01 -0.84259912464E+02  0.93351926144E+02  0.00000000000E+00 0.  1.
        -13    1    3    3    0    0  0.30166407095E+02  0.50539312758E+01 -0.18207661324E+01  0.30640977917E+02  0.00000000000E+00 0. -1.
         22    1    1    2    0    0  0.10018774103E+02 -0.50320564467E+01  0.14414528326E+02  0.18261326717E+02  0.00000000000E+00 0.  1.
<mgrwt>
<rscale>  0 0.53130918E+02</rscale>
<asrwt>0</asrwt>
<pdfrwt beam="1">  1        3 0.54298524E-02 0.89243246E+02</pdfrwt>
<pdfrwt beam="2">  1       -3 0.16455414E-01 0.89243246E+02</pdfrwt>
<totfact> 0.12928255E+04</totfact>
</mgrwt>
</event>
<event>
 6    1  0.1723639E-002  0.9061682E+02  0.7546771E-02  0.1377050E+00
         -2   -1    0    0    0  501 -0.00000000000E+00  0.00000000000E+00  0.10578443690E+04  0.10578443690E+04  0.00000000000E+00 0.  1.
          2   -1    0    0  501    0  0.00000000000E+00 -0.00000000000E+00 -0.36935419679E+01  0.36935419679E+01  0.00000000000E+00 0. -1.
         23    2    1    2    0    0  0.23033301803E+02  0.79128232806E+01  0.96075186766E+03  0.96501583383E+03  0.87282658978E+02 0.  0.
         13    1    3    3    0    0  0.11125184187E+02 -0.81412059651E+01  0.91481200982E+03  0.91491587715E+03  0.00000000000E+00 0.  1.
        -13    1    3    3    0    0  0.11908117616E+02  0.16054029246E+02  0.45939857844E+02  0.50099956676E+02  0.00000000000E+00 0. -1.
         22    1    1    2    0    0 -0.23033301803E+02 -0.79128232806E+01  0.93398959404E+02  0.96522077174E+02  0.00000000000E+00 0. -1.
<mgrwt>
<rscale>  0 0.65245685E+02</rscale>
<asrwt>0</asrwt>
<pdfrwt beam="1">  1        2 0.56823807E-03 0.90616821E+02</pdfrwt>
<pdfrwt beam="2">  1       -2 0.16274505E+00 0.90616821E+02</pdfrwt>
<totfact> 0.73142190E+03</totfact>
</mgrwt>
</event>
<event>
 6    1  0.1723639E-002  0.9455732E+02  0.7546771E-02  0.1406718E+00
          2   -1    0    0  501    0  0.00000000000E+00  0.00000000000E+00  0.13848681293E+03  0.13848681293E+03  0.00000000000E+00 0. -1.
         -2   -1    0    0    0  501 -0.00000000000E+00 -0.00000000000E+00 -0.23850093742E+02  0.23850093742E+02  0.00000000000E+00 0.  1.
         23    2    1    2    0    0  0.79476355286E+01 -0.10693227390E+02  0.75521291123E+02  0.12101467615E+03  0.93613975499E+02 0.  0.
         13    1    3    3    0    0  0.38238822799E+02 -0.17810117112E+02  0.79148713845E+02  0.89687940906E+02  0.00000000000E+00 0. -1.
        -13    1    3    3    0    0 -0.30291187270E+02  0.71168897225E+01 -0.36274227225E+01  0.31326735246E+02  0.00000000000E+00 0.  1.
         22    1    1    2    0    0 -0.79476355286E+01  0.10693227390E+02  0.39115428066E+02  0.41322230522E+02  0.00000000000E+00 0. -1.
<mgrwt>
<rscale>  0 0.57932760E+02</rscale>
<asrwt>0</asrwt>
<pdfrwt beam="1">  1        2 0.21305663E-01 0.94557318E+02</pdfrwt>
<pdfrwt beam="2">  1       -2 0.36692453E-02 0.94557318E+02</pdfrwt>
<totfact> 0.69786777E+04</totfact>
</mgrwt>
</event>
<event>
 6    1  0.1723639E-002  0.9856747E+02  0.7546771E-02  0.1339076E+00
         -2   -1    0    0    0  501 -0.00000000000E+00  0.00000000000E+00  0.15428020366E+04  0.15428020366E+04  0.00000000000E+00 0.  1.
          2   -1    0    0  501    0  0.00000000000E+00 -0.00000000000E+00 -0.73391601920E+01  0.73391601920E+01  0.00000000000E+00 0. -1.
         23    2    1    2    0    0  0.33890942597E+02 -0.11827548967E+02  0.14847050391E+04  0.14879733196E+04  0.91799018501E+02 0.  0.
         13    1    3    3    0    0  0.25356548375E+02 -0.37392701365E+01  0.10045216744E+03  0.10367050993E+03  0.00000000000E+00 0. -1.
        -13    1    3    3    0    0  0.85343942216E+01 -0.80882788304E+01  0.13842528717E+04  0.13843028097E+04  0.00000000000E+00 0.  1.
         22    1    1    2    0    0 -0.33890942597E+02  0.11827548967E+02  0.50757837215E+02  0.62167877102E+02  0.00000000000E+00 0. -1.
<mgrwt>
<rscale>  0 0.76570277E+02</rscale>
<asrwt>0</asrwt>
<pdfrwt beam="1">  1        2 0.11291028E-02 0.98567473E+02</pdfrwt>
<pdfrwt beam="2">  1       -2 0.23735390E+00 0.98567473E+02</pdfrwt>
<totfact> 0.98605624E+02</totfact>
</mgrwt>
</event>
<event>
 6    1  0.1723639E-002  0.9233858E+02  0.7546771E-02  0.1418546E+00
          2   -1    0    0  501    0  0.00000000000E+00  0.00000000000E+00  0.25116126685E+03  0.25116126685E+03  0.00000000000E+00 0. -1.
         -2   -1    0    0    0  501 -0.00000000000E+00 -0.00000000000E+00 -0.11121278617E+02  0.11121278617E+02  0.00000000000E+00 0.  1.
         23    2    1    2    0    0  0.11869739253E+02 -0.89933387948E+00  0.19599710548E+03  0.21665936022E+03  0.91568081233E+02 0.  0.
         11    1    3    3    0    0 -0.35239733474E+02  0.20133404999E+02  0.92697056911E+02  0.10119257469E+03  0.00000000000E+00 0. -1.
        -11    1    3    3    0    0  0.47109472727E+02 -0.21032738878E+02  0.10330004857E+03  0.11546678553E+03  0.00000000000E+00 0.  1.
         22    1    1    2    0    0 -0.11869739253E+02  0.89933387948E+00  0.44042882754E+02  0.45623185253E+02  0.00000000000E+00 0. -1.
<mgrwt>
<rscale>  0 0.55329715E+02</rscale>
<asrwt>0</asrwt>
<pdfrwt beam="1">  1        2 0.38640191E-01 0.92338578E+02</pdfrwt>
<pdfrwt beam="2">  1       -2 0.17109661E-02 0.92338578E+02</pdfrwt>
<totfact> 0.11051062E+05</totfact>
</mgrwt>
</event>
<event>
 6    1  0.1859434E-002  0.1189771E+03  0.7546771E-02  0.1356961E+00
          1   -1    0    0  501    0  0.00000000000E+00  0.00000000000E+00  0.17325666490E+02  0.17325666490E+02  0.00000000000E+00 0. -1.
         -1   -1    0    0    0  501 -0.00000000000E+00 -0.00000000000E+00 -0.27440601872E+03  0.27440601872E+03  0.00000000000E+00 0.  1.
         23    2    1    2    0    0  0.23736589686E+01  0.14839772576E+02 -0.24531923414E+03  0.27264826293E+03  0.11802413116E+03 0.  0.
         13    1    3    3    0    0  0.25420965990E+02 -0.15178056263E+02 -0.58157759420E+01  0.30173202574E+02  0.00000000000E+00 0. -1.
        -13    1    3    3    0    0 -0.23047307021E+02  0.30017828839E+02 -0.23950345819E+03  0.24247506036E+03  0.00000000000E+00 0.  1.
         22    1    1    2    0    0 -0.23736589686E+01 -0.14839772576E+02 -0.11761118095E+02  0.19083422278E+02  0.00000000000E+00 0. -1.
<mgrwt>
<rscale>  0 0.70929316E+02</rscale>
<asrwt>0</asrwt>
<pdfrwt beam="1">  1        1 0.26654874E-02 0.11897709E+03</pdfrwt>
<pdfrwt beam="2">  1       -1 0.42216307E-01 0.11897709E+03</pdfrwt>
<totfact> 0.20639892E+04</totfact>
</mgrwt>
</event>
<event>
 6    1  0.1723639E-002  0.9571714E+02  0.7546771E-02  0.1346350E+00
         -1   -1    0    0    0  501 -0.00000000000E+00  0.00000000000E+00  0.72786722699E+02  0.72786722699E+02  0.00000000000E+00 0.  1.
          1   -1    0    0  501    0  0.00000000000E+00 -0.00000000000E+00 -0.13042435894E+03  0.13042435894E+03  0.00000000000E+00 0. -1.
         23    2    1    2    0    0  0.34281488720E+02 -0.44989147826E+01  0.36873523042E+02  0.10257401127E+03  0.89254189726E+02 0.  0.
         11    1    3    3    0    0 -0.20248398238E+02  0.22831981818E+02 -0.14266269445E+01  0.30550487547E+02  0.00000000000E+00 0. -1.
        -11    1    3    3    0    0  0.54529886957E+02 -0.27330896601E+02  0.38300149987E+02  0.72023523724E+02  0.00000000000E+00 0.  1.
         22    1    1    2    0    0 -0.34281488720E+02  0.44989147826E+01 -0.94511159280E+02  0.10063707036E+03  0.00000000000E+00 0. -1.
<mgrwt>
<rscale>  0 0.74205176E+02</rscale>
<asrwt>0</asrwt>
<pdfrwt beam="1">  1        1 0.20065286E-01 0.95717141E+02</pdfrwt>
<pdfrwt beam="2">  1       -1 0.11197957E-01 0.95717141E+02</pdfrwt>
<totfact> 0.11785793E+04</totfact>
</mgrwt>
</event>
<event>
 6    1  0.1723639E-002  0.9204552E+02  0.7546771E-02  0.1405216E+00
          1   -1    0    0  501    0  0.00000000000E+00  0.00000000000E+00  0.45744066370E+02  0.45744066370E+02  0.00000000000E+00 0. -1.
         -1   -1    0    0    0  501 -0.00000000000E+00 -0.00000000000E+00 -0.72434335383E+02  0.72434335383E+02  0.00000000000E+00 0.  1.
         23    2    1    2    0    0 -0.36397102636E+01  0.14333629988E+02 -0.37979682769E+02  0.99573259926E+02  0.90849751511E+02 0.  0.
         13    1    3    3    0    0 -0.37004597345E+01 -0.70623768467E+01 -0.64786119692E+02  0.65274894667E+02  0.00000000000E+00 0.  1.
        -13    1    3    3    0    0  0.60749470846E-01  0.21396006835E+02  0.26806436923E+02  0.34298365260E+02  0.00000000000E+00 0. -1.
         22    1    1    2    0    0  0.36397102636E+01 -0.14333629988E+02  0.11289413756E+02  0.18605141827E+02  0.00000000000E+00 0.  1.
<mgrwt>
<rscale>  0 0.58275123E+02</rscale>
<asrwt>0</asrwt>
<pdfrwt beam="1">  1        1 0.70375487E-02 0.92045520E+02</pdfrwt>
<pdfrwt beam="2">  1       -1 0.11143744E-01 0.92045520E+02</pdfrwt>
<totfact> 0.46013084E+04</totfact>
</mgrwt>
</event>
<event>
 6    1  0.1723639E-002  0.9419333E+02  0.7546771E-02  0.1404099E+00
         -1   -1    0    0    0  501 -0.00000000000E+00  0.00000000000E+00  0.62830810743E+01  0.62830810743E+01  0.00000000000E+00 0.  1.
          1   -1    0    0  501    0  0.00000000000E+00 -0.00000000000E+00 -0.46699668812E+03  0.46699668812E+03  0.00000000000E+00 0. -1.
         23    2    1    2    0    0  0.13737418606E+02 -0.29201606363E+01 -0.40740895904E+03  0.41815600383E+03  0.93140429628E+02 0.  0.
         13    1    3    3    0    0  0.19509352475E+02  0.42340494293E+02 -0.24809414368E+03  0.25243620268E+03  0.00000000000E+00 0.  1.
        -13    1    3    3    0    0 -0.57719338693E+01 -0.45260654929E+02 -0.15931481535E+03  0.16571980116E+03  0.00000000000E+00 0. -1.
         22    1    1    2    0    0 -0.13737418606E+02  0.29201606363E+01 -0.53304648015E+02  0.55123765365E+02  0.00000000000E+00 0. -1.
<mgrwt>
<rscale>  0 0.58531627E+02</rscale>
<asrwt>0</asrwt>
<pdfrwt beam="1">  1        1 0.71845643E-01 0.94193331E+02</pdfrwt>
<pdfrwt beam="2">  1       -1 0.96662788E-03 0.94193331E+02</pdfrwt>
<totfact> 0.85381570E+04</totfact>
</mgrwt>
</event>
<event>
 6    1  0.1723639E-002  0.1065489E+03  0.7546771E-02  0.1302302E+00
         -2   -1    0    0    0  501 -0.00000000000E+00  0.00000000000E+00  0.11763561272E+02  0.11763561272E+02  0.00000000000E+00 0.  1.
          2   -1    0    0  501    0  0.00000000000E+00 -0.00000000000E+00 -0.69726246862E+03  0.69726246862E+03  0.00000000000E+00 0. -1.
         23    2    1    2    0    0 -0.10745054279E+02  0.53726911989E+02 -0.58440886050E+03  0.59404240134E+03  0.91381732827E+02 0.  0.
         13    1    3    3    0    0 -0.37169691256E+02 -0.12878683734E+01 -0.11975347277E+03  0.12539592814E+03  0.00000000000E+00 0. -1.
        -13    1    3    3    0    0  0.26424636977E+02  0.55014780363E+02 -0.46465538772E+03  0.46864647320E+03  0.00000000000E+00 0.  1.
         22    1    1    2    0    0  0.10745054279E+02 -0.53726911989E+02 -0.10109004685E+03  0.11498362855E+03  0.00000000000E+00 0. -1.
<mgrwt>
<rscale>  0 0.90227432E+02</rscale>
<asrwt>0</asrwt>
<pdfrwt beam="1">  1        2 0.10727116E+00 0.10654885E+03</pdfrwt>
<pdfrwt beam="2">  1       -2 0.18097785E-02 0.10654885E+03</pdfrwt>
<totfact> 0.34551581E+04</totfact>
</mgrwt>
</event>
<event>
 6    1  0.1723639E-002  0.1751630E+03  0.7546771E-02  0.1179390E+00
         -2   -1    0    0    0  501 -0.00000000000E+00  0.00000000000E+00  0.11766555211E+02  0.11766555211E+02  0.00000000000E+00 0.  1.
          2   -1    0    0  501    0  0.00000000000E+00 -0.00000000000E+00 -0.28793535900E+04  0.28793535900E+04  0.00000000000E+00 0. -1.
         23    2    1    2    0    0  0.12981414827E+03 -0.75348884567E+02 -0.21955015203E+04  0.22024779258E+04  0.90293525385E+02 0.  0.
         13    1    3    3    0    0  0.44741191119E+02  0.15841478004E+02 -0.80366817039E+03  0.80506847827E+03  0.00000000000E+00 0. -1.
        -13    1    3    3    0    0  0.85072957154E+02 -0.91190362571E+02 -0.13918333499E+04  0.13974094476E+04  0.00000000000E+00 0.  1.
         22    1    1    2    0    0 -0.12981414827E+03  0.75348884567E+02 -0.67208551450E+03  0.68864221936E+03  0.00000000000E+00 0.  1.
<mgrwt>
<rscale>  0 0.16852913E+03</rscale>
<asrwt>0</asrwt>
<pdfrwt beam="1">  1        2 0.44297739E+00 0.17516303E+03</pdfrwt>
<pdfrwt beam="2">  1       -2 0.18102396E-02 0.17516303E+03</pdfrwt>
<totfact> 0.22229906E+03</totfact>
</mgrwt>
</event>
<event>
 6    1  0.1723639E-002  0.1003312E+03  0.7546771E-02  0.1325411E+00
          2   -1    0    0  501    0  0.00000000000E+00  0.00000000000E+00  0.35319716833E+02  0.35319716833E+02  0.00000000000E+00 0.  1.
         -2   -1    0    0    0  501 -0.00000000000E+00 -0.00000000000E+00 -0.15872763098E+03  0.15872763098E+03  0.00000000000E+00 0. -1.
         23    2    1    2    0    0 -0.40369669473E+02  0.15520425360E+02 -0.10973322310E+03  0.14868667110E+03  0.90530393204E+02 0.  0.
         13    1    3    3    0    0  0.89583723095E+01 -0.30548695159E+02 -0.25770093974E+02  0.40958185431E+02  0.00000000000E+00 0. -1.
        -13    1    3    3    0    0 -0.49328041782E+02  0.46069120520E+02 -0.83963129124E+02  0.10772848567E+03  0.00000000000E+00 0.  1.
         22    1    1    2    0    0  0.40369669473E+02 -0.15520425360E+02 -0.13674691047E+02  0.45360676714E+02  0.00000000000E+00 0. -1.
<mgrwt>
<rscale>  0 0.81296974E+02</rscale>
<asrwt>0</asrwt>
<pdfrwt beam="1">  1        2 0.54338028E-02 0.10033118E+03</pdfrwt>
<pdfrwt beam="2">  1       -2 0.24419635E-01 0.10033118E+03</pdfrwt>
<totfact> 0.18674221E+04</totfact>
</mgrwt>
</event>
<event>
 6    1  0.1723639E-002  0.9159035E+02  0.7546771E-02  0.1417061E+00
          2   -1    0    0  501    0  0.00000000000E+00  0.00000000000E+00  0.46802506356E+02  0.46802506356E+02  0.00000000000E+00 0. -1.
         -2   -1    0    0    0  501 -0.00000000000E+00 -0.00000000000E+00 -0.59035242430E+02  0.59035242430E+02  0.00000000000E+00 0.  1.
         23    2    1    2    0    0 -0.67477676119E+01 -0.10499252252E+02 -0.15603393497E+02  0.92909949396E+02  0.90736024502E+02 0.  0.
         11    1    3    3    0    0 -0.32545530708E+02 -0.73578579843E+01  0.27055970016E+02  0.42957829981E+02  0.00000000000E+00 0. -1.
        -11    1    3    3    0    0  0.25797763096E+02 -0.31413942681E+01 -0.42659363513E+02  0.49952119415E+02  0.00000000000E+00 0.  1.
         22    1    1    2    0    0  0.67477676119E+01  0.10499252252E+02  0.33706574236E+01  0.12927799390E+02  0.00000000000E+00 0. -1.
<mgrwt>
<rscale>  0 0.55647623E+02</rscale>
<asrwt>0</asrwt>
<pdfrwt beam="1">  1        2 0.72003856E-02 0.91590353E+02</pdfrwt>
<pdfrwt beam="2">  1       -2 0.90823450E-02 0.91590353E+02</pdfrwt>
<totfact> 0.64357989E+04</totfact>
</mgrwt>
</event>
<event>
 6    1  0.1723639E-002  0.7410342E+02  0.7546771E-02  0.1395877E+00
         -3   -1    0    0    0  501 -0.00000000000E+00  0.00000000000E+00  0.13727586300E+03  0.13727586300E+03  0.00000000000E+00 0.  1.
          3   -1    0    0  501    0  0.00000000000E+00 -0.00000000000E+00 -0.21400194352E+02  0.21400194352E+02  0.00000000000E+00 0. -1.
         23    2    1    2    0    0 -0.32715738735E+02 -0.30175348097E+01  0.91624803374E+02  0.11784066163E+03  0.66422073607E+02 0.  0.
         11    1    3    3    0    0  0.19650178601E+02 -0.62402584832E+01  0.17592935068E+02  0.27103167882E+02  0.00000000000E+00 0. -1.
        -11    1    3    3    0    0 -0.52365917336E+02  0.32227236736E+01  0.74031868306E+02  0.90737493745E+02  0.00000000000E+00 0.  1.
         22    1    1    2    0    0  0.32715738735E+02  0.30175348097E+01  0.24250865272E+02  0.40835395722E+02  0.00000000000E+00 0. -1.
<mgrwt>
<rscale>  0 0.60468299E+02</rscale>
<asrwt>0</asrwt>
<pdfrwt beam="1">  1        3 0.32923377E-02 0.74103421E+02</pdfrwt>
<pdfrwt beam="2">  1       -3 0.21119363E-01 0.74103421E+02</pdfrwt>
<totfact> 0.17386026E+04</totfact>
</mgrwt>
</event>
<event>
 6    1  0.1723639E-002  0.9633120E+02  0.7546771E-02  0.1375978E+00
         -2   -1    0    0    0  501 -0.00000000000E+00  0.00000000000E+00  0.77790404408E+01  0.77790404408E+01  0.00000000000E+00 0. -1.
          2   -1    0    0  501    0  0.00000000000E+00 -0.00000000000E+00 -0.44171764731E+03  0.44171764731E+03  0.00000000000E+00 0.  1.
         23    2    1    2    0    0  0.53213625178E+01  0.19933714391E+02 -0.34500665173E+03  0.35820286259E+03  0.94095861534E+02 0.  0.
         11    1    3    3    0    0 -0.61852779370E+01  0.49201293095E+02 -0.29493346946E+03  0.29907319558E+03  0.00000000000E+00 0.  1.
        -11    1    3    3    0    0  0.11506640455E+02 -0.29267578704E+02 -0.50073182270E+02  0.59129667007E+02  0.00000000000E+00 0. -1.
         22    1    1    2    0    0 -0.53213625178E+01 -0.19933714391E+02 -0.88931955134E+02  0.91293825161E+02  0.00000000000E+00 0. -1.
<mgrwt>
<rscale>  0 0.65532896E+02</rscale>
<asrwt>0</asrwt>
<pdfrwt beam="1">  1        2 0.67956567E-01 0.96331205E+02</pdfrwt>
<pdfrwt beam="2">  1       -2 0.11967753E-02 0.96331205E+02</pdfrwt>
<totfact> 0.10233909E+05</totfact>
</mgrwt>
</event>
<event>
 6    1  0.1723639E-002  0.1005335E+03  0.7546771E-02  0.1402616E+00
         -2   -1    0    0    0  501 -0.00000000000E+00  0.00000000000E+00  0.37633217288E+01  0.37633217288E+01  0.00000000000E+00 0.  1.
          2   -1    0    0  501    0  0.00000000000E+00 -0.00000000000E+00 -0.88240054511E+03  0.88240054511E+03  0.00000000000E+00 0. -1.
         23    2    1    2    0    0 -0.10788660704E+02 -0.48395740782E+01 -0.83196186752E+03  0.83801404314E+03  0.99835719174E+02 0.  0.
         13    1    3    3    0    0 -0.38159875204E+01  0.39360180586E+02 -0.62598718552E+03  0.62723499743E+03  0.00000000000E+00 0.  1.
        -13    1    3    3    0    0 -0.69726731835E+01 -0.44199754664E+02 -0.20597468200E+03  0.21077904571E+03  0.00000000000E+00 0. -1.
         22    1    1    2    0    0  0.10788660704E+02  0.48395740782E+01 -0.46675355865E+02  0.48149823698E+02  0.00000000000E+00 0.  1.
<mgrwt>
<rscale>  0 0.58874607E+02</rscale>
<asrwt>0</asrwt>
<pdfrwt beam="1">  1        2 0.13575408E+00 0.10053351E+03</pdfrwt>
<pdfrwt beam="2">  1       -2 0.57897195E-03 0.10053351E+03</pdfrwt>
<totfact> 0.13009512E+05</totfact>
</mgrwt>
</event>
<event>
 6    1  0.1723639E-002  0.8958578E+02  0.7546771E-02  0.1344656E+00
          2   -1    0    0  501    0  0.00000000000E+00  0.00000000000E+00  0.13031318457E+03  0.13031318457E+03  0.00000000000E+00 0. -1.
         -2   -1    0    0    0  501 -0.00000000000E+00 -0.00000000000E+00 -0.49738416655E+02  0.49738416655E+02  0.00000000000E+00 0.  1.
         23    2    1    2    0    0  0.18736642109E+01 -0.43376852859E+02  0.12179518322E+01  0.89594062896E+02  0.78361666125E+02 0.  0.
         11    1    3    3    0    0  0.15182979042E+02 -0.57762828832E+02  0.19464464094E+02  0.62816658696E+02  0.00000000000E+00 0. -1.
        -11    1    3    3    0    0 -0.13309314831E+02  0.14385975973E+02 -0.18246512262E+02  0.26777404200E+02  0.00000000000E+00 0.  1.
         22    1    1    2    0    0 -0.18736642109E+01  0.43376852859E+02  0.79356816079E+02  0.90457538324E+02  0.00000000000E+00 0.  1.
<mgrwt>
<rscale>  0 0.74747217E+02</rscale>
<asrwt>0</asrwt>
<pdfrwt beam="1">  1        2 0.20048182E-01 0.89585784E+02</pdfrwt>
<pdfrwt beam="2">  1       -2 0.76520642E-02 0.89585784E+02</pdfrwt>
<totfact> 0.24768023E+04</totfact>
</mgrwt>
</event>
<event>
 6    1  0.1723639E-002  0.9199911E+02  0.7546771E-02  0.1429718E+00
          1   -1    0    0  501    0  0.00000000000E+00  0.00000000000E+00  0.12376556382E+02  0.12376556382E+02  0.00000000000E+00 0. -1.
         -1   -1    0    0    0  501 -0.00000000000E+00 -0.00000000000E+00 -0.22342637892E+03  0.22342637892E+03  0.00000000000E+00 0.  1.
         23    2    1    2    0    0  0.44626738400E+01  0.91119947456E+01 -0.20292105950E+03  0.22280213938E+03  0.91437918929E+02 0.  0.
         13    1    3    3    0    0 -0.29057343197E+02 -0.26394956833E+02 -0.12332313137E+03  0.12942031398E+03  0.00000000000E+00 0.  1.
        -13    1    3    3    0    0  0.33520017037E+02  0.35506951578E+02 -0.79597928132E+02  0.93381825402E+02  0.00000000000E+00 0. -1.
         22    1    1    2    0    0 -0.44626738400E+01 -0.91119947456E+01 -0.81287630383E+01  0.13000795921E+02  0.00000000000E+00 0.  1.
<mgrwt>
<rscale>  0 0.53016715E+02</rscale>
<asrwt>0</asrwt>
<pdfrwt beam="1">  1        1 0.19040856E-02 0.91999114E+02</pdfrwt>
<pdfrwt beam="2">  1       -1 0.34373288E-01 0.91999114E+02</pdfrwt>
<totfact> 0.45335210E+04</totfact>
</mgrwt>
</event>
<event>
 6    1  0.1723639E-002  0.9592219E+02  0.7546771E-02  0.1390483E+00
         -4   -1    0    0    0  501 -0.00000000000E+00  0.00000000000E+00  0.18790811886E+02  0.18790811886E+02  0.00000000000E+00 0.  1.
          4   -1    0    0  501    0  0.00000000000E+00 -0.00000000000E+00 -0.17477742926E+03  0.17477742926E+03  0.00000000000E+00 0. -1.
         23    2    1    2    0    0 -0.15977502543E+02 -0.41709827151E+01 -0.11745119021E+03  0.15164382307E+03  0.94490154560E+02 0.  0.
         11    1    3    3    0    0 -0.28950503709E+01 -0.30288444777E+02 -0.11856991270E+03  0.12241158197E+03  0.00000000000E+00 0. -1.
        -11    1    3    3    0    0 -0.13082452172E+02  0.26117462062E+02  0.11187224903E+01  0.29232241095E+02  0.00000000000E+00 0.  1.
         22    1    1    2    0    0  0.15977502543E+02  0.41709827151E+01 -0.38535427171E+02  0.41924418082E+02  0.00000000000E+00 0. -1.
<mgrwt>
<rscale>  0 0.61786774E+02</rscale>
<asrwt>0</asrwt>
<pdfrwt beam="1">  1        4 0.26888834E-01 0.95922192E+02</pdfrwt>
<pdfrwt beam="2">  1       -4 0.28908942E-02 0.95922192E+02</pdfrwt>
<totfact> 0.11036850E+04</totfact>
</mgrwt>
</event>
<event>
 6    1  0.1723639E-002  0.1056373E+03  0.7546771E-02  0.1391804E+00
          2   -1    0    0  501    0  0.00000000000E+00  0.00000000000E+00  0.18852278529E+02  0.18852278529E+02  0.00000000000E+00 0. -1.
         -2   -1    0    0    0  501 -0.00000000000E+00 -0.00000000000E+00 -0.55034459269E+03  0.55034459269E+03  0.00000000000E+00 0.  1.
         23    2    1    2    0    0 -0.26031800325E+01 -0.11820691779E+02 -0.54258864388E+03  0.55277634037E+03  0.10494160616E+03 0.  0.
         11    1    3    3    0    0 -0.65089771653E+01 -0.16707315358E+02 -0.10760630614E+02  0.20911536085E+02  0.00000000000E+00 0. -1.
        -11    1    3    3    0    0  0.39057971327E+01  0.48866235796E+01 -0.53182801327E+03  0.53186480428E+03  0.00000000000E+00 0.  1.
         22    1    1    2    0    0  0.26031800325E+01  0.11820691779E+02  0.11096329715E+02  0.16420530855E+02  0.00000000000E+00 0. -1.
<mgrwt>
<rscale>  0 0.61460309E+02</rscale>
<asrwt>0</asrwt>
<pdfrwt beam="1">  1        2 0.29003505E-02 0.10563733E+03</pdfrwt>
<pdfrwt beam="2">  1       -2 0.84668400E-01 0.10563733E+03</pdfrwt>
<totfact> 0.38273202E+03</totfact>
</mgrwt>
</event>
<event>
 6    1  0.1723639E-002  0.9071249E+02  0.7546771E-02  0.1432334E+00
         -2   -1    0    0    0  501 -0.00000000000E+00  0.00000000000E+00  0.35505013881E+02  0.35505013881E+02  0.00000000000E+00 0.  1.
          2   -1    0    0  501    0  0.00000000000E+00 -0.00000000000E+00 -0.71685514269E+02  0.71685514269E+02  0.00000000000E+00 0. -1.
         23    2    1    2    0    0 -0.55958860763E+01 -0.84956520810E+01 -0.33072730653E+02  0.96553410214E+02  0.90140254414E+02 0.  0.
         13    1    3    3    0    0  0.76015019193E+01  0.20397542814E+02 -0.54197618795E+02  0.58405688655E+02  0.00000000000E+00 0. -1.
        -13    1    3    3    0    0 -0.13197387996E+02 -0.28893194895E+02  0.21124888141E+02  0.38147721559E+02  0.00000000000E+00 0.  1.
         22    1    1    2    0    0  0.55958860763E+01  0.84956520810E+01 -0.31077697349E+01  0.10637117936E+02  0.00000000000E+00 0.  1.
<mgrwt>
<rscale>  0 0.52494358E+02</rscale>
<asrwt>0</asrwt>
<pdfrwt beam="1">  1        2 0.11028541E-01 0.90712488E+02</pdfrwt>
<pdfrwt beam="2">  1       -2 0.54623098E-02 0.90712488E+02</pdfrwt>
<totfact> 0.82351694E+04</totfact>
</mgrwt>
</event>
<event>
 6    1  0.1723639E-002  0.9527913E+02  0.7546771E-02  0.1361625E+00
          2   -1    0    0  501    0  0.00000000000E+00  0.00000000000E+00  0.29039587510E+02  0.29039587510E+02  0.00000000000E+00 0. -1.
         -2   -1    0    0    0  501 -0.00000000000E+00 -0.00000000000E+00 -0.18835935240E+03  0.18835935240E+03  0.00000000000E+00 0.  1.
         23    2    1    2    0    0 -0.25671160907E+02 -0.85387974137E+01 -0.16426409572E+03  0.18989683143E+03  0.91357505874E+02 0.  0.
         11    1    3    3    0    0  0.11239112580E+01 -0.16201069381E+02 -0.16102303920E+03  0.16183991158E+03  0.00000000000E+00 0.  1.
        -11    1    3    3    0    0 -0.26795072164E+02  0.76622719676E+01 -0.32410565172E+01  0.28056919848E+02  0.00000000000E+00 0. -1.
         22    1    1    2    0    0  0.25671160907E+02  0.85387974137E+01  0.49443308315E+01  0.27502108482E+02  0.00000000000E+00 0. -1.
<mgrwt>
<rscale>  0 0.69551463E+02</rscale>
<asrwt>0</asrwt>
<pdfrwt beam="1">  1        2 0.44676288E-02 0.95279134E+02</pdfrwt>
<pdfrwt beam="2">  1       -2 0.28978363E-01 0.95279134E+02</pdfrwt>
<totfact> 0.17722801E+04</totfact>
</mgrwt>
</event>
<event>
 6    1  0.1723639E-002  0.9508775E+02  0.7546771E-02  0.1366758E+00
          2   -1    0    0  501    0  0.00000000000E+00  0.00000000000E+00  0.15992527322E+02  0.15992527322E+02  0.00000000000E+00 0. -1.
         -2   -1    0    0    0  501 -0.00000000000E+00 -0.00000000000E+00 -0.26563170164E+03  0.26563170164E+03  0.00000000000E+00 0.  1.
         23    2    1    2    0    0  0.24909536728E+02 -0.18992451050E+01 -0.23287149899E+03  0.25153690459E+03  0.91747409651E+02 0.  0.
         13    1    3    3    0    0  0.52386007104E+02 -0.61136425022E+01 -0.20682259735E+03  0.21344146069E+03  0.00000000000E+00 0.  1.
        -13    1    3    3    0    0 -0.27476470376E+02  0.42143973972E+01 -0.26048901640E+02  0.38095443906E+02  0.00000000000E+00 0. -1.
         22    1    1    2    0    0 -0.24909536728E+02  0.18992451050E+01 -0.16767675333E+02  0.30087324375E+02  0.00000000000E+00 0. -1.
<mgrwt>
<rscale>  0 0.68076858E+02</rscale>
<asrwt>0</asrwt>
<pdfrwt beam="1">  1        2 0.24603891E-02 0.95087745E+02</pdfrwt>
<pdfrwt beam="2">  1       -2 0.40866411E-01 0.95087745E+02</pdfrwt>
<totfact> 0.20806766E+04</totfact>
</mgrwt>
</event>
<event>
 6    1  0.1723639E-002  0.8949110E+02  0.7546771E-02  0.1411006E+00
         -2   -1    0    0    0  501 -0.00000000000E+00  0.00000000000E+00  0.19089590656E+02  0.19089590656E+02  0.00000000000E+00 0.  1.
          2   -1    0    0  501    0  0.00000000000E+00 -0.00000000000E+00 -0.18091290610E+03  0.18091290610E+03  0.00000000000E+00 0. -1.
         23    2    1    2    0    0 -0.14212173474E+02  0.37456662093E+01 -0.90852588470E+02  0.12752587999E+03  0.88275938660E+02 0.  0.
         13    1    3    3    0    0 -0.43636124729E+02 -0.17202233039E+02 -0.74131740639E+02  0.87724245070E+02  0.00000000000E+00 0. -1.
        -13    1    3    3    0    0  0.29423951255E+02  0.20947899249E+02 -0.16720847830E+02  0.39801634923E+02  0.00000000000E+00 0.  1.
         22    1    1    2    0    0  0.14212173474E+02 -0.37456662093E+01 -0.70970726977E+02  0.72476616766E+02  0.00000000000E+00 0. -1.
<mgrwt>
<rscale>  0 0.56969919E+02</rscale>
<asrwt>0</asrwt>
<pdfrwt beam="1">  1        2 0.27832755E-01 0.89491101E+02</pdfrwt>
<pdfrwt beam="2">  1       -2 0.29368601E-02 0.89491101E+02</pdfrwt>
<totfact> 0.71549731E+04</totfact>
</mgrwt>
</event>
<event>
 6    1  0.1723639E-002  0.7827676E+02  0.7546771E-02  0.1408597E+00
          2   -1    0    0  501    0  0.00000000000E+00  0.00000000000E+00  0.84652444344E+03  0.84652444344E+03  0.00000000000E+00 0. -1.
         -2   -1    0    0    0  501 -0.00000000000E+00 -0.00000000000E+00 -0.32381158954E+01  0.32381158954E+01  0.00000000000E+00 0.  1.
         23    2    1    2    0    0  0.16704646668E+02  0.15523632084E+02  0.73134293844E+03  0.73552005088E+03  0.74881394691E+02 0.  0.
         11    1    3    3    0    0  0.37744615793E+02  0.27486034242E+02  0.61015402069E+03  0.61193796014E+03  0.00000000000E+00 0. -1.
        -11    1    3    3    0    0 -0.21039969124E+02 -0.11962402159E+02  0.12118891775E+03  0.12358209074E+03  0.00000000000E+00 0.  1.
         22    1    1    2    0    0 -0.16704646668E+02 -0.15523632084E+02  0.11194338911E+03  0.11424250846E+03  0.00000000000E+00 0.  1.
<mgrwt>
<rscale>  0 0.57507968E+02</rscale>
<asrwt>0</asrwt>
<pdfrwt beam="1">  1        2 0.13023435E+00 0.78276763E+02</pdfrwt>
<pdfrwt beam="2">  1       -2 0.49817235E-03 0.78276763E+02</pdfrwt>
<totfact> 0.16318813E+05</totfact>
</mgrwt>
</event>
<event>
 6    1  0.1723639E-002  0.9436681E+02  0.7546771E-02  0.1414006E+00
         -2   -1    0    0    0  501 -0.00000000000E+00  0.00000000000E+00  0.89800126671E+02  0.89800126671E+02  0.00000000000E+00 0.  1.
          2   -1    0    0  501    0  0.00000000000E+00 -0.00000000000E+00 -0.41264170204E+02  0.41264170204E+02  0.00000000000E+00 0. -1.
         23    2    1    2    0    0  0.31229847113E+01  0.11548981884E+02  0.62108568000E+02  0.11297154142E+03  0.93605357412E+02 0.  0.
         13    1    3    3    0    0  0.51974147147E+01 -0.40377776502E+02  0.37975224890E+02  0.55673114341E+02  0.00000000000E+00 0.  1.
        -13    1    3    3    0    0 -0.20744300034E+01  0.51926758386E+02  0.24133343109E+02  0.57298427081E+02  0.00000000000E+00 0. -1.
         22    1    1    2    0    0 -0.31229847113E+01 -0.11548981884E+02 -0.13572611532E+02  0.18092755453E+02  0.00000000000E+00 0. -1.
<mgrwt>
<rscale>  0 0.56309485E+02</rscale>
<asrwt>0</asrwt>
<pdfrwt beam="1">  1        2 0.63483339E-02 0.94366811E+02</pdfrwt>
<pdfrwt beam="2">  1       -2 0.13815404E-01 0.94366811E+02</pdfrwt>
<totfact> 0.39164479E+04</totfact>
</mgrwt>
</event>
<event>
 6    1  0.1723639E-002  0.9073337E+02  0.7546771E-02  0.1425595E+00
          2   -1    0    0  501    0  0.00000000000E+00  0.00000000000E+00  0.26497068987E+03  0.26497068987E+03  0.00000000000E+00 0.  1.
         -2   -1    0    0    0  501 -0.00000000000E+00 -0.00000000000E+00 -0.10074018873E+02  0.10074018873E+02  0.00000000000E+00 0. -1.
         23    2    1    2    0    0  0.36539872587E+01  0.10651873967E+02  0.21011154462E+03  0.22886547546E+03  0.90031831223E+02 0.  0.
         13    1    3    3    0    0 -0.24235130884E+02 -0.14564555335E+02  0.18941390347E+02  0.34032985608E+02  0.00000000000E+00 0. -1.
        -13    1    3    3    0    0  0.27889118143E+02  0.25216429302E+02  0.19117015428E+03  0.19483248986E+03  0.00000000000E+00 0.  1.
         22    1    1    2    0    0 -0.36539872587E+01 -0.10651873967E+02  0.44785126375E+02  0.46179233280E+02  0.00000000000E+00 0.  1.
<mgrwt>
<rscale>  0 0.53854402E+02</rscale>
<asrwt>0</asrwt>
<pdfrwt beam="1">  1        2 0.40764716E-01 0.90733371E+02</pdfrwt>
<pdfrwt beam="2">  1       -2 0.15498493E-02 0.90733371E+02</pdfrwt>
<totfact> 0.12001582E+05</totfact>
</mgrwt>
</event>
<event>
 6    1  0.1723639E-002  0.9166559E+02  0.7546771E-02  0.1426915E+00
          4   -1    0    0  501    0  0.00000000000E+00  0.00000000000E+00  0.35536594572E+02  0.35536594572E+02  0.00000000000E+00 0. -1.
         -4   -1    0    0    0  501 -0.00000000000E+00 -0.00000000000E+00 -0.10190422762E+03  0.10190422762E+03  0.00000000000E+00 0.  1.
         23    2    1    2    0    0 -0.68787733074E+01  0.82005435565E+01 -0.78910136366E+02  0.12095201308E+03  0.91038527058E+02 0.  0.
         11    1    3    3    0    0 -0.12219031474E+02 -0.33650076274E+01  0.18658165517E+02  0.22555601232E+02  0.00000000000E+00 0. -1.
        -11    1    3    3    0    0  0.53402581662E+01  0.11565551184E+02 -0.97568301883E+02  0.98396411844E+02  0.00000000000E+00 0.  1.
         22    1    1    2    0    0  0.68787733074E+01 -0.82005435565E+01  0.12542503314E+02  0.16488809121E+02  0.00000000000E+00 0. -1.
<mgrwt>
<rscale>  0 0.53584221E+02</rscale>
<asrwt>0</asrwt>
<pdfrwt beam="1">  1        4 0.54671685E-02 0.91665587E+02</pdfrwt>
<pdfrwt beam="2">  1       -4 0.15677573E-01 0.91665587E+02</pdfrwt>
<totfact> 0.10484930E+04</totfact>
</mgrwt>
</event>
<event>
 6    1  0.1723639E-002  0.9556893E+02  0.7546771E-02  0.1371585E+00
          1   -1    0    0  501    0  0.00000000000E+00  0.00000000000E+00  0.39513583686E+01  0.39513583686E+01  0.00000000000E+00 0.  1.
         -1   -1    0    0    0  501 -0.00000000000E+00 -0.00000000000E+00 -0.92351898553E+03  0.92351898553E+03  0.00000000000E+00 0. -1.
         23    2    1    2    0    0  0.22674216591E+02  0.13427421382E+01 -0.80659161410E+03  0.81223361979E+03  0.92830480650E+02 0.  0.
         13    1    3    3    0    0  0.29013966580E+02  0.32540674471E+02 -0.19500837341E+03  0.19982234973E+03  0.00000000000E+00 0.  1.
        -13    1    3    3    0    0 -0.63397499896E+01 -0.31197932333E+02 -0.61158324069E+03  0.61241127007E+03  0.00000000000E+00 0. -1.
         22    1    1    2    0    0 -0.22674216591E+02 -0.13427421382E+01 -0.11297601307E+03  0.11523672411E+03  0.00000000000E+00 0.  1.
<mgrwt>
<rscale>  0 0.66728394E+02</rscale>
<asrwt>0</asrwt>
<pdfrwt beam="1">  1        1 0.60790157E-03 0.95568934E+02</pdfrwt>
<pdfrwt beam="2">  1       -1 0.14207978E+00 0.95568934E+02</pdfrwt>
<totfact> 0.12964697E+04</totfact>
</mgrwt>
</event>
<event>
 6    1  0.1723639E-002  0.1005198E+03  0.7546771E-02  0.1327333E+00
         -2   -1    0    0    0  501 -0.00000000000E+00  0.00000000000E+00  0.19444941452E+02  0.19444941452E+02  0.00000000000E+00 0.  1.
          2   -1    0    0  501    0  0.00000000000E+00 -0.00000000000E+00 -0.27324040173E+03  0.27324040173E+03  0.00000000000E+00 0. -1.
         23    2    1    2    0    0 -0.29350574685E+02 -0.29437058822E+02 -0.20684953635E+03  0.22998034785E+03  0.91521762669E+02 0.  0.
         11    1    3    3    0    0  0.21898548070E+02  0.19645406507E+02 -0.66244076820E+02  0.72482867756E+02  0.00000000000E+00 0. -1.
        -11    1    3    3    0    0 -0.51249122755E+02 -0.49082465329E+02 -0.14060545953E+03  0.15749748009E+03  0.00000000000E+00 0.  1.
         22    1    1    2    0    0  0.29350574685E+02  0.29437058822E+02 -0.46945923929E+02  0.62704995335E+02  0.00000000000E+00 0. -1.
<mgrwt>
<rscale>  0 0.80608635E+02</rscale>
<asrwt>0</asrwt>
<pdfrwt beam="1">  1        2 0.42036983E-01 0.10051980E+03</pdfrwt>
<pdfrwt beam="2">  1       -2 0.29915296E-02 0.10051980E+03</pdfrwt>
<totfact> 0.45678094E+04</totfact>
</mgrwt>
</event>
<event>
 6    1  0.1723639E-002  0.1105161E+03  0.7546771E-02  0.1289128E+00
          2   -1    0    0  501    0  0.00000000000E+00  0.00000000000E+00  0.75745192496E+02  0.75745192496E+02  0.00000000000E+00 0. -1.
         -2   -1    0    0    0  501 -0.00000000000E+00 -0.00000000000E+00 -0.13047999086E+03  0.13047999086E+03  0.00000000000E+00 0.  1.
         23    2    1    2    0    0 -0.37645621036E+02 -0.50141958168E+02 -0.82238778750E+02  0.13775710547E+03  0.91007662452E+02 0.  0.
         11    1    3    3    0    0 -0.10049579050E+02 -0.65739213057E+02 -0.82615045374E+02  0.10605604129E+03  0.00000000000E+00 0.  1.
        -11    1    3    3    0    0 -0.27596041986E+02  0.15597254890E+02  0.37626662442E+00  0.31701064177E+02  0.00000000000E+00 0. -1.
         22    1    1    2    0    0  0.37645621036E+02  0.50141958168E+02  0.27503980388E+02  0.68468077885E+02  0.00000000000E+00 0.  1.
<mgrwt>
<rscale>  0 0.95915241E+02</rscale>
<asrwt>0</asrwt>
<pdfrwt beam="1">  1        2 0.11653107E-01 0.11051608E+03</pdfrwt>
<pdfrwt beam="2">  1       -2 0.20073845E-01 0.11051608E+03</pdfrwt>
<totfact> 0.10192785E+04</totfact>
</mgrwt>
</event>
<event>
 6    1  0.1723639E-002  0.9186393E+02  0.7546771E-02  0.1386342E+00
          2   -1    0    0  501    0  0.00000000000E+00  0.00000000000E+00  0.59605415189E+01  0.59605415189E+01  0.00000000000E+00 0. -1.
         -2   -1    0    0    0  501 -0.00000000000E+00 -0.00000000000E+00 -0.56102421015E+03  0.56102421015E+03  0.00000000000E+00 0.  1.
         23    2    1    2    0    0 -0.87167564387E+01 -0.18107505105E+02 -0.49998877452E+03  0.50835790163E+03  0.89638819279E+02 0.  0.
         11    1    3    3    0    0 -0.10865538106E+02  0.30969437411E+01 -0.41119625334E+01  0.12023278037E+02  0.00000000000E+00 0. -1.
        -11    1    3    3    0    0  0.21487816675E+01 -0.21204448846E+02 -0.49587681198E+03  0.49633462359E+03  0.00000000000E+00 0.  1.
         22    1    1    2    0    0  0.87167564387E+01  0.18107505105E+02 -0.55074894117E+02  0.58626850043E+02  0.00000000000E+00 0.  1.
<mgrwt>
<rscale>  0 0.62825811E+02</rscale>
<asrwt>0</asrwt>
<pdfrwt beam="1">  1        2 0.91700633E-03 0.91863929E+02</pdfrwt>
<pdfrwt beam="2">  1       -2 0.86311423E-01 0.91863929E+02</pdfrwt>
<totfact> 0.17234050E+04</totfact>
</mgrwt>
</event>
<event>
 6    1  0.1723639E-002  0.9393753E+02  0.7546771E-02  0.1364537E+00
         -2   -1    0    0    0  501 -0.00000000000E+00  0.00000000000E+00  0.33597919941E+03  0.33597919941E+03  0.00000000000E+00 0. -1.
          2   -1    0    0  501    0  0.00000000000E+00 -0.00000000000E+00 -0.20395582590E+02  0.20395582590E+02  0.00000000000E+00 0.  1.
         23    2    1    2    0    0  0.26887073874E+02 -0.18408147567E+00  0.31581139785E+03  0.32948611317E+03  0.90007283781E+02 0.  0.
         13    1    3    3    0    0 -0.21439835300E+02  0.29589254894E+02  0.14281959398E+03  0.14741990018E+03  0.00000000000E+00 0.  1.
        -13    1    3    3    0    0  0.48326909175E+02 -0.29773336370E+02  0.17299180387E+03  0.18206621299E+03  0.00000000000E+00 0. -1.
         22    1    1    2    0    0 -0.26887073874E+02  0.18408147567E+00 -0.22778102295E+00  0.26888668835E+02  0.00000000000E+00 0.  1.
<mgrwt>
<rscale>  0 0.68709658E+02</rscale>
<asrwt>0</asrwt>
<pdfrwt beam="1">  1        2 0.31377822E-02 0.93937531E+02</pdfrwt>
<pdfrwt beam="2">  1       -2 0.51689103E-01 0.93937531E+02</pdfrwt>
<totfact> 0.95439881E+03</totfact>
</mgrwt>
</event>
<event>
 6    1  0.1723639E-002  0.9134598E+02  0.7546771E-02  0.1429446E+00
          2   -1    0    0  501    0  0.00000000000E+00  0.00000000000E+00  0.41973792229E+02  0.41973792229E+02  0.00000000000E+00 0.  1.
         -2   -1    0    0    0  501 -0.00000000000E+00 -0.00000000000E+00 -0.71460644886E+02  0.71460644886E+02  0.00000000000E+00 0. -1.
         23    2    1    2    0    0 -0.64809324403E+01 -0.81440803116E+01 -0.39009957589E+02  0.99327061138E+02  0.90751086791E+02 0.  0.
         13    1    3    3    0    0  0.22096621457E+02 -0.18090846131E+02  0.18720821866E+02  0.34146867570E+02  0.00000000000E+00 0.  1.
        -13    1    3    3    0    0 -0.28577553897E+02  0.99467658190E+01 -0.57730779455E+02  0.65180193568E+02  0.00000000000E+00 0. -1.
         22    1    1    2    0    0  0.64809324403E+01  0.81440803116E+01  0.95231049320E+01  0.14107375977E+02  0.00000000000E+00 0.  1.
<mgrwt>
<rscale>  0 0.53071326E+02</rscale>
<asrwt>0</asrwt>
<pdfrwt beam="1">  1        2 0.64575065E-02 0.91345981E+02</pdfrwt>
<pdfrwt beam="2">  1       -2 0.10993945E-01 0.91345981E+02</pdfrwt>
<totfact> 0.54817109E+04</totfact>
</mgrwt>
</event>
<event>
 6    1  0.1723639E-002  0.9449375E+02  0.7546771E-02  0.1398172E+00
          2   -1    0    0  501    0  0.00000000000E+00  0.00000000000E+00  0.17545263871E+03  0.17545263871E+03  0.00000000000E+00 0. -1.
         -2   -1    0    0    0  501 -0.00000000000E+00 -0.00000000000E+00 -0.19336420362E+02  0.19336420362E+02  0.00000000000E+00 0.  1.
         23    2    1    2    0    0  0.14848399652E+02 -0.35947899590E+01  0.10417054586E+03  0.14064341865E+03  0.93250582285E+02 0.  0.
         13    1    3    3    0    0  0.65710586876E+01 -0.12522130400E+02  0.11991230687E+03  0.12074329754E+03  0.00000000000E+00 0. -1.
        -13    1    3    3    0    0  0.82773409645E+01  0.89273404405E+01 -0.15741761003E+02  0.19900121112E+02  0.00000000000E+00 0.  1.
         22    1    1    2    0    0 -0.14848399652E+02  0.35947899590E+01  0.51945672485E+02  0.54145640425E+02  0.00000000000E+00 0.  1.
<mgrwt>
<rscale>  0 0.59918969E+02</rscale>
<asrwt>0</asrwt>
<pdfrwt beam="1">  1        2 0.26992713E-01 0.94493749E+02</pdfrwt>
<pdfrwt beam="2">  1       -2 0.29748340E-02 0.94493749E+02</pdfrwt>
<totfact> 0.73154641E+04</totfact>
</mgrwt>
</event>
<event>
 6    1  0.1723639E-002  0.9189139E+02  0.7546771E-02  0.1426743E+00
          1   -1    0    0  501    0  0.00000000000E+00  0.00000000000E+00  0.60450052037E+01  0.60450052037E+01  0.00000000000E+00 0. -1.
         -1   -1    0    0    0  501 -0.00000000000E+00 -0.00000000000E+00 -0.43539475527E+03  0.43539475527E+03  0.00000000000E+00 0.  1.
         23    2    1    2    0    0  0.99772462500E+01  0.37333298138E+01 -0.37989211436E+03  0.39084785476E+03  0.91271812857E+02 0.  0.
         11    1    3    3    0    0 -0.27604257884E+02 -0.41137299350E+01 -0.39883852007E+02  0.48678942863E+02  0.00000000000E+00 0. -1.
        -11    1    3    3    0    0  0.37581504134E+02  0.78470597488E+01 -0.34000826236E+03  0.34216891190E+03  0.00000000000E+00 0.  1.
         22    1    1    2    0    0 -0.99772462500E+01 -0.37333298138E+01 -0.49457635704E+02  0.50591905712E+02  0.00000000000E+00 0. -1.
<mgrwt>
<rscale>  0 0.53619474E+02</rscale>
<asrwt>0</asrwt>
<pdfrwt beam="1">  1        1 0.93000044E-03 0.91891387E+02</pdfrwt>
<pdfrwt beam="2">  1       -1 0.66983834E-01 0.91891387E+02</pdfrwt>
<totfact> 0.36780695E+04</totfact>
</mgrwt>
</event>
<event>
 6    1  0.1723639E-002  0.9349379E+02  0.7546771E-02  0.1393002E+00
         -1   -1    0    0    0  501 -0.00000000000E+00  0.00000000000E+00  0.81531876605E+03  0.81531876605E+03  0.00000000000E+00 0.  1.
          1   -1    0    0  501    0  0.00000000000E+00 -0.00000000000E+00 -0.40575259059E+01  0.40575259059E+01  0.00000000000E+00 0. -1.
         23    2    1    2    0    0  0.83148824330E+01 -0.14974000129E+02  0.74862488445E+03  0.75444039276E+03  0.91911537143E+02 0.  0.
         13    1    3    3    0    0 -0.34712967761E+02 -0.41580844374E+01  0.14373984146E+03  0.14793046279E+03  0.00000000000E+00 0. -1.
        -13    1    3    3    0    0  0.43027850194E+02 -0.10815915692E+02  0.60488504299E+03  0.60650992998E+03  0.00000000000E+00 0.  1.
         22    1    1    2    0    0 -0.83148824330E+01  0.14974000129E+02  0.62636355690E+02  0.64935899192E+02  0.00000000000E+00 0. -1.
<mgrwt>
<rscale>  0 0.61166243E+02</rscale>
<asrwt>0</asrwt>
<pdfrwt beam="1">  1        1 0.62423540E-03 0.93493789E+02</pdfrwt>
<pdfrwt beam="2">  1       -1 0.12543353E+00 0.93493789E+02</pdfrwt>
<totfact> 0.16881352E+04</totfact>
</mgrwt>
</event>
<event>
 6    1  0.1723639E-002  0.9430648E+02  0.7546771E-02  0.1411819E+00
          2   -1    0    0  501    0  0.00000000000E+00  0.00000000000E+00  0.37247676023E+03  0.37247676023E+03  0.00000000000E+00 0. -1.
         -2   -1    0    0    0  501 -0.00000000000E+00 -0.00000000000E+00 -0.76700959932E+01  0.76700959932E+01  0.00000000000E+00 0.  1.
         23    2    1    2    0    0 -0.61520369454E+01  0.10767588593E+02  0.32924049939E+03  0.34248068301E+03  0.93487556782E+02 0.  0.
         11    1    3    3    0    0  0.18799074122E+00  0.44465351403E+02  0.85804647169E+02  0.96641814406E+02  0.00000000000E+00 0.  1.
        -11    1    3    3    0    0 -0.63400276867E+01 -0.33697762810E+02  0.24343585222E+03  0.24583886860E+03  0.00000000000E+00 0. -1.
         22    1    1    2    0    0  0.61520369454E+01 -0.10767588593E+02  0.35566164847E+02  0.37666173214E+02  0.00000000000E+00 0. -1.
<mgrwt>
<rscale>  0 0.56789969E+02</rscale>
<asrwt>0</asrwt>
<pdfrwt beam="1">  1        2 0.57304103E-01 0.94306478E+02</pdfrwt>
<pdfrwt beam="2">  1       -2 0.11800151E-02 0.94306478E+02</pdfrwt>
<totfact> 0.12462787E+05</totfact>
</mgrwt>
</event>
<event>
 6    1  0.1723639E-002  0.1071717E+03  0.7546771E-02  0.1316563E+00
         -2   -1    0    0    0  501 -0.00000000000E+00  0.00000000000E+00  0.87362051645E+01  0.87362051645E+01  0.00000000000E+00 0. -1.
          2   -1    0    0  501    0  0.00000000000E+00 -0.00000000000E+00 -0.63388425038E+03  0.63388425038E+03  0.00000000000E+00 0.  1.
         23    2    1    2    0    0  0.20994761501E+02 -0.35859661998E+02 -0.43936203749E+03  0.45224415440E+03  0.98788055132E+02 0.  0.
         11    1    3    3    0    0 -0.21054561125E+01 -0.18434210391E+01  0.51356964982E+01  0.58486344637E+01  0.00000000000E+00 0. -1.
        -11    1    3    3    0    0  0.23100217614E+02 -0.34016240959E+02 -0.44449773399E+03  0.44639551994E+03  0.00000000000E+00 0.  1.
         22    1    1    2    0    0 -0.20994761501E+02  0.35859661998E+02 -0.18578600773E+03  0.19037630114E+03  0.00000000000E+00 0.  1.
<mgrwt>
<rscale>  0 0.84569173E+02</rscale>
<asrwt>0</asrwt>
<pdfrwt beam="1">  1        2 0.97520657E-01 0.10717171E+03</pdfrwt>
<pdfrwt beam="2">  1       -2 0.13440315E-02 0.10717171E+03</pdfrwt>
<totfact> 0.59152986E+04</totfact>
</mgrwt>
</event>
<event>
 6    1  0.1723639E-002  0.9155457E+02  0.7546771E-02  0.1428199E+00
          4   -1    0    0  501    0  0.00000000000E+00  0.00000000000E+00  0.15447803843E+02  0.15447803843E+02  0.00000000000E+00 0. -1.
         -4   -1    0    0    0  501 -0.00000000000E+00 -0.00000000000E+00 -0.20993175230E+03  0.20993175230E+03  0.00000000000E+00 0.  1.
         23    2    1    2    0    0 -0.10358065339E+02 -0.19211358552E+01 -0.19435984980E+03  0.21484410737E+03  0.90946462130E+02 0.  0.
         13    1    3    3    0    0 -0.59838805805E+01  0.44454700635E+02 -0.89915709882E+02  0.10048314346E+03  0.00000000000E+00 0.  1.
        -13    1    3    3    0    0 -0.43741847586E+01 -0.46375836490E+02 -0.10444413992E+03  0.11436096391E+03  0.00000000000E+00 0. -1.
         22    1    1    2    0    0  0.10358065339E+02  0.19211358552E+01 -0.12409865854E+00  0.10535448781E+02  0.00000000000E+00 0. -1.
<mgrwt>
<rscale>  0 0.53323144E+02</rscale>
<asrwt>0</asrwt>
<pdfrwt beam="1">  1        4 0.23765852E-02 0.91554570E+02</pdfrwt>
<pdfrwt beam="2">  1       -4 0.32297192E-01 0.91554570E+02</pdfrwt>
<totfact> 0.10458175E+04</totfact>
</mgrwt>
</event>
<event>
 6    1  0.1723639E-002  0.9493425E+02  0.7546771E-02  0.1405771E+00
         -2   -1    0    0    0  501 -0.00000000000E+00  0.00000000000E+00  0.24677449737E+02  0.24677449737E+02  0.00000000000E+00 0.  1.
          2   -1    0    0  501    0  0.00000000000E+00 -0.00000000000E+00 -0.12528914800E+03  0.12528914800E+03  0.00000000000E+00 0. -1.
         23    2    1    2    0    0  0.10371611959E+02 -0.84249155287E+01 -0.74653502242E+02  0.12077109334E+03  0.93989159234E+02 0.  0.
         13    1    3    3    0    0 -0.39760404047E+02 -0.52531716698E+01 -0.51993409081E+02  0.65664298751E+02  0.00000000000E+00 0. -1.
        -13    1    3    3    0    0  0.50132016006E+02 -0.31717438589E+01 -0.22660093161E+02  0.55106794590E+02  0.00000000000E+00 0.  1.
         22    1    1    2    0    0 -0.10371611959E+02  0.84249155287E+01 -0.25958196020E+02  0.29195504395E+02  0.00000000000E+00 0.  1.
<mgrwt>
<rscale>  0 0.58148301E+02</rscale>
<asrwt>0</asrwt>
<pdfrwt beam="1">  1        2 0.19275253E-01 0.94934249E+02</pdfrwt>
<pdfrwt beam="2">  1       -2 0.37965307E-02 0.94934249E+02</pdfrwt>
<totfact> 0.74274705E+04</totfact>
</mgrwt>
</event>
<event>
 6    1  0.1723639E-002  0.1290065E+03  0.7546771E-02  0.1245972E+00
         -2   -1    0    0    0  501 -0.00000000000E+00  0.00000000000E+00  0.11642185403E+03  0.11642185403E+03  0.00000000000E+00 0.  1.
          2   -1    0    0  501    0  0.00000000000E+00 -0.00000000000E+00 -0.12025278000E+03  0.12025278000E+03  0.00000000000E+00 0. -1.
         23    2    1    2    0    0  0.89313775799E+02  0.18164271141E+02 -0.45048588470E+02  0.13664570324E+03  0.91300501628E+02 0.  0.
         13    1    3    3    0    0  0.68333842129E+02  0.12008236956E+01  0.15744678872E+02  0.70134519820E+02  0.00000000000E+00 0. -1.
        -13    1    3    3    0    0  0.20979933670E+02  0.16963447445E+02 -0.60793267341E+02  0.66511183421E+02  0.00000000000E+00 0.  1.
         22    1    1    2    0    0 -0.89313775799E+02 -0.18164271141E+02  0.41217662495E+02  0.10002893079E+03  0.00000000000E+00 0.  1.
<mgrwt>
<rscale>  0 0.11827378E+03</rscale>
<asrwt>0</asrwt>
<pdfrwt beam="1">  1        2 0.18500428E-01 0.12900648E+03</pdfrwt>
<pdfrwt beam="2">  1       -2 0.17911054E-01 0.12900648E+03</pdfrwt>
<totfact> 0.72786283E+03</totfact>
</mgrwt>
</event>
<event>
 6    1  0.1723639E-002  0.1037392E+03  0.7546771E-02  0.1312794E+00
          2   -1    0    0  501    0  0.00000000000E+00  0.00000000000E+00  0.27626245798E+03  0.27626245798E+03  0.00000000000E+00 0. -1.
         -2   -1    0    0    0  501 -0.00000000000E+00 -0.00000000000E+00 -0.42467374988E+02  0.42467374988E+02  0.00000000000E+00 0.  1.
         23    2    1    2    0    0  0.65132150381E+01  0.48601063848E+02  0.28391289449E+02  0.10755406783E+03  0.91418416164E+02 0.  0.
         11    1    3    3    0    0  0.70882645920E+01  0.21237161200E+01  0.53986971853E+02  0.54491713085E+02  0.00000000000E+00 0. -1.
        -11    1    3    3    0    0 -0.57504955392E+00  0.46477347728E+02 -0.25595682404E+02  0.53062354750E+02  0.00000000000E+00 0.  1.
         22    1    1    2    0    0 -0.65132150381E+01 -0.48601063848E+02  0.20540379354E+03  0.21117576513E+03  0.00000000000E+00 0.  1.
<mgrwt>
<rscale>  0 0.86017100E+02</rscale>
<asrwt>0</asrwt>
<pdfrwt beam="1">  1        2 0.42501915E-01 0.10373915E+03</pdfrwt>
<pdfrwt beam="2">  1       -2 0.65334425E-02 0.10373915E+03</pdfrwt>
<totfact> 0.14226882E+04</totfact>
</mgrwt>
</event>
<event>
 6    1  0.1723639E-002  0.9071435E+02  0.7546771E-02  0.1432642E+00
         -2   -1    0    0    0  501 -0.00000000000E+00  0.00000000000E+00  0.10944382073E+02  0.10944382073E+02  0.00000000000E+00 0.  1.
          2   -1    0    0  501    0  0.00000000000E+00 -0.00000000000E+00 -0.23267767043E+03  0.23267767043E+03  0.00000000000E+00 0. -1.
         23    2    1    2    0    0 -0.95617759605E+01  0.33303659142E+01 -0.19628276957E+03  0.21623140076E+03  0.90147513256E+02 0.  0.
         11    1    3    3    0    0 -0.22670677708E+02  0.23470567362E+02 -0.18800366548E+03  0.19081458381E+03  0.00000000000E+00 0. -1.
        -11    1    3    3    0    0  0.13108901747E+02 -0.20140201448E+02 -0.82791040953E+01  0.25416816953E+02  0.00000000000E+00 0.  1.
         22    1    1    2    0    0  0.95617759605E+01 -0.33303659142E+01 -0.25450518783E+02  0.27390651744E+02  0.00000000000E+00 0.  1.
<mgrwt>
<rscale>  0 0.52433335E+02</rscale>
<asrwt>0</asrwt>
<pdfrwt beam="1">  1        2 0.35796567E-01 0.90714349E+02</pdfrwt>
<pdfrwt beam="2">  1       -2 0.16837510E-02 0.90714349E+02</pdfrwt>
<totfact> 0.12222498E+05</totfact>
</mgrwt>
</event>
<event>
 6    1  0.1723639E-002  0.9540892E+02  0.7546771E-02  0.1418313E+00
          2   -1    0    0  501    0  0.00000000000E+00  0.00000000000E+00  0.38350555404E+02  0.38350555404E+02  0.00000000000E+00 0. -1.
         -2   -1    0    0    0  501 -0.00000000000E+00 -0.00000000000E+00 -0.74117182820E+02  0.74117182820E+02  0.00000000000E+00 0.  1.
         23    2    1    2    0    0  0.10805093118E+02  0.73354853105E+00 -0.29090118503E+02  0.99745163720E+02  0.94792270572E+02 0.  0.
         13    1    3    3    0    0  0.25103498299E+02 -0.36507276778E+02  0.82932513946E+01  0.45074881068E+02  0.00000000000E+00 0. -1.
        -13    1    3    3    0    0 -0.14298405181E+02  0.37240825309E+02 -0.37383369897E+02  0.54670282652E+02  0.00000000000E+00 0.  1.
         22    1    1    2    0    0 -0.10805093118E+02 -0.73354853105E+00 -0.66765089132E+01  0.12722574504E+02  0.00000000000E+00 0. -1.
<mgrwt>
<rscale>  0 0.55379433E+02</rscale>
<asrwt>0</asrwt>
<pdfrwt beam="1">  1        2 0.59000855E-02 0.95408924E+02</pdfrwt>
<pdfrwt beam="2">  1       -2 0.11402643E-01 0.95408924E+02</pdfrwt>
<totfact> 0.58411462E+04</totfact>
</mgrwt>
</event>
<event>
 6    1  0.1723639E-002  0.9107662E+02  0.7546771E-02  0.1401060E+00
         -1   -1    0    0    0  501 -0.00000000000E+00  0.00000000000E+00  0.12867710012E+03  0.12867710012E+03  0.00000000000E+00 0.  1.
          1   -1    0    0  501    0  0.00000000000E+00 -0.00000000000E+00 -0.23559179900E+02  0.23559179900E+02  0.00000000000E+00 0. -1.
         23    2    1    2    0    0  0.67050761494E+01  0.14856210689E+02  0.99754154612E+02  0.13507717096E+03  0.89606281648E+02 0.  0.
         11    1    3    3    0    0  0.25715846867E+02 -0.28784036489E+02  0.23512759604E+02  0.45195966644E+02  0.00000000000E+00 0. -1.
        -11    1    3    3    0    0 -0.19010770718E+02  0.43640247178E+02  0.76241395008E+02  0.89881204319E+02  0.00000000000E+00 0.  1.
         22    1    1    2    0    0 -0.67050761494E+01 -0.14856210689E+02  0.53637656115E+01  0.17159109061E+02  0.00000000000E+00 0. -1.
<mgrwt>
<rscale>  0 0.59237535E+02</rscale>
<asrwt>0</asrwt>
<pdfrwt beam="1">  1        1 0.36244893E-02 0.91076620E+02</pdfrwt>
<pdfrwt beam="2">  1       -1 0.19796477E-01 0.91076620E+02</pdfrwt>
<totfact> 0.46150878E+04</totfact>
</mgrwt>
</event>
<event>
 6    1  0.1723639E-002  0.9347614E+02  0.7546771E-02  0.1399865E+00
          2   -1    0    0  501    0  0.00000000000E+00  0.00000000000E+00  0.15063152444E+03  0.15063152444E+03  0.00000000000E+00 0.  1.
         -2   -1    0    0    0  501 -0.00000000000E+00 -0.00000000000E+00 -0.20059625867E+02  0.20059625867E+02  0.00000000000E+00 0. -1.
         23    2    1    2    0    0 -0.12461811170E+02 -0.89860682690E+01  0.10274035818E+03  0.13890057307E+03  0.92204890537E+02 0.  0.
         11    1    3    3    0    0 -0.36645331003E+02 -0.25398061928E+02  0.10006854532E+03  0.10955206797E+03  0.00000000000E+00 0.  1.
        -11    1    3    3    0    0  0.24183519832E+02  0.16411993659E+02  0.26718128568E+01  0.29348505095E+02  0.00000000000E+00 0. -1.
         22    1    1    2    0    0  0.12461811170E+02  0.89860682690E+01  0.27831540393E+02  0.31790577240E+02  0.00000000000E+00 0. -1.
<mgrwt>
<rscale>  0 0.59518254E+02</rscale>
<asrwt>0</asrwt>
<pdfrwt beam="1">  1        2 0.23174080E-01 0.93476136E+02</pdfrwt>
<pdfrwt beam="2">  1       -2 0.30860964E-02 0.93476136E+02</pdfrwt>
<totfact> 0.81769792E+04</totfact>
</mgrwt>
</event>
<event>
 6    1  0.1723639E-002  0.9139571E+02  0.7546771E-02  0.1407363E+00
         -3   -1    0    0    0  501 -0.00000000000E+00  0.00000000000E+00  0.12028310296E+03  0.12028310296E+03  0.00000000000E+00 0.  1.
          3   -1    0    0  501    0  0.00000000000E+00 -0.00000000000E+00 -0.26376716465E+02  0.26376716465E+02  0.00000000000E+00 0. -1.
         23    2    1    2    0    0  0.14252193989E+02  0.31941912233E+01  0.95232539280E+02  0.13199398933E+03  0.90221110557E+02 0.  0.
         13    1    3    3    0    0 -0.28542200610E+00  0.38727097288E+02  0.12346845527E+02  0.40648666947E+02  0.00000000000E+00 0. -1.
        -13    1    3    3    0    0  0.14537615995E+02 -0.35532906065E+02  0.82885693753E+02  0.91345322382E+02  0.00000000000E+00 0.  1.
         22    1    1    2    0    0 -0.14252193989E+02 -0.31941912233E+01 -0.13261527888E+01  0.14665830092E+02  0.00000000000E+00 0. -1.
<mgrwt>
<rscale>  0 0.57786359E+02</rscale>
<asrwt>0</asrwt>
<pdfrwt beam="1">  1        3 0.40579564E-02 0.91395715E+02</pdfrwt>
<pdfrwt beam="2">  1       -3 0.18505092E-01 0.91395715E+02</pdfrwt>
<totfact> 0.16754259E+04</totfact>
</mgrwt>
</event>
<event>
 6    1  0.1723639E-002  0.9188052E+02  0.7546771E-02  0.1424749E+00
         -4   -1    0    0    0  501 -0.00000000000E+00  0.00000000000E+00  0.81029005248E+03  0.81029005248E+03  0.00000000000E+00 0.  1.
          4   -1    0    0  501    0  0.00000000000E+00 -0.00000000000E+00 -0.37054002175E+01  0.37054002175E+01  0.00000000000E+00 0. -1.
         23    2    1    2    0    0  0.10965520713E+02 -0.66649928075E+00  0.77741403856E+03  0.78282476824E+03  0.91221398549E+02 0.  0.
         13    1    3    3    0    0 -0.11720435165E+02 -0.42006260212E+02  0.43462567615E+03  0.43680816484E+03  0.00000000000E+00 0.  1.
        -13    1    3    3    0    0  0.22685955878E+02  0.41339760932E+02  0.34278836241E+03  0.34601660341E+03  0.00000000000E+00 0. -1.
         22    1    1    2    0    0 -0.10965520713E+02  0.66649928075E+00  0.29170613699E+02  0.31170684454E+02  0.00000000000E+00 0. -1.
<mgrwt>
<rscale>  0 0.54028772E+02</rscale>
<asrwt>0</asrwt>
<pdfrwt beam="1">  1        4 0.57006222E-03 0.91880523E+02</pdfrwt>
<pdfrwt beam="2">  1       -4 0.12465987E+00 0.91880523E+02</pdfrwt>
<totfact> 0.51300010E+03</totfact>
</mgrwt>
</event>
<event>
 6    1  0.1723639E-002  0.1105533E+03  0.7546771E-02  0.1287765E+00
         -2   -1    0    0    0  501 -0.00000000000E+00  0.00000000000E+00  0.10679020136E+03  0.10679020136E+03  0.00000000000E+00 0.  1.
          2   -1    0    0  501    0  0.00000000000E+00 -0.00000000000E+00 -0.80954293537E+02  0.80954293537E+02  0.00000000000E+00 0. -1.
         23    2    1    2    0    0 -0.34794011678E+02 -0.54026923404E+02  0.46940838750E+02  0.12010611962E+03  0.89958356620E+02 0.  0.
         13    1    3    3    0    0 -0.16567538609E+02 -0.62868289168E+02 -0.41487206817E+01  0.65146887890E+02  0.00000000000E+00 0. -1.
        -13    1    3    3    0    0 -0.18226473069E+02  0.88413657638E+01  0.51089559432E+02  0.54959231727E+02  0.00000000000E+00 0.  1.
         22    1    1    2    0    0  0.34794011678E+02  0.54026923404E+02 -0.21104930927E+02  0.67638375281E+02  0.00000000000E+00 0. -1.
<mgrwt>
<rscale>  0 0.96530923E+02</rscale>
<asrwt>0</asrwt>
<pdfrwt beam="1">  1        2 0.12454507E-01 0.11055332E+03</pdfrwt>
<pdfrwt beam="2">  1       -2 0.16429262E-01 0.11055332E+03</pdfrwt>
<totfact> 0.13137739E+04</totfact>
</mgrwt>
</event>
<event>
 6    1  0.1723639E-002  0.9435475E+02  0.7546771E-02  0.1393477E+00
         -1   -1    0    0    0  501 -0.00000000000E+00  0.00000000000E+00  0.34286126209E+02  0.34286126209E+02  0.00000000000E+00 0.  1.
          1   -1    0    0  501    0  0.00000000000E+00 -0.00000000000E+00 -0.92588996757E+02  0.92588996757E+02  0.00000000000E+00 0. -1.
         23    2    1    2    0    0 -0.16399252607E+02 -0.21301027951E+01 -0.40807713176E+02  0.10280120855E+03  0.92894274313E+02 0.  0.
         11    1    3    3    0    0 -0.44875156009E+02  0.12556607513E+02  0.50366046059E+01  0.46870197407E+02  0.00000000000E+00 0.  1.
        -11    1    3    3    0    0  0.28475903402E+02 -0.14686710308E+02 -0.45844317782E+02  0.55931011140E+02  0.00000000000E+00 0. -1.
         22    1    1    2    0    0  0.16399252607E+02  0.21301027951E+01 -0.17495157372E+02  0.24073914419E+02  0.00000000000E+00 0. -1.
<mgrwt>
<rscale>  0 0.61050201E+02</rscale>
<asrwt>0</asrwt>
<pdfrwt beam="1">  1        1 0.14244461E-01 0.94354751E+02</pdfrwt>
<pdfrwt beam="2">  1       -1 0.52747887E-02 0.94354751E+02</pdfrwt>
<totfact> 0.55934202E+04</totfact>
</mgrwt>
</event>
<event>
 6    1  0.1723639E-002  0.9111181E+02  0.7546771E-02  0.1362536E+00
         -3   -1    0    0    0  501 -0.00000000000E+00  0.00000000000E+00  0.30314618457E+02  0.30314618457E+02  0.00000000000E+00 0.  1.
          3   -1    0    0  501    0  0.00000000000E+00 -0.00000000000E+00 -0.15799080575E+03  0.15799080575E+03  0.00000000000E+00 0. -1.
         23    2    1    2    0    0 -0.20547242959E+01  0.30400780114E+02 -0.47958632619E+02  0.10296306751E+03  0.85865787743E+02 0.  0.
         13    1    3    3    0    0  0.15971202786E+02  0.21749595475E+02 -0.68908368767E+02  0.74003293899E+02  0.00000000000E+00 0. -1.
        -13    1    3    3    0    0 -0.18025927082E+02  0.86511846386E+01  0.20949736149E+02  0.28959773610E+02  0.00000000000E+00 0.  1.
         22    1    1    2    0    0  0.20547242959E+01 -0.30400780114E+02 -0.79717554677E+02  0.85342356700E+02  0.00000000000E+00 0. -1.
<mgrwt>
<rscale>  0 0.69286661E+02</rscale>
<asrwt>0</asrwt>
<pdfrwt beam="1">  1        3 0.24306279E-01 0.91111815E+02</pdfrwt>
<pdfrwt beam="2">  1       -3 0.46637873E-02 0.91111815E+02</pdfrwt>
<totfact> 0.83510777E+03</totfact>
</mgrwt>
</event>
<event>
 6    1  0.1723639E-002  0.9788415E+02  0.7546771E-02  0.1344626E+00
          1   -1    0    0  501    0  0.00000000000E+00  0.00000000000E+00  0.75887238049E+02  0.75887238049E+02  0.00000000000E+00 0. -1.
         -1   -1    0    0    0  501 -0.00000000000E+00 -0.00000000000E+00 -0.92878491580E+02  0.92878491580E+02  0.00000000000E+00 0.  1.
         23    2    1    2    0    0 -0.25183054680E+01 -0.33205918531E+02 -0.59665671625E+02  0.11463550843E+03  0.92045274369E+02 0.  0.
         13    1    3    3    0    0 -0.30260332592E+02 -0.30436609464E+02 -0.72258270926E+02  0.84043635341E+02  0.00000000000E+00 0.  1.
        -13    1    3    3    0    0  0.27742027124E+02 -0.27693090676E+01  0.12592599301E+02  0.30591873084E+02  0.00000000000E+00 0. -1.
         22    1    1    2    0    0  0.25183054680E+01  0.33205918531E+02  0.42674418093E+02  0.54130221204E+02  0.00000000000E+00 0. -1.
<mgrwt>
<rscale>  0 0.74756594E+02</rscale>
<asrwt>0</asrwt>
<pdfrwt beam="1">  1        1 0.11674960E-01 0.97884153E+02</pdfrwt>
<pdfrwt beam="2">  1       -1 0.14288999E-01 0.97884153E+02</pdfrwt>
<totfact> 0.16248135E+04</totfact>
</mgrwt>
</event>
<event>
 6    1  0.1723639E-002  0.9801527E+02  0.7546771E-02  0.1344705E+00
         -4   -1    0    0    0  501 -0.00000000000E+00  0.00000000000E+00  0.12681181662E+03  0.12681181662E+03  0.00000000000E+00 0.  1.
          4   -1    0    0  501    0  0.00000000000E+00 -0.00000000000E+00 -0.34369765843E+02  0.34369765843E+02  0.00000000000E+00 0. -1.
         23    2    1    2    0    0 -0.22469597994E+02 -0.24336187647E+02  0.60603854334E+02  0.11523809962E+03  0.92248900157E+02 0.  0.
         13    1    3    3    0    0 -0.16956858705E+02 -0.59592089600E+02  0.33553358196E+02  0.70459776087E+02  0.00000000000E+00 0. -1.
        -13    1    3    3    0    0 -0.55127392885E+01  0.35255901952E+02  0.27050496138E+02  0.44778323531E+02  0.00000000000E+00 0.  1.
         22    1    1    2    0    0  0.22469597994E+02  0.24336187647E+02  0.31838196445E+02  0.45943482846E+02  0.00000000000E+00 0. -1.
<mgrwt>
<rscale>  0 0.74731327E+02</rscale>
<asrwt>0</asrwt>
<pdfrwt beam="1">  1        4 0.52876563E-02 0.98015266E+02</pdfrwt>
<pdfrwt beam="2">  1       -4 0.19509510E-01 0.98015266E+02</pdfrwt>
<totfact> 0.76758926E+03</totfact>
</mgrwt>
</event>
<event>
 6    1  0.1723639E-002  0.9225541E+02  0.7546771E-02  0.1376230E+00
          2   -1    0    0  501    0  0.00000000000E+00  0.00000000000E+00  0.18638207374E+02  0.18638207374E+02  0.00000000000E+00 0. -1.
         -2   -1    0    0    0  501 -0.00000000000E+00 -0.00000000000E+00 -0.17955994335E+03  0.17955994335E+03  0.00000000000E+00 0.  1.
         23    2    1    2    0    0  0.23011805256E+02  0.41996731378E+01 -0.13075200151E+03  0.16002232967E+03  0.89240571816E+02 0.  0.
         13    1    3    3    0    0  0.20807657277E+02  0.45549132749E+02 -0.81741069690E+02  0.95860756150E+02  0.00000000000E+00 0. -1.
        -13    1    3    3    0    0  0.22041479791E+01 -0.41349459612E+02 -0.49010931820E+02  0.64161573518E+02  0.00000000000E+00 0.  1.
         22    1    1    2    0    0 -0.23011805256E+02 -0.41996731378E+01 -0.30169734468E+02  0.38175821058E+02  0.00000000000E+00 0.  1.
<mgrwt>
<rscale>  0 0.65465154E+02</rscale>
<asrwt>0</asrwt>
<pdfrwt beam="1">  1        2 0.28674167E-02 0.92255407E+02</pdfrwt>
<pdfrwt beam="2">  1       -2 0.27624605E-01 0.92255407E+02</pdfrwt>
<totfact> 0.34444920E+04</totfact>
</mgrwt>
</event>
<event>
 6    1  0.1723639E-002  0.8635396E+02  0.7546771E-02  0.1405694E+00
         -1   -1    0    0    0  501 -0.00000000000E+00  0.00000000000E+00  0.27100392651E+02  0.27100392651E+02  0.00000000000E+00 0.  1.
          1   -1    0    0  501    0  0.00000000000E+00 -0.00000000000E+00 -0.10959464937E+03  0.10959464937E+03  0.00000000000E+00 0. -1.
         23    2    1    2    0    0  0.17756458615E+02  0.82653444533E+00 -0.50343099371E+02  0.99957161017E+02  0.84504623558E+02 0.  0.
         11    1    3    3    0    0  0.16564445871E+02  0.39223246009E+02 -0.89938856322E+01  0.43517052671E+02  0.00000000000E+00 0.  1.
        -11    1    3    3    0    0  0.11920127446E+01 -0.38396711563E+02 -0.41349213739E+02  0.56440108346E+02  0.00000000000E+00 0. -1.
         22    1    1    2    0    0 -0.17756458615E+02 -0.82653444533E+00 -0.32151157345E+02  0.36737881000E+02  0.00000000000E+00 0.  1.
<mgrwt>
<rscale>  0 0.58165877E+02</rscale>
<asrwt>0</asrwt>
<pdfrwt beam="1">  1        1 0.16860715E-01 0.86353960E+02</pdfrwt>
<pdfrwt beam="2">  1       -1 0.41692911E-02 0.86353960E+02</pdfrwt>
<totfact> 0.62777446E+04</totfact>
</mgrwt>
</event>
<event>
 6    1  0.1723639E-002  0.9208459E+02  0.7546771E-02  0.1402110E+00
         -2   -1    0    0    0  501 -0.00000000000E+00  0.00000000000E+00  0.98210604181E+03  0.98210604181E+03  0.00000000000E+00 0.  1.
          2   -1    0    0  501    0  0.00000000000E+00 -0.00000000000E+00 -0.41950450356E+02  0.41950450356E+02  0.00000000000E+00 0. -1.
         23    2    1    2    0    0 -0.15190758840E+02  0.31319667384E+01  0.97843265680E+03  0.98275634567E+03  0.90768952288E+02 0.  0.
         11    1    3    3    0    0  0.34888404394E+02 -0.15886361343E+02  0.43878667350E+03  0.44045808209E+03  0.00000000000E+00 0. -1.
        -11    1    3    3    0    0 -0.50079163234E+02  0.19018328082E+02  0.53964598330E+03  0.54229826358E+03  0.00000000000E+00 0.  1.
         22    1    1    2    0    0  0.15190758840E+02 -0.31319667384E+01 -0.38277065339E+02  0.41300146498E+02  0.00000000000E+00 0. -1.
<mgrwt>
<rscale>  0 0.58992258E+02</rscale>
<asrwt>0</asrwt>
<pdfrwt beam="1">  1        2 0.64539161E-02 0.92084586E+02</pdfrwt>
<pdfrwt beam="2">  1       -2 0.15109322E+00 0.92084586E+02</pdfrwt>
<totfact> 0.34112739E+02</totfact>
</mgrwt>
</event>
<event>
 6    1  0.1723639E-002  0.9343537E+02  0.7546771E-02  0.1404198E+00
          2   -1    0    0  501    0  0.00000000000E+00  0.00000000000E+00  0.15495209147E+03  0.15495209147E+03  0.00000000000E+00 0. -1.
         -2   -1    0    0    0  501 -0.00000000000E+00 -0.00000000000E+00 -0.19882370296E+02  0.19882370296E+02  0.00000000000E+00 0.  1.
         23    2    1    2    0    0 -0.14932595336E+01  0.14288846604E+02  0.99602830512E+02  0.13656827180E+03  0.92324254965E+02 0.  0.
         11    1    3    3    0    0 -0.22295999373E+02  0.45159620163E+02  0.32828017882E+02  0.60118064168E+02  0.00000000000E+00 0.  1.
        -11    1    3    3    0    0  0.20802739840E+02 -0.30870773559E+02  0.66774812630E+02  0.76450207630E+02  0.00000000000E+00 0. -1.
         22    1    1    2    0    0  0.14932595336E+01 -0.14288846604E+02  0.35466890661E+02  0.38266189965E+02  0.00000000000E+00 0. -1.
<mgrwt>
<rscale>  0 0.58508971E+02</rscale>
<asrwt>0</asrwt>
<pdfrwt beam="1">  1        2 0.23838783E-01 0.93435373E+02</pdfrwt>
<pdfrwt beam="2">  1       -2 0.30588263E-02 0.93435373E+02</pdfrwt>
<totfact> 0.80297204E+04</totfact>
</mgrwt>
</event>
<event>
 6    1  0.1723639E-002  0.9238223E+02  0.7546771E-02  0.1374981E+00
          2   -1    0    0  501    0  0.00000000000E+00  0.00000000000E+00  0.55612642571E+02  0.55612642571E+02  0.00000000000E+00 0. -1.
         -2   -1    0    0    0  501 -0.00000000000E+00 -0.00000000000E+00 -0.65056984512E+02  0.65056984512E+02  0.00000000000E+00 0.  1.
         23    2    1    2    0    0  0.20239501680E+02 -0.12480910563E+02 -0.20211117035E+02  0.94567251661E+02  0.89269621250E+02 0.  0.
         13    1    3    3    0    0  0.42824601153E+02  0.23365051197E+02 -0.18471559511E+02  0.52163882065E+02  0.00000000000E+00 0.  1.
        -13    1    3    3    0    0 -0.22585099473E+02 -0.35845961759E+02 -0.17395575243E+01  0.42403369595E+02  0.00000000000E+00 0. -1.
         22    1    1    2    0    0 -0.20239501680E+02  0.12480910563E+02  0.10766775094E+02  0.26102375422E+02  0.00000000000E+00 0. -1.
<mgrwt>
<rscale>  0 0.65801654E+02</rscale>
<asrwt>0</asrwt>
<pdfrwt beam="1">  1        2 0.85557912E-02 0.92382227E+02</pdfrwt>
<pdfrwt beam="2">  1       -2 0.10008767E-01 0.92382227E+02</pdfrwt>
<totfact> 0.44737953E+04</totfact>
</mgrwt>
</event>
<event>
 6    1  0.1723639E-002  0.1203330E+03  0.7546771E-02  0.1265321E+00
          2   -1    0    0  501    0  0.00000000000E+00  0.00000000000E+00  0.22651307403E+03  0.22651307403E+03  0.00000000000E+00 0.  1.
         -2   -1    0    0    0  501 -0.00000000000E+00 -0.00000000000E+00 -0.65937462785E+02  0.65937462785E+02  0.00000000000E+00 0. -1.
         23    2    1    2    0    0 -0.58060698301E+02 -0.49917514467E+02  0.66313909619E+01  0.12051559012E+03  0.92829031974E+02 0.  0.
         13    1    3    3    0    0 -0.58008289277E+02 -0.47465373636E+02 -0.32221598808E+02  0.81585260611E+02  0.00000000000E+00 0. -1.
        -13    1    3    3    0    0 -0.52409024298E-01 -0.24521408304E+01  0.38852989770E+02  0.38930329505E+02  0.00000000000E+00 0.  1.
         22    1    1    2    0    0  0.58060698301E+02  0.49917514467E+02  0.15394422028E+03  0.17193494670E+03  0.00000000000E+00 0.  1.
<mgrwt>
<rscale>  0 0.10747358E+03</rscale>
<asrwt>0</asrwt>
<pdfrwt beam="1">  1        2 0.34848165E-01 0.12033301E+03</pdfrwt>
<pdfrwt beam="2">  1       -2 0.10144225E-01 0.12033301E+03</pdfrwt>
<totfact> 0.90304444E+03</totfact>
</mgrwt>
</event>
<event>
 6    1  0.1755138E-002  0.1203456E+03  0.7546771E-02  0.1358437E+00
         -2   -1    0    0    0  501 -0.00000000000E+00  0.00000000000E+00  0.63356123292E+02  0.63356123292E+02  0.00000000000E+00 0.  1.
          2   -1    0    0  501    0  0.00000000000E+00 -0.00000000000E+00 -0.74207655431E+02  0.74207655431E+02  0.00000000000E+00 0. -1.
         23    2    1    2    0    0  0.11434736511E+00 -0.14164066200E+02 -0.10704624679E+01  0.12035031973E+03  0.11950907799E+03 0.  0.
         11    1    3    3    0    0  0.30548072048E+02  0.38382554409E+02  0.24052939926E+02  0.54634687772E+02  0.00000000000E+00 0.  1.
        -11    1    3    3    0    0 -0.30433724682E+02 -0.52546620610E+02 -0.25123402394E+02  0.65715631956E+02  0.00000000000E+00 0. -1.
         22    1    1    2    0    0 -0.11434736511E+00  0.14164066200E+02 -0.97810696720E+01  0.17213458995E+02  0.00000000000E+00 0.  1.
<mgrwt>
<rscale>  0 0.70489280E+02</rscale>
<asrwt>0</asrwt>
<pdfrwt beam="1">  1        2 0.11416562E-01 0.12034556E+03</pdfrwt>
<pdfrwt beam="2">  1       -2 0.97470959E-02 0.12034556E+03</pdfrwt>
<totfact> 0.33921705E+04</totfact>
</mgrwt>
</event>
<event>
 6    1  0.1723639E-002  0.9887465E+02  0.7546771E-02  0.1397233E+00
         -2   -1    0    0    0  501 -0.00000000000E+00  0.00000000000E+00  0.38426910060E+03  0.38426910060E+03  0.00000000000E+00 0.  1.
          2   -1    0    0  501    0  0.00000000000E+00 -0.00000000000E+00 -0.13311566955E+02  0.13311566955E+02  0.00000000000E+00 0. -1.
         23    2    1    2    0    0  0.13535258072E+02 -0.10406069048E+00  0.37109811647E+03  0.38404427944E+03  0.97943772040E+02 0.  0.
         11    1    3    3    0    0  0.16652003852E+02  0.12795156004E+02  0.37014439629E+03  0.37073963823E+03  0.00000000000E+00 0.  1.
        -11    1    3    3    0    0 -0.31167457792E+01 -0.12899216695E+02  0.95372018407E+00  0.13304641212E+02  0.00000000000E+00 0. -1.
         22    1    1    2    0    0 -0.13535258072E+02  0.10406069048E+00 -0.14058282621E+00  0.13536388117E+02  0.00000000000E+00 0. -1.
<mgrwt>
<rscale>  0 0.60142789E+02</rscale>
<asrwt>0</asrwt>
<pdfrwt beam="1">  1        2 0.20479337E-02 0.98874651E+02</pdfrwt>
<pdfrwt beam="2">  1       -2 0.59118315E-01 0.98874651E+02</pdfrwt>
<totfact> 0.12986523E+04</totfact>
</mgrwt>
</event>
<event>
 6    1  0.1723639E-002  0.9132873E+02  0.7546771E-02  0.1424959E+00
         -2   -1    0    0    0  501 -0.00000000000E+00  0.00000000000E+00  0.51982758983E+01  0.51982758983E+01  0.00000000000E+00 0.  1.
          2   -1    0    0  501    0  0.00000000000E+00 -0.00000000000E+00 -0.50604203249E+03  0.50604203249E+03  0.00000000000E+00 0. -1.
         23    2    1    2    0    0  0.10210655525E+02 -0.44796815299E+01 -0.43897437862E+03  0.44837422084E+03  0.90645528281E+02 0.  0.
         11    1    3    3    0    0 -0.28782013504E+02  0.89063340720E+01 -0.59757619180E+02  0.66923091216E+02  0.00000000000E+00 0.  1.
        -11    1    3    3    0    0  0.38992669029E+02 -0.13386015602E+02 -0.37921675944E+03  0.38145112963E+03  0.00000000000E+00 0. -1.
         22    1    1    2    0    0 -0.10210655525E+02  0.44796815299E+01 -0.61869377973E+02  0.62866087549E+02  0.00000000000E+00 0.  1.
<mgrwt>
<rscale>  0 0.53985283E+02</rscale>
<asrwt>0</asrwt>
<pdfrwt beam="1">  1        2 0.77852592E-01 0.91328729E+02</pdfrwt>
<pdfrwt beam="2">  1       -2 0.79973504E-03 0.91328729E+02</pdfrwt>
<totfact> 0.15529021E+05</totfact>
</mgrwt>
</event>
<event>
 6    1  0.1723639E-002  0.9256485E+02  0.7546771E-02  0.1365066E+00
         -1   -1    0    0    0  501 -0.00000000000E+00  0.00000000000E+00  0.47909519654E+02  0.47909519654E+02  0.00000000000E+00 0.  1.
          1   -1    0    0  501    0  0.00000000000E+00 -0.00000000000E+00 -0.88959179052E+02  0.88959179052E+02  0.00000000000E+00 0. -1.
         23    2    1    2    0    0 -0.25130919046E+02 -0.12012808681E+02 -0.52881617672E+02  0.10660542226E+03  0.88274457822E+02 0.  0.
         13    1    3    3    0    0 -0.21698428055E+02  0.11825725406E+02 -0.71829199270E+02  0.75961196865E+02  0.00000000000E+00 0. -1.
        -13    1    3    3    0    0 -0.34324909908E+01 -0.23838534088E+02  0.18947581597E+02  0.30644225398E+02  0.00000000000E+00 0.  1.
         22    1    1    2    0    0  0.25130919046E+02  0.12012808681E+02  0.11831958274E+02  0.30263276443E+02  0.00000000000E+00 0.  1.
<mgrwt>
<rscale>  0 0.68558014E+02</rscale>
<asrwt>0</asrwt>
<pdfrwt beam="1">  1        1 0.13686027E-01 0.92564845E+02</pdfrwt>
<pdfrwt beam="2">  1       -1 0.73706954E-02 0.92564845E+02</pdfrwt>
<totfact> 0.35831021E+04</totfact>
</mgrwt>
</event>
<event>
 6    1  0.1723639E-002  0.8861152E+02  0.7546771E-02  0.1418468E+00
         -2   -1    0    0    0  501 -0.00000000000E+00  0.00000000000E+00  0.13793216725E+02  0.13793216725E+02  0.00000000000E+00 0.  1.
          2   -1    0    0  501    0  0.00000000000E+00 -0.00000000000E+00 -0.19161982203E+03  0.19161982203E+03  0.00000000000E+00 0. -1.
         23    2    1    2    0    0  0.84636954801E+01  0.10499427957E+02 -0.14511420796E+03  0.17002980730E+03  0.87579277730E+02 0.  0.
         13    1    3    3    0    0  0.32804026110E+02 -0.22959457104E+02 -0.10510631137E+03  0.11247478602E+03  0.00000000000E+00 0. -1.
        -13    1    3    3    0    0 -0.24340330629E+02  0.33458885061E+02 -0.40007896591E+02  0.57555021278E+02  0.00000000000E+00 0.  1.
         22    1    1    2    0    0 -0.84636954801E+01 -0.10499427957E+02 -0.32712397338E+02  0.35383231455E+02  0.00000000000E+00 0. -1.
<mgrwt>
<rscale>  0 0.55346278E+02</rscale>
<asrwt>0</asrwt>
<pdfrwt beam="1">  1        2 0.29479968E-01 0.88611523E+02</pdfrwt>
<pdfrwt beam="2">  1       -2 0.21220337E-02 0.88611523E+02</pdfrwt>
<totfact> 0.10741140E+05</totfact>
</mgrwt>
</event>
<event>
 6    1  0.1723639E-002  0.9450181E+02  0.7546771E-02  0.1367283E+00
          4   -1    0    0  501    0  0.00000000000E+00  0.00000000000E+00  0.23041865859E+02  0.23041865859E+02  0.00000000000E+00 0. -1.
         -4   -1    0    0    0  501 -0.00000000000E+00 -0.00000000000E+00 -0.18902254093E+03  0.18902254093E+03  0.00000000000E+00 0.  1.
         23    2    1    2    0    0  0.19085812137E+02 -0.16498118066E+02 -0.16048934795E+03  0.18624559973E+03  0.91072149899E+02 0.  0.
         13    1    3    3    0    0  0.18276928431E+02 -0.40655351595E+02 -0.30458305971E+02  0.53987147811E+02  0.00000000000E+00 0. -1.
        -13    1    3    3    0    0  0.80888370601E+00  0.24157233529E+02 -0.13003104198E+03  0.13225845192E+03  0.00000000000E+00 0.  1.
         22    1    1    2    0    0 -0.19085812137E+02  0.16498118066E+02 -0.54913271207E+01  0.25818807064E+02  0.00000000000E+00 0.  1.
<mgrwt>
<rscale>  0 0.67928365E+02</rscale>
<asrwt>0</asrwt>
<pdfrwt beam="1">  1        4 0.35449024E-02 0.94501813E+02</pdfrwt>
<pdfrwt beam="2">  1       -4 0.29080391E-01 0.94501813E+02</pdfrwt>
<totfact> 0.69125961E+03</totfact>
</mgrwt>
</event>
<event>
 6    1  0.1723639E-002  0.9176070E+02  0.7546771E-02  0.1430398E+00
          2   -1    0    0  501    0  0.00000000000E+00  0.00000000000E+00  0.11297722841E+03  0.11297722841E+03  0.00000000000E+00 0. -1.
         -2   -1    0    0    0  501 -0.00000000000E+00 -0.00000000000E+00 -0.23486551406E+02  0.23486551406E+02  0.00000000000E+00 0.  1.
         23    2    1    2    0    0  0.63776794786E+01  0.78580441304E+01  0.85990104359E+02  0.12575501416E+03  0.91200887521E+02 0.  0.
         11    1    3    3    0    0 -0.12042052682E+02 -0.27204668928E+02 -0.14260693471E+01  0.29784873981E+02  0.00000000000E+00 0.  1.
        -11    1    3    3    0    0  0.18419732160E+02  0.35062713058E+02  0.87416173706E+02  0.95970140176E+02  0.00000000000E+00 0. -1.
         22    1    1    2    0    0 -0.63776794786E+01 -0.78580441304E+01  0.35005726431E+01  0.10708765658E+02  0.00000000000E+00 0. -1.
<mgrwt>
<rscale>  0 0.52880136E+02</rscale>
<asrwt>0</asrwt>
<pdfrwt beam="1">  1        2 0.17381112E-01 0.91760697E+02</pdfrwt>
<pdfrwt beam="2">  1       -2 0.36133157E-02 0.91760697E+02</pdfrwt>
<totfact> 0.89317451E+04</totfact>
</mgrwt>
</event>
<event>
 6    1  0.1723639E-002  0.9451309E+02  0.7546771E-02  0.1391601E+00
         -4   -1    0    0    0  501 -0.00000000000E+00  0.00000000000E+00  0.45241250067E+02  0.45241250067E+02  0.00000000000E+00 0.  1.
          4   -1    0    0  501    0  0.00000000000E+00 -0.00000000000E+00 -0.70420774462E+02  0.70420774462E+02  0.00000000000E+00 0. -1.
         23    2    1    2    0    0  0.26240681394E+01  0.16751454974E+02 -0.14488383153E+02  0.95617137938E+02  0.92979712001E+02 0.  0.
         13    1    3    3    0    0  0.39730209937E+02  0.35168501781E+02 -0.92964108983E+01  0.53867767308E+02  0.00000000000E+00 0. -1.
        -13    1    3    3    0    0 -0.37106141797E+02 -0.18417046807E+02 -0.51919722543E+01  0.41749370631E+02  0.00000000000E+00 0.  1.
         22    1    1    2    0    0 -0.26240681394E+01 -0.16751454974E+02 -0.10691141243E+02  0.20044886591E+02  0.00000000000E+00 0. -1.
<mgrwt>
<rscale>  0 0.61510340E+02</rscale>
<asrwt>0</asrwt>
<pdfrwt beam="1">  1        4 0.10833965E-01 0.94513088E+02</pdfrwt>
<pdfrwt beam="2">  1       -4 0.69601923E-02 0.94513088E+02</pdfrwt>
<totfact> 0.13474887E+04</totfact>
</mgrwt>
</event>
<event>
 6    1  0.1723639E-002  0.9039723E+02  0.7546771E-02  0.1426569E+00
          1   -1    0    0  501    0  0.00000000000E+00  0.00000000000E+00  0.39526526196E+02  0.39526526196E+02  0.00000000000E+00 0. -1.
         -1   -1    0    0    0  501 -0.00000000000E+00 -0.00000000000E+00 -0.68404171019E+02  0.68404171019E+02  0.00000000000E+00 0.  1.
         23    2    1    2    0    0  0.10736742842E+02  0.32554760092E+01 -0.32621369526E+02  0.96103134256E+02  0.89698288129E+02 0.  0.
         11    1    3    3    0    0 -0.22746351143E+02  0.14074822575E+02  0.19580175108E+02  0.33149364671E+02  0.00000000000E+00 0. -1.
        -11    1    3    3    0    0  0.33483093985E+02 -0.10819346566E+02 -0.52201544633E+02  0.62953769585E+02  0.00000000000E+00 0.  1.
         22    1    1    2    0    0 -0.10736742842E+02 -0.32554760092E+01  0.37437247025E+01  0.11827562959E+02  0.00000000000E+00 0. -1.
<mgrwt>
<rscale>  0 0.53654864E+02</rscale>
<asrwt>0</asrwt>
<pdfrwt beam="1">  1        1 0.60810040E-02 0.90397227E+02</pdfrwt>
<pdfrwt beam="2">  1       -1 0.10523719E-01 0.90397227E+02</pdfrwt>
<totfact> 0.60854749E+04</totfact>
</mgrwt>
</event>
<event>
 6    1  0.1723639E-002  0.9188285E+02  0.7546771E-02  0.1423646E+00
         -2   -1    0    0    0  501 -0.00000000000E+00  0.00000000000E+00  0.19872709138E+02  0.19872709138E+02  0.00000000000E+00 0.  1.
          2   -1    0    0  501    0  0.00000000000E+00 -0.00000000000E+00 -0.13415612763E+03  0.13415612763E+03  0.00000000000E+00 0. -1.
         23    2    1    2    0    0 -0.10725837227E+02 -0.31246289337E+01 -0.98626072040E+02  0.13479450839E+03  0.91201154138E+02 0.  0.
         13    1    3    3    0    0 -0.25219249598E+02  0.27220421063E+02 -0.77666542416E+01  0.37911512648E+02  0.00000000000E+00 0.  1.
        -13    1    3    3    0    0  0.14493412371E+02 -0.30345049997E+02 -0.90859417798E+02  0.96882995743E+02  0.00000000000E+00 0. -1.
         22    1    1    2    0    0  0.10725837227E+02  0.31246289337E+01 -0.15657346449E+02  0.19234328375E+02  0.00000000000E+00 0. -1.
<mgrwt>
<rscale>  0 0.54256984E+02</rscale>
<asrwt>0</asrwt>
<pdfrwt beam="1">  1        2 0.20639405E-01 0.91882846E+02</pdfrwt>
<pdfrwt beam="2">  1       -2 0.30573398E-02 0.91882846E+02</pdfrwt>
<totfact> 0.93981610E+04</totfact>
</mgrwt>
</event>
<event>
 6    1  0.1723639E-002  0.9236974E+02  0.7546771E-02  0.1422800E+00
          4   -1    0    0  501    0  0.00000000000E+00  0.00000000000E+00  0.27904963299E+02  0.27904963299E+02  0.00000000000E+00 0. -1.
         -4   -1    0    0    0  501 -0.00000000000E+00 -0.00000000000E+00 -0.11137985853E+03  0.11137985853E+03  0.00000000000E+00 0.  1.
         23    2    1    2    0    0 -0.82902199476E+01 -0.74401852649E+01 -0.87699816932E+02  0.12737121336E+03  0.91695605120E+02 0.  0.
         13    1    3    3    0    0 -0.40122403579E+02 -0.23733974542E+02 -0.19834348378E+02  0.50660736198E+02  0.00000000000E+00 0. -1.
        -13    1    3    3    0    0  0.31832183632E+02  0.16293789277E+02 -0.67865468555E+02  0.76710477159E+02  0.00000000000E+00 0.  1.
         22    1    1    2    0    0  0.82902199476E+01  0.74401852649E+01  0.42249216985E+01  0.11913608476E+02  0.00000000000E+00 0.  1.
<mgrwt>
<rscale>  0 0.54432940E+02</rscale>
<asrwt>0</asrwt>
<pdfrwt beam="1">  1        4 0.42930713E-02 0.92369736E+02</pdfrwt>
<pdfrwt beam="2">  1       -4 0.17135363E-01 0.92369736E+02</pdfrwt>
<totfact> 0.13219135E+04</totfact>
</mgrwt>
</event>
<event>
 6    1  0.1723639E-002  0.9268309E+02  0.7546771E-02  0.1408211E+00
          1   -1    0    0  501    0  0.00000000000E+00  0.00000000000E+00  0.24834030066E+02  0.24834030066E+02  0.00000000000E+00 0. -1.
         -1   -1    0    0    0  501 -0.00000000000E+00 -0.00000000000E+00 -0.20840828326E+03  0.20840828326E+03  0.00000000000E+00 0.  1.
         23    2    1    2    0    0 -0.14223715470E+01  0.13747477487E+02 -0.19461182677E+03  0.21555490797E+03  0.91646816377E+02 0.  0.
         11    1    3    3    0    0 -0.90659908768E+01  0.51570880726E+02 -0.90979846828E+02  0.10497180792E+03  0.00000000000E+00 0. -1.
        -11    1    3    3    0    0  0.76436193298E+01 -0.37823403240E+02 -0.10363197994E+03  0.11058310005E+03  0.00000000000E+00 0.  1.
         22    1    1    2    0    0  0.14223715470E+01 -0.13747477487E+02  0.11037573573E+02  0.17687405362E+02  0.00000000000E+00 0. -1.
<mgrwt>
<rscale>  0 0.57594920E+02</rscale>
<asrwt>0</asrwt>
<pdfrwt beam="1">  1        1 0.38206200E-02 0.92683090E+02</pdfrwt>
<pdfrwt beam="2">  1       -1 0.32062813E-01 0.92683090E+02</pdfrwt>
<totfact> 0.19626032E+04</totfact>
</mgrwt>
</event>
<event>
 6    1  0.1723639E-002  0.1053632E+03  0.7546771E-02  0.1393792E+00
          1   -1    0    0  501    0  0.00000000000E+00  0.00000000000E+00  0.77522395815E+02  0.77522395815E+02  0.00000000000E+00 0.  1.
         -1   -1    0    0    0  501 -0.00000000000E+00 -0.00000000000E+00 -0.45022934435E+02  0.45022934435E+02  0.00000000000E+00 0. -1.
         23    2    1    2    0    0 -0.11638312398E+02  0.20451485072E+01  0.33813167409E+02  0.11065589076E+03  0.10469843801E+03 0.  0.
         13    1    3    3    0    0  0.31545450026E+01  0.52562954308E+02  0.14943963843E+02  0.54736983614E+02  0.00000000000E+00 0.  1.
        -13    1    3    3    0    0 -0.14792857400E+02 -0.50517805801E+02  0.18869203567E+02  0.55918907145E+02  0.00000000000E+00 0. -1.
         22    1    1    2    0    0  0.11638312398E+02 -0.20451485072E+01 -0.13137060295E+01  0.11889439491E+02  0.00000000000E+00 0. -1.
<mgrwt>
<rscale>  0 0.60973354E+02</rscale>
<asrwt>0</asrwt>
<pdfrwt beam="1">  1        1 0.11926522E-01 0.10536316E+03</pdfrwt>
<pdfrwt beam="2">  1       -1 0.69266053E-02 0.10536316E+03</pdfrwt>
<totfact> 0.47769298E+04</totfact>
</mgrwt>
</event>
<event>
 6    1  0.1723639E-002  0.8599555E+02  0.7546771E-02  0.1431292E+00
          1   -1    0    0  501    0  0.00000000000E+00  0.00000000000E+00  0.41704083327E+02  0.41704083327E+02  0.00000000000E+00 0. -1.
         -1   -1    0    0    0  501 -0.00000000000E+00 -0.00000000000E+00 -0.58328959756E+02  0.58328959756E+02  0.00000000000E+00 0.  1.
         23    2    1    2    0    0 -0.11207721093E+02  0.46394632509E+01 -0.17891669274E+02  0.87837043925E+02  0.85135755266E+02 0.  0.
         13    1    3    3    0    0  0.12290177136E+02  0.23174336176E+02  0.24534533468E+02  0.35917149716E+02  0.00000000000E+00 0. -1.
        -13    1    3    3    0    0 -0.23497898229E+02 -0.18534872925E+02 -0.42426202743E+02  0.51919894209E+02  0.00000000000E+00 0.  1.
         22    1    1    2    0    0  0.11207721093E+02 -0.46394632509E+01  0.12667928455E+01  0.12195999158E+02  0.00000000000E+00 0. -1.
<mgrwt>
<rscale>  0 0.52701436E+02</rscale>
<asrwt>0</asrwt>
<pdfrwt beam="1">  1        1 0.64160129E-02 0.85995549E+02</pdfrwt>
<pdfrwt beam="2">  1       -1 0.89736861E-02 0.85995549E+02</pdfrwt>
<totfact> 0.71450982E+04</totfact>
</mgrwt>
</event>
<event>
 6    1  0.1723639E-002  0.9662345E+02  0.7546771E-02  0.1346932E+00
         -2   -1    0    0    0  501 -0.00000000000E+00  0.00000000000E+00  0.14658579766E+03  0.14658579766E+03  0.00000000000E+00 0.  1.
          2   -1    0    0  501    0  0.00000000000E+00 -0.00000000000E+00 -0.29504675284E+02  0.29504675284E+02  0.00000000000E+00 0. -1.
         23    2    1    2    0    0 -0.11572476686E+02  0.31200654356E+02  0.98487560826E+02  0.13797061487E+03  0.90712115399E+02 0.  0.
         11    1    3    3    0    0 -0.31787242190E+02  0.47119857847E+02  0.96713091478E+02  0.11217901690E+03  0.00000000000E+00 0.  1.
        -11    1    3    3    0    0  0.20214765504E+02 -0.15919203491E+02  0.17744693484E+01  0.25791597966E+02  0.00000000000E+00 0. -1.
         22    1    1    2    0    0  0.11572476686E+02 -0.31200654356E+02  0.18593561552E+02  0.38119858081E+02  0.00000000000E+00 0. -1.
<mgrwt>
<rscale>  0 0.74020177E+02</rscale>
<asrwt>0</asrwt>
<pdfrwt beam="1">  1        2 0.45391809E-02 0.96623449E+02</pdfrwt>
<pdfrwt beam="2">  1       -2 0.22551661E-01 0.96623449E+02</pdfrwt>
<totfact> 0.26894542E+04</totfact>
</mgrwt>
</event>
<event>
 6    1  0.1723639E-002  0.1004064E+03  0.7546771E-02  0.1322337E+00
          2   -1    0    0  501    0  0.00000000000E+00  0.00000000000E+00  0.17945102667E+03  0.17945102667E+03  0.00000000000E+00 0. -1.
         -2   -1    0    0    0  501 -0.00000000000E+00 -0.00000000000E+00 -0.32066877402E+02  0.32066877402E+02  0.00000000000E+00 0.  1.
         23    2    1    2    0    0  0.15690877010E+02  0.42787831184E+02  0.72461456561E+02  0.12382290991E+03  0.89467581907E+02 0.  0.
         13    1    3    3    0    0  0.14829947903E+02 -0.94752941091E+01 -0.14203524219E+02  0.22615230565E+02  0.00000000000E+00 0.  1.
        -13    1    3    3    0    0  0.86092910706E+00  0.52263125293E+02  0.86664980780E+02  0.10120767934E+03  0.00000000000E+00 0. -1.
         22    1    1    2    0    0 -0.15690877010E+02 -0.42787831184E+02  0.74922692705E+02  0.87694994161E+02  0.00000000000E+00 0. -1.
<mgrwt>
<rscale>  0 0.82413953E+02</rscale>
<asrwt>0</asrwt>
<pdfrwt beam="1">  1        2 0.27607850E-01 0.10040643E+03</pdfrwt>
<pdfrwt beam="2">  1       -2 0.49333659E-02 0.10040643E+03</pdfrwt>
<totfact> 0.34195906E+04</totfact>
</mgrwt>
</event>
<event>
 6    1  0.1723639E-002  0.1420880E+03  0.7546771E-02  0.1240625E+00
         -4   -1    0    0    0  501 -0.00000000000E+00  0.00000000000E+00  0.35760602712E+02  0.35760602712E+02  0.00000000000E+00 0. -1.
          4   -1    0    0  501    0  0.00000000000E+00 -0.00000000000E+00 -0.60240620090E+03  0.60240620090E+03  0.00000000000E+00 0.  1.
         23    2    1    2    0    0 -0.19191728756E+02  0.73532947382E+02 -0.12261305505E+03  0.18767782909E+03  0.12005660939E+03 0.  0.
         11    1    3    3    0    0 -0.52658358208E+02  0.44444514631E+02 -0.13935220557E+02  0.70302261286E+02  0.00000000000E+00 0. -1.
        -11    1    3    3    0    0  0.33466629452E+02  0.29088432751E+02 -0.10867783450E+03  0.11737556781E+03  0.00000000000E+00 0.  1.
         22    1    1    2    0    0  0.19191728756E+02 -0.73532947382E+02 -0.44403254313E+03  0.45048897452E+03  0.00000000000E+00 0.  1.
<mgrwt>
<rscale>  0 0.12151112E+03</rscale>
<asrwt>0</asrwt>
<pdfrwt beam="1">  1        4 0.92677875E-01 0.14208802E+03</pdfrwt>
<pdfrwt beam="2">  1       -4 0.55016313E-02 0.14208802E+03</pdfrwt>
<totfact> 0.35020684E+02</totfact>
</mgrwt>
</event>
<event>
 6    1  0.1723639E-002  0.9403383E+02  0.7546771E-02  0.1384227E+00
          2   -1    0    0  501    0  0.00000000000E+00  0.00000000000E+00  0.36608530006E+03  0.36608530006E+03  0.00000000000E+00 0. -1.
         -2   -1    0    0    0  501 -0.00000000000E+00 -0.00000000000E+00 -0.91871490572E+01  0.91871490572E+01  0.00000000000E+00 0.  1.
         23    2    1    2    0    0 -0.12199466175E+02  0.15070541671E+02  0.26071941734E+03  0.27715875481E+03  0.92013110966E+02 0.  0.
         11    1    3    3    0    0 -0.61525181637E+01 -0.33891965317E+02  0.49837521292E+02  0.60582978809E+02  0.00000000000E+00 0. -1.
        -11    1    3    3    0    0 -0.60469480108E+01  0.48962506988E+02  0.21088189604E+03  0.21657577600E+03  0.00000000000E+00 0.  1.
         22    1    1    2    0    0  0.12199466175E+02 -0.15070541671E+02  0.96178733663E+02  0.98113694305E+02  0.00000000000E+00 0. -1.
<mgrwt>
<rscale>  0 0.63365678E+02</rscale>
<asrwt>0</asrwt>
<pdfrwt beam="1">  1        2 0.56320804E-01 0.94033828E+02</pdfrwt>
<pdfrwt beam="2">  1       -2 0.14134078E-02 0.94033828E+02</pdfrwt>
<totfact> 0.98119344E+04</totfact>
</mgrwt>
</event>
<event>
 6    1  0.1723639E-002  0.9238106E+02  0.7546771E-02  0.1415345E+00
          4   -1    0    0  501    0  0.00000000000E+00  0.00000000000E+00  0.41301941256E+02  0.41301941256E+02  0.00000000000E+00 0. -1.
         -4   -1    0    0    0  501 -0.00000000000E+00 -0.00000000000E+00 -0.71865970990E+02  0.71865970990E+02  0.00000000000E+00 0.  1.
         23    2    1    2    0    0  0.12386321538E+02  0.16063524414E+01 -0.36510985409E+02  0.99334343970E+02  0.91532827483E+02 0.  0.
         11    1    3    3    0    0  0.19679382427E+02  0.81601830581E+01  0.27381915566E+02  0.34693457313E+02  0.00000000000E+00 0. -1.
        -11    1    3    3    0    0 -0.72930608893E+01 -0.65538306167E+01 -0.63892900975E+02  0.64640886658E+02  0.00000000000E+00 0.  1.
         22    1    1    2    0    0 -0.12386321538E+02 -0.16063524414E+01  0.59469556753E+01  0.13833568275E+02  0.00000000000E+00 0.  1.
<mgrwt>
<rscale>  0 0.56018082E+02</rscale>
<asrwt>0</asrwt>
<pdfrwt beam="1">  1        4 0.63541449E-02 0.92381058E+02</pdfrwt>
<pdfrwt beam="2">  1       -4 0.11056303E-01 0.92381058E+02</pdfrwt>
<totfact> 0.14993281E+04</totfact>
</mgrwt>
</event>
<event>
 6    1  0.1723639E-002  0.9707872E+02  0.7546771E-02  0.1395550E+00
         -2   -1    0    0    0  501 -0.00000000000E+00  0.00000000000E+00  0.34510202266E+03  0.34510202266E+03  0.00000000000E+00 0.  1.
          2   -1    0    0  501    0  0.00000000000E+00 -0.00000000000E+00 -0.10117893368E+02  0.10117893368E+02  0.00000000000E+00 0. -1.
         23    2    1    2    0    0 -0.14503275141E+02  0.23301689882E+01  0.31929815501E+03  0.33372981443E+03  0.95960942950E+02 0.  0.
         11    1    3    3    0    0 -0.41020186225E+02 -0.11135772707E+02  0.64778345733E+02  0.77478353026E+02  0.00000000000E+00 0. -1.
        -11    1    3    3    0    0  0.26516911084E+02  0.13465941695E+02  0.25451980928E+03  0.25625146141E+03  0.00000000000E+00 0.  1.
         22    1    1    2    0    0  0.14503275141E+02 -0.23301689882E+01  0.15685974282E+02  0.21490101594E+02  0.00000000000E+00 0.  1.
<mgrwt>
<rscale>  0 0.60547063E+02</rscale>
<asrwt>0</asrwt>
<pdfrwt beam="1">  1        2 0.15565992E-02 0.97078717E+02</pdfrwt>
<pdfrwt beam="2">  1       -2 0.53092610E-01 0.97078717E+02</pdfrwt>
<totfact> 0.23331972E+04</totfact>
</mgrwt>
</event>
<event>
 6    1  0.1723639E-002  0.1141706E+03  0.7546771E-02  0.1277848E+00
          2   -1    0    0  501    0  0.00000000000E+00  0.00000000000E+00  0.23744224222E+02  0.23744224222E+02  0.00000000000E+00 0. -1.
         -2   -1    0    0    0  501 -0.00000000000E+00 -0.00000000000E+00 -0.44474138679E+03  0.44474138679E+03  0.00000000000E+00 0.  1.
         23    2    1    2    0    0 -0.46273160821E+00  0.70402974176E+02 -0.15008603560E+03  0.18857556902E+03  0.89878441547E+02 0.  0.
         13    1    3    3    0    0  0.38355489403E+01  0.91240166101E+02 -0.13276889493E+03  0.16114297628E+03  0.00000000000E+00 0.  1.
        -13    1    3    3    0    0 -0.42982805485E+01 -0.20837191924E+02 -0.17317140671E+02  0.27432592731E+02  0.00000000000E+00 0. -1.
         22    1    1    2    0    0  0.46273160821E+00 -0.70402974176E+02 -0.27091112697E+03  0.27991004199E+03  0.00000000000E+00 0. -1.
<mgrwt>
<rscale>  0 0.10117328E+03</rscale>
<asrwt>0</asrwt>
<pdfrwt beam="1">  1        2 0.36529577E-02 0.11417061E+03</pdfrwt>
<pdfrwt beam="2">  1       -2 0.68421750E-01 0.11417061E+03</pdfrwt>
<totfact> 0.44874198E+03</totfact>
</mgrwt>
</event>
<event>
 6    1  0.1723639E-002  0.9968642E+02  0.7546771E-02  0.1330964E+00
         -2   -1    0    0    0  501 -0.00000000000E+00  0.00000000000E+00  0.51078331899E+02  0.51078331899E+02  0.00000000000E+00 0.  1.
          2   -1    0    0  501    0  0.00000000000E+00 -0.00000000000E+00 -0.11572520303E+03  0.11572520303E+03  0.00000000000E+00 0. -1.
         23    2    1    2    0    0 -0.25723558089E+02  0.30604843924E+02 -0.11572038529E+02  0.10035584296E+03  0.91318263388E+02 0.  0.
         13    1    3    3    0    0 -0.30233385187E+02  0.36817048236E+02  0.31169385541E+02  0.56930512168E+02  0.00000000000E+00 0.  1.
        -13    1    3    3    0    0  0.45098270972E+01 -0.62122043121E+01 -0.42741424070E+02  0.43425330792E+02  0.00000000000E+00 0. -1.
         22    1    1    2    0    0  0.25723558089E+02 -0.30604843924E+02 -0.53074832606E+02  0.66447691974E+02  0.00000000000E+00 0. -1.
<mgrwt>
<rscale>  0 0.79329783E+02</rscale>
<asrwt>0</asrwt>
<pdfrwt beam="1">  1        2 0.17803877E-01 0.99686424E+02</pdfrwt>
<pdfrwt beam="2">  1       -2 0.78582050E-02 0.99686424E+02</pdfrwt>
<totfact> 0.27523834E+04</totfact>
</mgrwt>
</event>
<event>
 6    1  0.1723639E-002  0.9368100E+02  0.7546771E-02  0.1383719E+00
          2   -1    0    0  501    0  0.00000000000E+00  0.00000000000E+00  0.64590982947E+02  0.64590982947E+02  0.00000000000E+00 0. -1.
         -2   -1    0    0    0  501 -0.00000000000E+00 -0.00000000000E+00 -0.59634670697E+02  0.59634670697E+02  0.00000000000E+00 0.  1.
         23    2    1    2    0    0 -0.17215032916E+01  0.19696193122E+02 -0.16418520622E+02  0.95108870213E+02  0.91570878431E+02 0.  0.
         11    1    3    3    0    0  0.15814279613E+02 -0.11680351633E+01  0.34156277142E+02  0.37657761670E+02  0.00000000000E+00 0. -1.
        -11    1    3    3    0    0 -0.17535782904E+02  0.20864228286E+02 -0.50574797763E+02  0.57451108543E+02  0.00000000000E+00 0.  1.
         22    1    1    2    0    0  0.17215032916E+01 -0.19696193122E+02  0.21374832872E+02  0.29116783431E+02  0.00000000000E+00 0. -1.
<mgrwt>
<rscale>  0 0.63496142E+02</rscale>
<asrwt>0</asrwt>
<pdfrwt beam="1">  1        2 0.99370742E-02 0.93680998E+02</pdfrwt>
<pdfrwt beam="2">  1       -2 0.91745648E-02 0.93680998E+02</pdfrwt>
<totfact> 0.42715929E+04</totfact>
</mgrwt>
</event>
<event>
 6    1  0.1723639E-002  0.9422012E+02  0.7546771E-02  0.1407722E+00
         -1   -1    0    0    0  501 -0.00000000000E+00  0.00000000000E+00  0.23431595428E+03  0.23431595428E+03  0.00000000000E+00 0.  1.
          1   -1    0    0  501    0  0.00000000000E+00 -0.00000000000E+00 -0.12581695883E+02  0.12581695883E+02  0.00000000000E+00 0. -1.
         23    2    1    2    0    0  0.10258275265E+02  0.83967511443E+01  0.18091291782E+03  0.20397773069E+03  0.93282866281E+02 0.  0.
         13    1    3    3    0    0  0.39199361361E+02  0.36455311028E+02  0.11215089438E+03  0.12427148806E+03  0.00000000000E+00 0.  1.
        -13    1    3    3    0    0 -0.28941086096E+02 -0.28058559883E+02  0.68762023438E+02  0.79706242632E+02  0.00000000000E+00 0. -1.
         22    1    1    2    0    0 -0.10258275265E+02 -0.83967511443E+01  0.40821340579E+02  0.42919919476E+02  0.00000000000E+00 0. -1.
<mgrwt>
<rscale>  0 0.57705317E+02</rscale>
<asrwt>0</asrwt>
<pdfrwt beam="1">  1        1 0.19356457E-02 0.94220119E+02</pdfrwt>
<pdfrwt beam="2">  1       -1 0.36048605E-01 0.94220119E+02</pdfrwt>
<totfact> 0.41011558E+04</totfact>
</mgrwt>
</event>
<event>
 6    1  0.1723639E-002  0.9049904E+02  0.7546771E-02  0.1431643E+00
         -4   -1    0    0    0  501 -0.00000000000E+00  0.00000000000E+00  0.19552599125E+03  0.19552599125E+03  0.00000000000E+00 0.  1.
          4   -1    0    0  501    0  0.00000000000E+00 -0.00000000000E+00 -0.14490151374E+02  0.14490151374E+02  0.00000000000E+00 0. -1.
         23    2    1    2    0    0 -0.75089817531E+01  0.71269500189E+01  0.17720649105E+03  0.19897793009E+03  0.89904938505E+02 0.  0.
         13    1    3    3    0    0 -0.80286631012E+01 -0.32551063070E+02  0.14208238996E+03  0.14598437134E+03  0.00000000000E+00 0.  1.
        -13    1    3    3    0    0  0.51968134807E+00  0.39678013089E+02  0.35124101089E+02  0.52993558747E+02  0.00000000000E+00 0. -1.
         22    1    1    2    0    0  0.75089817531E+01 -0.71269500189E+01  0.38293488218E+01  0.11038212534E+02  0.00000000000E+00 0. -1.
<mgrwt>
<rscale>  0 0.52631567E+02</rscale>
<asrwt>0</asrwt>
<pdfrwt beam="1">  1        4 0.22292542E-02 0.90499040E+02</pdfrwt>
<pdfrwt beam="2">  1       -4 0.30080920E-01 0.90499040E+02</pdfrwt>
<totfact> 0.13144520E+04</totfact>
</mgrwt>
</event>
<event>
 6    1  0.1723639E-002  0.9172146E+02  0.7546771E-02  0.1424733E+00
         -1   -1    0    0    0  501 -0.00000000000E+00  0.00000000000E+00  0.31698309504E+03  0.31698309504E+03  0.00000000000E+00 0.  1.
          1   -1    0    0  501    0  0.00000000000E+00 -0.00000000000E+00 -0.12754398160E+02  0.12754398160E+02  0.00000000000E+00 0. -1.
         23    2    1    2    0    0 -0.64165396222E+01 -0.89907955972E+01  0.30516611396E+03  0.31865213632E+03  0.91053942754E+02 0.  0.
         13    1    3    3    0    0  0.58825620712E+01 -0.19189534516E+02  0.30161838034E+03  0.30228544479E+03  0.00000000000E+00 0.  1.
        -13    1    3    3    0    0 -0.12299101693E+02  0.10198738919E+02  0.35477336138E+01  0.16366691535E+02  0.00000000000E+00 0. -1.
         22    1    1    2    0    0  0.64165396222E+01  0.89907955972E+01 -0.93741707935E+00  0.11085356872E+02  0.00000000000E+00 0. -1.
<mgrwt>
<rscale>  0 0.54032001E+02</rscale>
<asrwt>0</asrwt>
<pdfrwt beam="1">  1        1 0.19622153E-02 0.91721464E+02</pdfrwt>
<pdfrwt beam="2">  1       -1 0.48766624E-01 0.91721464E+02</pdfrwt>
<totfact> 0.23630554E+04</totfact>
</mgrwt>
</event>
<event>
 6    1  0.1723639E-002  0.9589682E+02  0.7546771E-02  0.1370935E+00
          2   -1    0    0  501    0  0.00000000000E+00  0.00000000000E+00  0.17815495350E+03  0.17815495350E+03  0.00000000000E+00 0. -1.
         -2   -1    0    0    0  501 -0.00000000000E+00 -0.00000000000E+00 -0.20250035951E+02  0.20250035951E+02  0.00000000000E+00 0.  1.
         23    2    1    2    0    0 -0.20419089896E+02  0.99732814592E+01  0.11402268216E+03  0.14898782484E+03  0.93165413803E+02 0.  0.
         13    1    3    3    0    0 -0.10024548369E+02 -0.31482262985E+02  0.97873349941E+02  0.10329964705E+03  0.00000000000E+00 0. -1.
        -13    1    3    3    0    0 -0.10394541527E+02  0.41455544444E+02  0.16149332223E+02  0.45688177792E+02  0.00000000000E+00 0.  1.
         22    1    1    2    0    0  0.20419089896E+02 -0.99732814592E+01  0.43882235384E+02  0.49417164605E+02  0.00000000000E+00 0. -1.
<mgrwt>
<rscale>  0 0.66907841E+02</rscale>
<asrwt>0</asrwt>
<pdfrwt beam="1">  1        2 0.27408453E-01 0.95896819E+02</pdfrwt>
<pdfrwt beam="2">  1       -2 0.31153903E-02 0.95896819E+02</pdfrwt>
<totfact> 0.67415222E+04</totfact>
</mgrwt>
</event>
<event>
 6    1  0.1723639E-002  0.1028387E+03  0.7546771E-02  0.1304398E+00
          2   -1    0    0  501    0  0.00000000000E+00  0.00000000000E+00  0.53411462273E+03  0.53411462273E+03  0.00000000000E+00 0. -1.
         -2   -1    0    0    0  501 -0.00000000000E+00 -0.00000000000E+00 -0.12319161834E+02  0.12319161834E+02  0.00000000000E+00 0.  1.
         23    2    1    2    0    0 -0.74083318129E+01  0.58169416949E+02  0.35697143638E+03  0.37148944054E+03  0.84482149548E+02 0.  0.
         13    1    3    3    0    0 -0.19046170536E+02  0.75215912875E+02  0.31867820080E+03  0.32798778305E+03  0.00000000000E+00 0.  1.
        -13    1    3    3    0    0  0.11637838723E+02 -0.17046495927E+02  0.38293235581E+02  0.43501657495E+02  0.00000000000E+00 0. -1.
         22    1    1    2    0    0  0.74083318129E+01 -0.58169416949E+02  0.16482402451E+03  0.17494434402E+03  0.00000000000E+00 0. -1.
<mgrwt>
<rscale>  0 0.89364407E+02</rscale>
<asrwt>0</asrwt>
<pdfrwt beam="1">  1        2 0.82171463E-01 0.10283870E+03</pdfrwt>
<pdfrwt beam="2">  1       -2 0.18952561E-02 0.10283870E+03</pdfrwt>
<totfact> 0.43550064E+04</totfact>
</mgrwt>
</event>
<event>
 6    1  0.1723639E-002  0.9175737E+02  0.7546771E-02  0.1422816E+00
          2   -1    0    0  501    0  0.00000000000E+00  0.00000000000E+00  0.16579168584E+02  0.16579168584E+02  0.00000000000E+00 0. -1.
         -2   -1    0    0    0  501 -0.00000000000E+00 -0.00000000000E+00 -0.27510942954E+03  0.27510942954E+03  0.00000000000E+00 0.  1.
         23    2    1    2    0    0 -0.89128180402E+01 -0.70450975677E+01 -0.26369904111E+03  0.27920709126E+03  0.91051325112E+02 0.  0.
         11    1    3    3    0    0  0.10725216207E+02 -0.43395107357E+02 -0.87837599488E+02  0.98557645513E+02  0.00000000000E+00 0. -1.
        -11    1    3    3    0    0 -0.19638034247E+02  0.36350009790E+02 -0.17586144162E+03  0.18064944575E+03  0.00000000000E+00 0.  1.
         22    1    1    2    0    0  0.89128180402E+01  0.70450975677E+01  0.51687801559E+01  0.12481506858E+02  0.00000000000E+00 0. -1.
<mgrwt>
<rscale>  0 0.54429534E+02</rscale>
<asrwt>0</asrwt>
<pdfrwt beam="1">  1        2 0.25506413E-02 0.91757373E+02</pdfrwt>
<pdfrwt beam="2">  1       -2 0.42324528E-01 0.91757373E+02</pdfrwt>
<totfact> 0.18471059E+04</totfact>
</mgrwt>
</event>
<event>
 6    1  0.1723639E-002  0.9610184E+02  0.7546771E-02  0.1373350E+00
          3   -1    0    0  501    0  0.00000000000E+00  0.00000000000E+00  0.76797120746E+02  0.76797120746E+02  0.00000000000E+00 0. -1.
         -3   -1    0    0    0  501 -0.00000000000E+00 -0.00000000000E+00 -0.57879007342E+02  0.57879007342E+02  0.00000000000E+00 0.  1.
         23    2    1    2    0    0  0.81150263156E+01 -0.20122819039E+02 -0.12059542980E+02  0.96855542513E+02  0.93620414657E+02 0.  0.
         11    1    3    3    0    0  0.57652056821E+01  0.62395815461E+01 -0.49933049071E+02  0.50650561339E+02  0.00000000000E+00 0.  1.
        -11    1    3    3    0    0  0.23498206335E+01 -0.26362400585E+02  0.37873506091E+02  0.46204981174E+02  0.00000000000E+00 0. -1.
         22    1    1    2    0    0 -0.81150263156E+01  0.20122819039E+02  0.30977656384E+02  0.37820585575E+02  0.00000000000E+00 0. -1.
<mgrwt>
<rscale>  0 0.66244709E+02</rscale>
<asrwt>0</asrwt>
<pdfrwt beam="1">  1        3 0.11814942E-01 0.96101839E+02</pdfrwt>
<pdfrwt beam="2">  1       -3 0.89044627E-02 0.96101839E+02</pdfrwt>
<totfact> 0.10430417E+04</totfact>
</mgrwt>
</event>
<event>
 6    1  0.1723639E-002  0.9484855E+02  0.7546771E-02  0.1412950E+00
         -2   -1    0    0    0  501 -0.00000000000E+00  0.00000000000E+00  0.34980288454E+03  0.34980288454E+03  0.00000000000E+00 0. -1.
          2   -1    0    0  501    0  0.00000000000E+00 -0.00000000000E+00 -0.82681031826E+01  0.82681031826E+01  0.00000000000E+00 0.  1.
         23    2    1    2    0    0  0.17416936421E+00 -0.11975909458E+02  0.31474270606E+03  0.32872361917E+03  0.94089287588E+02 0.  0.
         13    1    3    3    0    0  0.87613307681E+01 -0.51538267105E+02  0.21053508190E+03  0.21692850113E+03  0.00000000000E+00 0. -1.
        -13    1    3    3    0    0 -0.85871614039E+01  0.39562357647E+02  0.10420762416E+03  0.11179511804E+03  0.00000000000E+00 0.  1.
         22    1    1    2    0    0 -0.17416936421E+00  0.11975909458E+02  0.26792075293E+02  0.29347368550E+02  0.00000000000E+00 0.  1.
<mgrwt>
<rscale>  0 0.56540757E+02</rscale>
<asrwt>0</asrwt>
<pdfrwt beam="1">  1        2 0.12720161E-02 0.94848547E+02</pdfrwt>
<pdfrwt beam="2">  1       -2 0.53815817E-01 0.94848547E+02</pdfrwt>
<totfact> 0.29809068E+04</totfact>
</mgrwt>
</event>
<event>
 6    1  0.1723639E-002  0.9421777E+02  0.7546771E-02  0.1395651E+00
         -2   -1    0    0    0  501 -0.00000000000E+00  0.00000000000E+00  0.34939412213E+02  0.34939412213E+02  0.00000000000E+00 0.  1.
          2   -1    0    0  501    0  0.00000000000E+00 -0.00000000000E+00 -0.87581077480E+02  0.87581077480E+02  0.00000000000E+00 0. -1.
         23    2    1    2    0    0  0.10189934634E+02 -0.12390882129E+02 -0.41291979614E+02  0.10286892252E+03  0.92841902786E+02 0.  0.
         13    1    3    3    0    0  0.60521324493E+01 -0.19643265687E+02  0.27075382724E+02  0.33993566210E+02  0.00000000000E+00 0.  1.
        -13    1    3    3    0    0  0.41378021843E+01  0.72523835586E+01 -0.68367362338E+02  0.68875356313E+02  0.00000000000E+00 0. -1.
         22    1    1    2    0    0 -0.10189934634E+02  0.12390882129E+02 -0.11349685653E+02  0.19651567169E+02  0.00000000000E+00 0.  1.
<mgrwt>
<rscale>  0 0.60522809E+02</rscale>
<asrwt>0</asrwt>
<pdfrwt beam="1">  1        2 0.13474012E-01 0.94217767E+02</pdfrwt>
<pdfrwt beam="2">  1       -2 0.53752942E-02 0.94217767E+02</pdfrwt>
<totfact> 0.66888106E+04</totfact>
</mgrwt>
</event>
<event>
 6    1  0.1723639E-002  0.1348165E+03  0.7546771E-02  0.1235052E+00
          2   -1    0    0  501    0  0.00000000000E+00  0.00000000000E+00  0.35014791511E+02  0.35014791511E+02  0.00000000000E+00 0. -1.
         -2   -1    0    0    0  501 -0.00000000000E+00 -0.00000000000E+00 -0.49207206091E+03  0.49207206091E+03  0.00000000000E+00 0.  1.
         23    2    1    2    0    0  0.93783941154E+02  0.33744469493E+02 -0.37329510872E+03  0.39689385568E+03  0.90782033679E+02 0.  0.
         11    1    3    3    0    0  0.94548377621E+02  0.38041402737E+02 -0.20883643321E+03  0.23237727915E+03  0.00000000000E+00 0. -1.
        -11    1    3    3    0    0 -0.76443646631E+00 -0.42969332446E+01 -0.16445867552E+03  0.16451657652E+03  0.00000000000E+00 0.  1.
         22    1    1    2    0    0 -0.93783941154E+02 -0.33744469493E+02 -0.83762160675E+02  0.13019299674E+03  0.00000000000E+00 0. -1.
<mgrwt>
<rscale>  0 0.12501108E+03</rscale>
<asrwt>0</asrwt>
<pdfrwt beam="1">  1        2 0.53868916E-02 0.13481652E+03</pdfrwt>
<pdfrwt beam="2">  1       -2 0.75703386E-01 0.13481652E+03</pdfrwt>
<totfact> 0.21994296E+03</totfact>
</mgrwt>
</event>
<event>
 6    1  0.1723639E-002  0.9517428E+02  0.7546771E-02  0.1367906E+00
          1   -1    0    0  501    0  0.00000000000E+00  0.00000000000E+00  0.28830636354E+03  0.28830636354E+03  0.00000000000E+00 0. -1.
         -1   -1    0    0    0  501 -0.00000000000E+00 -0.00000000000E+00 -0.12510603041E+02  0.12510603041E+02  0.00000000000E+00 0.  1.
         23    2    1    2    0    0 -0.10207352452E+02  0.22209477704E+02  0.22981899307E+03  0.24874668631E+03  0.91982027766E+02 0.  0.
         13    1    3    3    0    0 -0.32519503150E+02 -0.26874567570E+01  0.24709475860E+02  0.40930412974E+02  0.00000000000E+00 0.  1.
        -13    1    3    3    0    0  0.22312150698E+02  0.24896934461E+02  0.20510951721E+03  0.20781627334E+03  0.00000000000E+00 0. -1.
         22    1    1    2    0    0  0.10207352452E+02 -0.22209477704E+02  0.45976767428E+02  0.52070280267E+02  0.00000000000E+00 0.  1.
<mgrwt>
<rscale>  0 0.67752839E+02</rscale>
<asrwt>0</asrwt>
<pdfrwt beam="1">  1        1 0.44354820E-01 0.95174284E+02</pdfrwt>
<pdfrwt beam="2">  1       -1 0.19247084E-02 0.95174284E+02</pdfrwt>
<totfact> 0.58494070E+04</totfact>
</mgrwt>
</event>
<event>
 6    1  0.1723639E-002  0.9502338E+02  0.7546771E-02  0.1399059E+00
         -2   -1    0    0    0  501 -0.00000000000E+00  0.00000000000E+00  0.15755728720E+02  0.15755728720E+02  0.00000000000E+00 0.  1.
          2   -1    0    0  501    0  0.00000000000E+00 -0.00000000000E+00 -0.19767907165E+03  0.19767907165E+03  0.00000000000E+00 0. -1.
         23    2    1    2    0    0 -0.52773347544E+01 -0.13841346175E+02 -0.14208490619E+03  0.17093145735E+03  0.93861650414E+02 0.  0.
         13    1    3    3    0    0  0.41412214468E+02 -0.30154252130E+01 -0.37760081617E+02  0.56123863552E+02  0.00000000000E+00 0.  1.
        -13    1    3    3    0    0 -0.46689549222E+02 -0.10825920962E+02 -0.10432482457E+03  0.11480759380E+03  0.00000000000E+00 0. -1.
         22    1    1    2    0    0  0.52773347544E+01  0.13841346175E+02 -0.39838436741E+02  0.42503343022E+02  0.00000000000E+00 0.  1.
<mgrwt>
<rscale>  0 0.59708426E+02</rscale>
<asrwt>0</asrwt>
<pdfrwt beam="1">  1        2 0.30412164E-01 0.95023379E+02</pdfrwt>
<pdfrwt beam="2">  1       -2 0.24239584E-02 0.95023379E+02</pdfrwt>
<totfact> 0.86673830E+04</totfact>
</mgrwt>
</event>
<event>
 6    1  0.1723639E-002  0.9982411E+02  0.7546771E-02  0.1329228E+00
          2   -1    0    0  501    0  0.00000000000E+00  0.00000000000E+00  0.47638938358E+03  0.47638938358E+03  0.00000000000E+00 0. -1.
         -2   -1    0    0    0  501 -0.00000000000E+00 -0.00000000000E+00 -0.10415695076E+02  0.10415695076E+02  0.00000000000E+00 0.  1.
         23    2    1    2    0    0  0.39144154862E+02 -0.12358472812E+02  0.32767272322E+03  0.34254089838E+03  0.90993718547E+02 0.  0.
         11    1    3    3    0    0 -0.57843346598E+01 -0.42095222255E+02  0.19017387171E+03  0.19486294606E+03  0.00000000000E+00 0. -1.
        -11    1    3    3    0    0  0.44928489522E+02  0.29736749443E+02  0.13749885150E+03  0.14767795233E+03  0.00000000000E+00 0.  1.
         22    1    1    2    0    0 -0.39144154862E+02  0.12358472812E+02  0.13830096529E+03  0.14426418028E+03  0.00000000000E+00 0. -1.
<mgrwt>
<rscale>  0 0.79937668E+02</rscale>
<asrwt>0</asrwt>
<pdfrwt beam="1">  1        2 0.73290658E-01 0.99824113E+02</pdfrwt>
<pdfrwt beam="2">  1       -2 0.16024150E-02 0.99824113E+02</pdfrwt>
<totfact> 0.62528543E+04</totfact>
</mgrwt>
</event>
<event>
 6    1  0.1723639E-002  0.6949538E+02  0.7546771E-02  0.1451557E+00
          2   -1    0    0  501    0  0.00000000000E+00  0.00000000000E+00  0.11020936372E+03  0.11020936372E+03  0.00000000000E+00 0. -1.
         -2   -1    0    0    0  501 -0.00000000000E+00 -0.00000000000E+00 -0.22133314749E+02  0.22133314749E+02  0.00000000000E+00 0.  1.
         23    2    1    2    0    0  0.15388007381E+02  0.71981418450E+01  0.37452993462E+02  0.78945133897E+02  0.67386967802E+02 0.  0.
         13    1    3    3    0    0  0.13796247759E+02 -0.25277083007E+02  0.36400294176E+02  0.46413885785E+02  0.00000000000E+00 0. -1.
        -13    1    3    3    0    0  0.15917596219E+01  0.32475224852E+02  0.10526992862E+01  0.32531248112E+02  0.00000000000E+00 0.  1.
         22    1    1    2    0    0 -0.15388007381E+02 -0.71981418450E+01  0.50623055507E+02  0.53397544570E+02  0.00000000000E+00 0. -1.
<mgrwt>
<rscale>  0 0.48865769E+02</rscale>
<asrwt>0</asrwt>
<pdfrwt beam="1">  1        2 0.16955286E-01 0.69495377E+02</pdfrwt>
<pdfrwt beam="2">  1       -2 0.34051254E-02 0.69495377E+02</pdfrwt>
<totfact> 0.95791920E+04</totfact>
</mgrwt>
</event>
<event>
 6    1  0.1723639E-002  0.9804235E+02  0.7546771E-02  0.1341706E+00
         -3   -1    0    0    0  501 -0.00000000000E+00  0.00000000000E+00  0.90209956088E+01  0.90209956088E+01  0.00000000000E+00 0.  1.
          3   -1    0    0  501    0  0.00000000000E+00 -0.00000000000E+00 -0.49046416158E+03  0.49046416158E+03  0.00000000000E+00 0. -1.
         23    2    1    2    0    0  0.34104709767E+02  0.71771921751E+01 -0.36500114000E+03  0.37793932745E+03  0.91638745696E+02 0.  0.
         11    1    3    3    0    0 -0.17213959280E+02 -0.12935886527E+02 -0.24431377523E+03  0.24526083732E+03  0.00000000000E+00 0. -1.
        -11    1    3    3    0    0  0.51318669046E+02  0.20113078702E+02 -0.12068736477E+03  0.13267849013E+03  0.00000000000E+00 0.  1.
         22    1    1    2    0    0 -0.34104709767E+02 -0.71771921751E+01 -0.11644202597E+03  0.12154582974E+03  0.00000000000E+00 0. -1.
<mgrwt>
<rscale>  0 0.75703575E+02</rscale>
<asrwt>0</asrwt>
<pdfrwt beam="1">  1        3 0.75456013E-01 0.98042353E+02</pdfrwt>
<pdfrwt beam="2">  1       -3 0.13878457E-02 0.98042353E+02</pdfrwt>
<totfact> 0.59975311E+03</totfact>
</mgrwt>
</event>
<event>
 6    1  0.1723639E-002  0.9166434E+02  0.7546771E-02  0.1423424E+00
          2   -1    0    0  501    0  0.00000000000E+00  0.00000000000E+00  0.39737631042E+02  0.39737631042E+02  0.00000000000E+00 0. -1.
         -2   -1    0    0    0  501 -0.00000000000E+00 -0.00000000000E+00 -0.85803245192E+02  0.85803245192E+02  0.00000000000E+00 0.  1.
         23    2    1    2    0    0  0.10598181493E+02 -0.38916538026E+01 -0.58503635886E+02  0.10874293573E+03  0.90966390717E+02 0.  0.
         13    1    3    3    0    0  0.48628827977E+02  0.98735849825E+01 -0.22071259130E+02  0.54308296516E+02  0.00000000000E+00 0. -1.
        -13    1    3    3    0    0 -0.38030646484E+02 -0.13765238785E+02 -0.36432376756E+02  0.54434639219E+02  0.00000000000E+00 0.  1.
         22    1    1    2    0    0 -0.10598181493E+02  0.38916538026E+01  0.12438021737E+02  0.16797940499E+02  0.00000000000E+00 0.  1.
<mgrwt>
<rscale>  0 0.54303119E+02</rscale>
<asrwt>0</asrwt>
<pdfrwt beam="1">  1        2 0.61134818E-02 0.91664337E+02</pdfrwt>
<pdfrwt beam="2">  1       -2 0.13200499E-01 0.91664337E+02</pdfrwt>
<totfact> 0.44016773E+04</totfact>
</mgrwt>
</event>
<event>
 6    1  0.1723639E-002  0.9343977E+02  0.7546771E-02  0.1385127E+00
         -3   -1    0    0    0  501 -0.00000000000E+00  0.00000000000E+00  0.60735440826E+03  0.60735440826E+03  0.00000000000E+00 0.  1.
          3   -1    0    0  501    0  0.00000000000E+00 -0.00000000000E+00 -0.96520542331E+01  0.96520542331E+01  0.00000000000E+00 0. -1.
         23    2    1    2    0    0 -0.13834613282E+02 -0.13707810870E+02  0.58775774867E+03  0.59513877448E+03  0.91387576630E+02 0.  0.
         13    1    3    3    0    0  0.11726360344E+02 -0.25277669065E+02  0.53190828357E+03  0.53263767254E+03  0.00000000000E+00 0.  1.
        -13    1    3    3    0    0 -0.25560973626E+02  0.11569858195E+02  0.55849465102E+02  0.62501101939E+02  0.00000000000E+00 0. -1.
         22    1    1    2    0    0  0.13834613282E+02  0.13707810870E+02  0.99446053605E+01  0.21867688019E+02  0.00000000000E+00 0. -1.
<mgrwt>
<rscale>  0 0.63135227E+02</rscale>
<asrwt>0</asrwt>
<pdfrwt beam="1">  1        3 0.14849319E-02 0.93439765E+02</pdfrwt>
<pdfrwt beam="2">  1       -3 0.93439110E-01 0.93439765E+02</pdfrwt>
<totfact> 0.33672009E+03</totfact>
</mgrwt>
</event>
<event>
 6    1  0.1723639E-002  0.9220224E+02  0.7546771E-02  0.1371703E+00
         -4   -1    0    0    0  501 -0.00000000000E+00  0.00000000000E+00  0.52857410171E+02  0.52857410171E+02  0.00000000000E+00 0. -1.
          4   -1    0    0  501    0  0.00000000000E+00 -0.00000000000E+00 -0.68970679323E+02  0.68970679323E+02  0.00000000000E+00 0.  1.
         23    2    1    2    0    0  0.20597041835E+02 -0.14597218935E+02 -0.61315556199E+00  0.92204273832E+02  0.88678831861E+02 0.  0.
         11    1    3    3    0    0  0.90236496969E+01 -0.40925978301E+02 -0.29648586986E+02  0.51336153576E+02  0.00000000000E+00 0.  1.
        -11    1    3    3    0    0  0.11573392138E+02  0.26328759365E+02  0.29035431424E+02  0.40868120256E+02  0.00000000000E+00 0. -1.
         22    1    1    2    0    0 -0.20597041835E+02  0.14597218935E+02 -0.15500113590E+02  0.29623815661E+02  0.00000000000E+00 0. -1.
<mgrwt>
<rscale>  0 0.66696112E+02</rscale>
<asrwt>0</asrwt>
<pdfrwt beam="1">  1        4 0.10610874E-01 0.92202235E+02</pdfrwt>
<pdfrwt beam="2">  1       -4 0.81319092E-02 0.92202235E+02</pdfrwt>
<totfact> 0.10739113E+04</totfact>
</mgrwt>
</event>
<event>
 6    1  0.1723639E-002  0.1008012E+03  0.7546771E-02  0.1323811E+00
         -2   -1    0    0    0  501 -0.00000000000E+00  0.00000000000E+00  0.23839625956E+02  0.23839625956E+02  0.00000000000E+00 0.  1.
          2   -1    0    0  501    0  0.00000000000E+00 -0.00000000000E+00 -0.36437948561E+03  0.36437948561E+03  0.00000000000E+00 0. -1.
         23    2    1    2    0    0  0.42865359951E+02 -0.93619824493E+01 -0.94078446382E+02  0.13788270984E+03  0.90751318443E+02 0.  0.
         13    1    3    3    0    0 -0.83511513195E+01  0.16935582720E+02 -0.74831875671E+02  0.77177492230E+02  0.00000000000E+00 0. -1.
        -13    1    3    3    0    0  0.51216511271E+02 -0.26297565169E+02 -0.19246570711E+02  0.60705217607E+02  0.00000000000E+00 0.  1.
         22    1    1    2    0    0 -0.42865359951E+02  0.93619824493E+01 -0.24646141327E+03  0.25033640173E+03  0.00000000000E+00 0.  1.
<mgrwt>
<rscale>  0 0.81875814E+02</rscale>
<asrwt>0</asrwt>
<pdfrwt beam="1">  1        2 0.56058384E-01 0.10080123E+03</pdfrwt>
<pdfrwt beam="2">  1       -2 0.36676347E-02 0.10080123E+03</pdfrwt>
<totfact> 0.25068728E+04</totfact>
</mgrwt>
</event>
<event>
 6    1  0.1723639E-002  0.9484687E+02  0.7546771E-02  0.1396511E+00
          2   -1    0    0  501    0  0.00000000000E+00  0.00000000000E+00  0.12468969688E+03  0.12468969688E+03  0.00000000000E+00 0. -1.
         -2   -1    0    0    0  501 -0.00000000000E+00 -0.00000000000E+00 -0.24442917878E+02  0.24442917878E+02  0.00000000000E+00 0.  1.
         23    2    1    2    0    0 -0.13737154559E+02  0.72040092498E+01  0.84483577401E+02  0.12701733295E+03  0.93569871515E+02 0.  0.
         11    1    3    3    0    0  0.40255898706E+02 -0.73528926547E+00  0.36807951342E+02  0.54551840600E+02  0.00000000000E+00 0.  1.
        -11    1    3    3    0    0 -0.53993053264E+02  0.79392985152E+01  0.47675626060E+02  0.72465492352E+02  0.00000000000E+00 0. -1.
         22    1    1    2    0    0  0.13737154559E+02 -0.72040092498E+01  0.15763201600E+02  0.22115281805E+02  0.00000000000E+00 0.  1.
<mgrwt>
<rscale>  0 0.60315761E+02</rscale>
<asrwt>0</asrwt>
<pdfrwt beam="1">  1        2 0.19183030E-01 0.94846866E+02</pdfrwt>
<pdfrwt beam="2">  1       -2 0.37604490E-02 0.94846866E+02</pdfrwt>
<totfact> 0.75720435E+04</totfact>
</mgrwt>
</event>
<event>
 6    1  0.1723639E-002  0.9224357E+02  0.7546771E-02  0.1387972E+00
         -2   -1    0    0    0  501 -0.00000000000E+00  0.00000000000E+00  0.92404641801E+01  0.92404641801E+01  0.00000000000E+00 0.  1.
          2   -1    0    0  501    0  0.00000000000E+00 -0.00000000000E+00 -0.34005165195E+03  0.34005165195E+03  0.00000000000E+00 0. -1.
         23    2    1    2    0    0 -0.18690288912E+02  0.49471888761E+01 -0.25953146431E+03  0.27543684852E+03  0.90194650495E+02 0.  0.
         11    1    3    3    0    0 -0.11754277205E+02  0.47483351445E+02 -0.14761057266E+03  0.15550470366E+03  0.00000000000E+00 0. -1.
        -11    1    3    3    0    0 -0.69360117065E+01 -0.42536162569E+02 -0.11192089165E+03  0.11993214486E+03  0.00000000000E+00 0.  1.
         22    1    1    2    0    0  0.18690288912E+02 -0.49471888761E+01 -0.71279723462E+02  0.73855267613E+02  0.00000000000E+00 0.  1.
<mgrwt>
<rscale>  0 0.62414030E+02</rscale>
<asrwt>0</asrwt>
<pdfrwt beam="1">  1        2 0.52315628E-01 0.92243572E+02</pdfrwt>
<pdfrwt beam="2">  1       -2 0.14216102E-02 0.92243572E+02</pdfrwt>
<totfact> 0.10484415E+05</totfact>
</mgrwt>
</event>
<event>
 6    1  0.1723639E-002  0.8790314E+02  0.7546771E-02  0.1420360E+00
          1   -1    0    0  501    0  0.00000000000E+00  0.00000000000E+00  0.11010448524E+03  0.11010448524E+03  0.00000000000E+00 0. -1.
         -1   -1    0    0    0  501 -0.00000000000E+00 -0.00000000000E+00 -0.24721729427E+02  0.24721729427E+02  0.00000000000E+00 0.  1.
         23    2    1    2    0    0  0.12165824092E+02 -0.56604498128E+01  0.60999925470E+02  0.10699511006E+03  0.86872980277E+02 0.  0.
         11    1    3    3    0    0 -0.35823330894E+01 -0.37044020975E+01 -0.21946961489E+02  0.22543842260E+02  0.00000000000E+00 0.  1.
        -11    1    3    3    0    0  0.15748157182E+02 -0.19560477153E+01  0.82946886959E+02  0.84451267803E+02  0.00000000000E+00 0. -1.
         22    1    1    2    0    0 -0.12165824092E+02  0.56604498128E+01  0.24382830338E+02  0.27831104600E+02  0.00000000000E+00 0.  1.
<mgrwt>
<rscale>  0 0.54944830E+02</rscale>
<asrwt>0</asrwt>
<pdfrwt beam="1">  1        1 0.16939151E-01 0.87903144E+02</pdfrwt>
<pdfrwt beam="2">  1       -1 0.38033430E-02 0.87903144E+02</pdfrwt>
<totfact> 0.71494419E+04</totfact>
</mgrwt>
</event>
<event>
 6    1  0.1723639E-002  0.9632311E+02  0.7546771E-02  0.1336529E+00
         -1   -1    0    0    0  501 -0.00000000000E+00  0.00000000000E+00  0.47166907567E+02  0.47166907567E+02  0.00000000000E+00 0.  1.
          1   -1    0    0  501    0  0.00000000000E+00 -0.00000000000E+00 -0.10245411220E+03  0.10245411220E+03  0.00000000000E+00 0. -1.
         23    2    1    2    0    0  0.33394592718E+02  0.22387763708E+02 -0.25669384602E+02  0.99684799948E+02  0.87531315814E+02 0.  0.
         11    1    3    3    0    0  0.11876582477E+02 -0.16983904911E+01 -0.54856161972E+02  0.56152793767E+02  0.00000000000E+00 0. -1.
        -11    1    3    3    0    0  0.21518010241E+02  0.24086154199E+02  0.29186777370E+02  0.43532006180E+02  0.00000000000E+00 0.  1.
         22    1    1    2    0    0 -0.33394592718E+02 -0.22387763708E+02 -0.29617820035E+02  0.49936219824E+02  0.00000000000E+00 0.  1.
<mgrwt>
<rscale>  0 0.77422439E+02</rscale>
<asrwt>0</asrwt>
<pdfrwt beam="1">  1        1 0.15762171E-01 0.96323113E+02</pdfrwt>
<pdfrwt beam="2">  1       -1 0.72564474E-02 0.96323113E+02</pdfrwt>
<totfact> 0.30752545E+04</totfact>
</mgrwt>
</event>
<event>
 6    1  0.1723639E-002  0.8914741E+02  0.7546771E-02  0.1433866E+00
         -2   -1    0    0    0  501 -0.00000000000E+00  0.00000000000E+00  0.85472544530E+01  0.85472544530E+01  0.00000000000E+00 0.  1.
          2   -1    0    0  501    0  0.00000000000E+00 -0.00000000000E+00 -0.29144526797E+03  0.29144526797E+03  0.00000000000E+00 0. -1.
         23    2    1    2    0    0 -0.10471734168E+02  0.17748271210E+00 -0.25855461093E+03  0.27349176835E+03  0.88530061610E+02 0.  0.
         11    1    3    3    0    0  0.32196267379E+02 -0.60655018185E+01 -0.18776627284E+03  0.19060315623E+03  0.00000000000E+00 0.  1.
        -11    1    3    3    0    0 -0.42668001547E+02  0.62429845306E+01 -0.70788338081E+02  0.82888612126E+02  0.00000000000E+00 0. -1.
         22    1    1    2    0    0  0.10471734168E+02 -0.17748271210E+00 -0.24343402589E+02  0.26500754068E+02  0.00000000000E+00 0.  1.
<mgrwt>
<rscale>  0 0.52191741E+02</rscale>
<asrwt>0</asrwt>
<pdfrwt beam="1">  1        2 0.44837735E-01 0.89147409E+02</pdfrwt>
<pdfrwt beam="2">  1       -2 0.13149622E-02 0.89147409E+02</pdfrwt>
<totfact> 0.13691780E+05</totfact>
</mgrwt>
</event>
<event>
 6    1  0.1723639E-002  0.9391738E+02  0.7546771E-02  0.1376817E+00
         -2   -1    0    0    0  501 -0.00000000000E+00  0.00000000000E+00  0.11676351503E+04  0.11676351503E+04  0.00000000000E+00 0.  1.
          2   -1    0    0  501    0  0.00000000000E+00 -0.00000000000E+00 -0.40372300928E+01  0.40372300928E+01  0.00000000000E+00 0. -1.
         23    2    1    2    0    0 -0.45742412200E+01 -0.21478004743E+02  0.11067936914E+04  0.11107712410E+04  0.91313997386E+02 0.  0.
         13    1    3    3    0    0 -0.14351429654E+02 -0.56099380510E+02  0.66763249445E+03  0.67013897937E+03  0.00000000000E+00 0. -1.
        -13    1    3    3    0    0  0.97771884338E+01  0.34621375766E+02  0.43916119692E+03  0.44063226159E+03  0.00000000000E+00 0.  1.
         22    1    1    2    0    0  0.45742412200E+01  0.21478004743E+02  0.56804228856E+02  0.60901139451E+02  0.00000000000E+00 0. -1.
<mgrwt>
<rscale>  0 0.65307954E+02</rscale>
<asrwt>0</asrwt>
<pdfrwt beam="1">  1        2 0.62111325E-03 0.93917381E+02</pdfrwt>
<pdfrwt beam="2">  1       -2 0.17963591E+00 0.93917381E+02</pdfrwt>
<totfact> 0.50041567E+03</totfact>
</mgrwt>
</event>
<event>
 6    1  0.1723639E-002  0.9321346E+02  0.7546771E-02  0.1405049E+00
         -2   -1    0    0    0  501 -0.00000000000E+00  0.00000000000E+00  0.12219860465E+02  0.12219860465E+02  0.00000000000E+00 0.  1.
          2   -1    0    0  501    0  0.00000000000E+00 -0.00000000000E+00 -0.24966168253E+03  0.24966168253E+03  0.00000000000E+00 0. -1.
         23    2    1    2    0    0  0.99376757398E+01  0.10250641766E+02 -0.18014026301E+03  0.20282816269E+03  0.92113604674E+02 0.  0.
         11    1    3    3    0    0 -0.29166761404E+02 -0.19811098014E+02 -0.11986840136E+03  0.12494644141E+03  0.00000000000E+00 0. -1.
        -11    1    3    3    0    0  0.39104437144E+02  0.30061739780E+02 -0.60271861647E+02  0.77881721279E+02  0.00000000000E+00 0.  1.
         22    1    1    2    0    0 -0.99376757398E+01 -0.10250641766E+02 -0.57301559052E+02  0.59053380306E+02  0.00000000000E+00 0. -1.
<mgrwt>
<rscale>  0 0.58313391E+02</rscale>
<asrwt>0</asrwt>
<pdfrwt beam="1">  1        2 0.38409488E-01 0.93213461E+02</pdfrwt>
<pdfrwt beam="2">  1       -2 0.18799786E-02 0.93213461E+02</pdfrwt>
<totfact> 0.97301937E+04</totfact>
</mgrwt>
</event>
<event>
 6    1  0.1723639E-002  0.9284003E+02  0.7546771E-02  0.1395083E+00
         -4   -1    0    0    0  501 -0.00000000000E+00  0.00000000000E+00  0.92739855374E+03  0.92739855374E+03  0.00000000000E+00 0.  1.
          4   -1    0    0  501    0  0.00000000000E+00 -0.00000000000E+00 -0.35426389940E+01  0.35426389940E+01  0.00000000000E+00 0. -1.
         23    2    1    2    0    0 -0.66739587623E+01  0.15548321345E+02  0.85547708348E+03  0.86050003582E+03  0.91285153573E+02 0.  0.
         13    1    3    3    0    0 -0.10527360774E+02  0.20019413069E+02  0.48645605023E+02  0.53646967412E+02  0.00000000000E+00 0. -1.
        -13    1    3    3    0    0  0.38534020113E+01 -0.44710917237E+01  0.80683147846E+03  0.80685306841E+03  0.00000000000E+00 0.  1.
         22    1    1    2    0    0  0.66739587623E+01 -0.15548321345E+02  0.68378831263E+02  0.70441156912E+02  0.00000000000E+00 0.  1.
<mgrwt>
<rscale>  0 0.60660029E+02</rscale>
<asrwt>0</asrwt>
<pdfrwt beam="1">  1        4 0.54502212E-03 0.92840031E+02</pdfrwt>
<pdfrwt beam="2">  1       -4 0.14267651E+00 0.92840031E+02</pdfrwt>
<totfact> 0.39548529E+03</totfact>
</mgrwt>
</event>
<event>
 6    1  0.1723639E-002  0.9592741E+02  0.7546771E-02  0.1348877E+00
         -2   -1    0    0    0  501 -0.00000000000E+00  0.00000000000E+00  0.15051906075E+03  0.15051906075E+03  0.00000000000E+00 0.  1.
          2   -1    0    0  501    0  0.00000000000E+00 -0.00000000000E+00 -0.15058291421E+03  0.15058291421E+03  0.00000000000E+00 0. -1.
         23    2    1    2    0    0 -0.31987616378E+01 -0.32737936680E+02  0.13302677417E+03  0.16400668061E+03  0.90111398081E+02 0.  0.
         13    1    3    3    0    0  0.26692634261E+02 -0.74848649359E+01  0.26086665945E+01  0.27844659601E+02  0.00000000000E+00 0. -1.
        -13    1    3    3    0    0 -0.29891395899E+02 -0.25253071744E+02  0.13041810757E+03  0.13616202101E+03  0.00000000000E+00 0.  1.
         22    1    1    2    0    0  0.31987616378E+01  0.32737936680E+02 -0.13309062762E+03  0.13709529436E+03  0.00000000000E+00 0. -1.
<mgrwt>
<rscale>  0 0.73406698E+02</rscale>
<asrwt>0</asrwt>
<pdfrwt beam="1">  1        2 0.23166602E-01 0.95927413E+02</pdfrwt>
<pdfrwt beam="2">  1       -2 0.23156779E-01 0.95927413E+02</pdfrwt>
<totfact> 0.35920671E+03</totfact>
</mgrwt>
</event>
<event>
 6    1  0.1723639E-002  0.1070839E+03  0.7546771E-02  0.1320500E+00
         -2   -1    0    0    0  501 -0.00000000000E+00  0.00000000000E+00  0.71541948065E+02  0.71541948065E+02  0.00000000000E+00 0.  1.
          2   -1    0    0  501    0  0.00000000000E+00 -0.00000000000E+00 -0.99951796316E+02  0.99951796316E+02  0.00000000000E+00 0. -1.
         23    2    1    2    0    0  0.21795754535E+02  0.32124161647E+02  0.20522423303E+02  0.10903268550E+03  0.99799498854E+02 0.  0.
         13    1    3    3    0    0  0.47608606566E+02 -0.53583428910E+01 -0.16178692874E+02  0.50567196489E+02  0.00000000000E+00 0. -1.
        -13    1    3    3    0    0 -0.25812852031E+02  0.37482504538E+02  0.36701116177E+02  0.58465489009E+02  0.00000000000E+00 0.  1.
         22    1    1    2    0    0 -0.21795754535E+02 -0.32124161647E+02 -0.48932271554E+02  0.62461058882E+02  0.00000000000E+00 0. -1.
<mgrwt>
<rscale>  0 0.83091734E+02</rscale>
<asrwt>0</asrwt>
<pdfrwt beam="1">  1        2 0.15377199E-01 0.10708388E+03</pdfrwt>
<pdfrwt beam="2">  1       -2 0.11006454E-01 0.10708388E+03</pdfrwt>
<totfact> 0.19461855E+04</totfact>
</mgrwt>
</event>
<event>
 6    1  0.1723639E-002  0.1030930E+03  0.7546771E-02  0.1397749E+00
          3   -1    0    0  501    0  0.00000000000E+00  0.00000000000E+00  0.14174173155E+03  0.14174173155E+03  0.00000000000E+00 0. -1.
         -3   -1    0    0    0  501 -0.00000000000E+00 -0.00000000000E+00 -0.33382528032E+02  0.33382528032E+02  0.00000000000E+00 0.  1.
         23    2    1    2    0    0  0.46321841621E+01 -0.10900399591E+02  0.48189232998E+02  0.11379970338E+03  0.10241042169E+03 0.  0.
         13    1    3    3    0    0  0.19806058504E+02 -0.42761055611E+02 -0.76517770785E+01  0.47742408013E+02  0.00000000000E+00 0.  1.
        -13    1    3    3    0    0 -0.15173874342E+02  0.31860656020E+02  0.55841010076E+02  0.66057295365E+02  0.00000000000E+00 0. -1.
         22    1    1    2    0    0 -0.46321841621E+01  0.10900399591E+02  0.60169970520E+02  0.61324556205E+02  0.00000000000E+00 0.  1.
<mgrwt>
<rscale>  0 0.60019835E+02</rscale>
<asrwt>0</asrwt>
<pdfrwt beam="1">  1        3 0.21806420E-01 0.10309302E+03</pdfrwt>
<pdfrwt beam="2">  1       -3 0.51357736E-02 0.10309302E+03</pdfrwt>
<totfact> 0.89564968E+03</totfact>
</mgrwt>
</event>
<event>
 6    1  0.1723639E-002  0.1093018E+03  0.7546771E-02  0.1306016E+00
         -2   -1    0    0    0  501 -0.00000000000E+00  0.00000000000E+00  0.66926623727E+02  0.66926623727E+02  0.00000000000E+00 0.  1.
          2   -1    0    0  501    0  0.00000000000E+00 -0.00000000000E+00 -0.93923806628E+02  0.93923806628E+02  0.00000000000E+00 0. -1.
         23    2    1    2    0    0  0.16746431121E+02 -0.44361144019E+02 -0.74271567678E+01  0.10955384200E+03  0.98481102681E+02 0.  0.
         11    1    3    3    0    0  0.28360868544E+02 -0.32183183160E+02  0.40354908459E+02  0.58894946979E+02  0.00000000000E+00 0.  1.
        -11    1    3    3    0    0 -0.11614437423E+02 -0.12177960859E+02 -0.47782065227E+02  0.50658895021E+02  0.00000000000E+00 0. -1.
         22    1    1    2    0    0 -0.16746431121E+02  0.44361144019E+02 -0.19570026133E+02  0.51296588355E+02  0.00000000000E+00 0. -1.
<mgrwt>
<rscale>  0 0.88706113E+02</rscale>
<asrwt>0</asrwt>
<pdfrwt beam="1">  1        2 0.14449816E-01 0.10930179E+03</pdfrwt>
<pdfrwt beam="2">  1       -2 0.10296404E-01 0.10930179E+03</pdfrwt>
<totfact> 0.23285567E+04</totfact>
</mgrwt>
</event>
<event>
 6    1  0.1723639E-002  0.9248164E+02  0.7546771E-02  0.1425262E+00
         -1   -1    0    0    0  501 -0.00000000000E+00  0.00000000000E+00  0.58962188381E+01  0.58962188381E+01  0.00000000000E+00 0.  1.
          1   -1    0    0  501    0  0.00000000000E+00 -0.00000000000E+00 -0.45859972916E+03  0.45859972916E+03  0.00000000000E+00 0. -1.
         23    2    1    2    0    0  0.44352203273E+01 -0.97251295564E+01 -0.42103322789E+03  0.43107056672E+03  0.91861881000E+02 0.  0.
         13    1    3    3    0    0  0.17274386966E+02  0.64442371699E+01 -0.13105097882E+02  0.22620261454E+02  0.00000000000E+00 0.  1.
        -13    1    3    3    0    0 -0.12839166639E+02 -0.16169366726E+02 -0.40792813001E+03  0.40845030527E+03  0.00000000000E+00 0. -1.
         22    1    1    2    0    0 -0.44352203273E+01  0.97251295564E+01 -0.31670282424E+02  0.33425381270E+02  0.00000000000E+00 0.  1.
<mgrwt>
<rscale>  0 0.53922915E+02</rscale>
<asrwt>0</asrwt>
<pdfrwt beam="1">  1        1 0.70553811E-01 0.92481644E+02</pdfrwt>
<pdfrwt beam="2">  1       -1 0.90711051E-03 0.92481644E+02</pdfrwt>
<totfact> 0.95311651E+04</totfact>
</mgrwt>
</event>
<event>
 6    1  0.1723639E-002  0.8969406E+02  0.7546771E-02  0.1386980E+00
         -2   -1    0    0    0  501 -0.00000000000E+00  0.00000000000E+00  0.20222229356E+02  0.20222229356E+02  0.00000000000E+00 0.  1.
          2   -1    0    0  501    0  0.00000000000E+00 -0.00000000000E+00 -0.19737950627E+03  0.19737950627E+03  0.00000000000E+00 0. -1.
         23    2    1    2    0    0 -0.18023820053E+02 -0.11479230277E+02 -0.87034136171E+02  0.12497986286E+03  0.87111391015E+02 0.  0.
         11    1    3    3    0    0  0.15647382959E+02  0.31431164632E+02 -0.32285462656E+02  0.47698111100E+02  0.00000000000E+00 0.  1.
        -11    1    3    3    0    0 -0.33671203012E+02 -0.42910394909E+02 -0.54748673515E+02  0.77281751760E+02  0.00000000000E+00 0. -1.
         22    1    1    2    0    0  0.18023820053E+02  0.11479230277E+02 -0.90123140739E+02  0.92621872761E+02  0.00000000000E+00 0. -1.
<mgrwt>
<rscale>  0 0.62664046E+02</rscale>
<asrwt>0</asrwt>
<pdfrwt beam="1">  1        2 0.30366078E-01 0.89694065E+02</pdfrwt>
<pdfrwt beam="2">  1       -2 0.31111122E-02 0.89694065E+02</pdfrwt>
<totfact> 0.59953137E+04</totfact>
</mgrwt>
</event>
<event>
 6    1  0.1723639E-002  0.1060079E+03  0.7546771E-02  0.1304406E+00
         -2   -1    0    0    0  501 -0.00000000000E+00  0.00000000000E+00  0.41929446298E+02  0.41929446298E+02  0.00000000000E+00 0.  1.
          2   -1    0    0  501    0  0.00000000000E+00 -0.00000000000E+00 -0.19415585391E+03  0.19415585391E+03  0.00000000000E+00 0. -1.
         23    2    1    2    0    0  0.11762639568E+02 -0.52219743235E+02 -0.42902758135E+02  0.11436052209E+03  0.91500934879E+02 0.  0.
         11    1    3    3    0    0 -0.17898326154E+02 -0.53821163981E+02 -0.57928117448E+02  0.81072403211E+02  0.00000000000E+00 0. -1.
        -11    1    3    3    0    0  0.29660965722E+02  0.16014207458E+01  0.15025359313E+02  0.33288118878E+02  0.00000000000E+00 0.  1.
         22    1    1    2    0    0 -0.11762639568E+02  0.52219743235E+02 -0.10932364948E+03  0.12172477812E+03  0.00000000000E+00 0. -1.
<mgrwt>
<rscale>  0 0.89361266E+02</rscale>
<asrwt>0</asrwt>
<pdfrwt beam="1">  1        2 0.29870132E-01 0.10600794E+03</pdfrwt>
<pdfrwt beam="2">  1       -2 0.64506840E-02 0.10600794E+03</pdfrwt>
<totfact> 0.21136220E+04</totfact>
</mgrwt>
</event>
<event>
 6    1  0.1723639E-002  0.1151645E+03  0.7546771E-02  0.1277082E+00
          2   -1    0    0  501    0  0.00000000000E+00  0.00000000000E+00  0.65423349758E+02  0.65423349758E+02  0.00000000000E+00 0. -1.
         -2   -1    0    0    0  501 -0.00000000000E+00 -0.00000000000E+00 -0.15704854968E+03  0.15704854968E+03  0.00000000000E+00 0.  1.
         23    2    1    2    0    0 -0.24141253819E+02  0.65287740192E+02 -0.99793214257E+02  0.15238619752E+03  0.91747361963E+02 0.  0.
         11    1    3    3    0    0 -0.18993315104E+02 -0.19931415308E+02 -0.12343875903E+02  0.30172480958E+02  0.00000000000E+00 0. -1.
        -11    1    3    3    0    0 -0.51479387153E+01  0.85219155500E+02 -0.87449338354E+02  0.12221371656E+03  0.00000000000E+00 0.  1.
         22    1    1    2    0    0  0.24141253819E+02 -0.65287740192E+02  0.81680143362E+01  0.70085701919E+02  0.00000000000E+00 0. -1.
<mgrwt>
<rscale>  0 0.10154394E+03</rscale>
<asrwt>0</asrwt>
<pdfrwt beam="1">  1        2 0.10065131E-01 0.11516452E+03</pdfrwt>
<pdfrwt beam="2">  1       -2 0.24161315E-01 0.11516452E+03</pdfrwt>
<totfact> 0.88995919E+03</totfact>
</mgrwt>
</event>
<event>
 6    1  0.1723639E-002  0.9385419E+02  0.7546771E-02  0.1392717E+00
          2   -1    0    0  501    0  0.00000000000E+00  0.00000000000E+00  0.60459687802E+03  0.60459687802E+03  0.00000000000E+00 0. -1.
         -2   -1    0    0    0  501 -0.00000000000E+00 -0.00000000000E+00 -0.51299677819E+01  0.51299677819E+01  0.00000000000E+00 0.  1.
         23    2    1    2    0    0 -0.16767403997E+02 -0.28527495142E+01  0.52687535144E+03  0.53516936177E+03  0.92300193958E+02 0.  0.
         13    1    3    3    0    0 -0.42260979347E+02 -0.23866343717E+02  0.43176590518E+03  0.43448520068E+03  0.00000000000E+00 0. -1.
        -13    1    3    3    0    0  0.25493575351E+02  0.21013594202E+02  0.95109446260E+02  0.10068416108E+03  0.00000000000E+00 0.  1.
         22    1    1    2    0    0  0.16767403997E+02  0.28527495142E+01  0.72591558802E+02  0.74557484037E+02  0.00000000000E+00 0.  1.
<mgrwt>
<rscale>  0 0.61235860E+02</rscale>
<asrwt>0</asrwt>
<pdfrwt beam="1">  1        2 0.93014848E-01 0.93854194E+02</pdfrwt>
<pdfrwt beam="2">  1       -2 0.78922629E-03 0.93854194E+02</pdfrwt>
<totfact> 0.13059640E+05</totfact>
</mgrwt>
</event>
<event>
 6    1  0.1723639E-002  0.9076401E+02  0.7546771E-02  0.1402928E+00
         -2   -1    0    0    0  501 -0.00000000000E+00  0.00000000000E+00  0.13544120864E+02  0.13544120864E+02  0.00000000000E+00 0.  1.
          2   -1    0    0  501    0  0.00000000000E+00 -0.00000000000E+00 -0.21048596695E+03  0.21048596695E+03  0.00000000000E+00 0. -1.
         23    2    1    2    0    0 -0.57880096436E+01  0.14905170604E+02 -0.16939259570E+03  0.19217688761E+03  0.89344498922E+02 0.  0.
         13    1    3    3    0    0  0.61659225838E+01 -0.32402577958E+02 -0.30356186351E+02  0.44826819087E+02  0.00000000000E+00 0.  1.
        -13    1    3    3    0    0 -0.11953932227E+02  0.47307748562E+02 -0.13903640935E+03  0.14735006853E+03  0.00000000000E+00 0. -1.
         22    1    1    2    0    0  0.57880096436E+01 -0.14905170604E+02 -0.27549250389E+02  0.31853200206E+02  0.00000000000E+00 0.  1.
<mgrwt>
<rscale>  0 0.58802283E+02</rscale>
<asrwt>0</asrwt>
<pdfrwt beam="1">  1        2 0.32382458E-01 0.90764005E+02</pdfrwt>
<pdfrwt beam="2">  1       -2 0.20837108E-02 0.90764005E+02</pdfrwt>
<totfact> 0.10013370E+05</totfact>
</mgrwt>
</event>
<event>
 6    1  0.1723639E-002  0.9387932E+02  0.7546771E-02  0.1370754E+00
         -2   -1    0    0    0  501 -0.00000000000E+00  0.00000000000E+00  0.27650405408E+02  0.27650405408E+02  0.00000000000E+00 0. -1.
          2   -1    0    0  501    0  0.00000000000E+00 -0.00000000000E+00 -0.13176053027E+03  0.13176053027E+03  0.00000000000E+00 0.  1.
         23    2    1    2    0    0  0.20730859403E+02 -0.12666348745E+02 -0.68125209473E+02  0.11599297790E+03  0.90681430481E+02 0.  0.
         13    1    3    3    0    0  0.54445346512E+02 -0.17165424282E+02 -0.55763338603E+02  0.79802866362E+02  0.00000000000E+00 0.  1.
        -13    1    3    3    0    0 -0.33714487108E+02  0.44990755366E+01 -0.12361870871E+02  0.36190111537E+02  0.00000000000E+00 0. -1.
         22    1    1    2    0    0 -0.20730859403E+02  0.12666348745E+02 -0.35984915392E+02  0.43417957782E+02  0.00000000000E+00 0. -1.
<mgrwt>
<rscale>  0 0.66958051E+02</rscale>
<asrwt>0</asrwt>
<pdfrwt beam="1">  1        2 0.20270851E-01 0.93879320E+02</pdfrwt>
<pdfrwt beam="2">  1       -2 0.42539086E-02 0.93879320E+02</pdfrwt>
<totfact> 0.59285936E+04</totfact>
</mgrwt>
</event>
<event>
 6    1  0.1723639E-002  0.9396591E+02  0.7546771E-02  0.1362820E+00
         -2   -1    0    0    0  501 -0.00000000000E+00  0.00000000000E+00  0.76412930081E+01  0.76412930081E+01  0.00000000000E+00 0.  1.
          2   -1    0    0  501    0  0.00000000000E+00 -0.00000000000E+00 -0.49203997169E+03  0.49203997169E+03  0.00000000000E+00 0. -1.
         23    2    1    2    0    0 -0.24208187618E+02  0.13350517274E+02 -0.39917977701E+03  0.41009033960E+03  0.89807124401E+02 0.  0.
         13    1    3    3    0    0  0.29353940201E+01 -0.19811987391E+02 -0.31494286190E+03  0.31557905134E+03  0.00000000000E+00 0. -1.
        -13    1    3    3    0    0 -0.27143581638E+02  0.33162504665E+02 -0.84236915111E+02  0.94511288253E+02  0.00000000000E+00 0.  1.
         22    1    1    2    0    0  0.24208187618E+02 -0.13350517274E+02 -0.85218901664E+02  0.89590925099E+02  0.00000000000E+00 0. -1.
<mgrwt>
<rscale>  0 0.69204412E+02</rscale>
<asrwt>0</asrwt>
<pdfrwt beam="1">  1        2 0.75698449E-01 0.93965910E+02</pdfrwt>
<pdfrwt beam="2">  1       -2 0.11755837E-02 0.93965910E+02</pdfrwt>
<totfact> 0.93177349E+04</totfact>
</mgrwt>
</event>
<event>
 6    1  0.1723639E-002  0.9155429E+02  0.7546771E-02  0.1412460E+00
         -2   -1    0    0    0  501 -0.00000000000E+00  0.00000000000E+00  0.39440462620E+02  0.39440462620E+02  0.00000000000E+00 0.  1.
          2   -1    0    0  501    0  0.00000000000E+00 -0.00000000000E+00 -0.71807040379E+02  0.71807040379E+02  0.00000000000E+00 0. -1.
         23    2    1    2    0    0  0.10155842996E+02 -0.87706488075E+01 -0.21662009790E+02  0.94082037585E+02  0.90565565755E+02 0.  0.
         13    1    3    3    0    0 -0.29193152349E+01  0.39787496441E+02 -0.17681100408E+02  0.43637009363E+02  0.00000000000E+00 0. -1.
        -13    1    3    3    0    0  0.13075158231E+02 -0.48558145249E+02 -0.39809093820E+01  0.50445028222E+02  0.00000000000E+00 0.  1.
         22    1    1    2    0    0 -0.10155842996E+02  0.87706488075E+01 -0.10704567969E+02  0.17165465413E+02  0.00000000000E+00 0. -1.
<mgrwt>
<rscale>  0 0.56648420E+02</rscale>
<asrwt>0</asrwt>
<pdfrwt beam="1">  1        2 0.11047237E-01 0.91554285E+02</pdfrwt>
<pdfrwt beam="2">  1       -2 0.60677635E-02 0.91554285E+02</pdfrwt>
<totfact> 0.70316676E+04</totfact>
</mgrwt>
</event>
<event>
 6    1  0.1723639E-002  0.8815751E+02  0.7546771E-02  0.1385794E+00
          2   -1    0    0  501    0  0.00000000000E+00  0.00000000000E+00  0.13050676337E+04  0.13050676337E+04  0.00000000000E+00 0. -1.
         -2   -1    0    0    0  501 -0.00000000000E+00 -0.00000000000E+00 -0.28505107992E+01  0.28505107992E+01  0.00000000000E+00 0.  1.
         23    2    1    2    0    0  0.20736420283E+02 -0.98139801780E+01  0.11963550962E+04  0.11995987924E+04  0.85120110966E+02 0.  0.
         13    1    3    3    0    0 -0.71053310219E+01  0.20794519255E+02  0.96697123355E+02  0.99162651362E+02  0.00000000000E+00 0.  1.
        -13    1    3    3    0    0  0.27841751305E+02 -0.30608499433E+02  0.10996579728E+04  0.11004361410E+04  0.00000000000E+00 0. -1.
         22    1    1    2    0    0 -0.20736420283E+02  0.98139801780E+01  0.10586202673E+03  0.10831935209E+03  0.00000000000E+00 0.  1.
<mgrwt>
<rscale>  0 0.62965120E+02</rscale>
<asrwt>0</asrwt>
<pdfrwt beam="1">  1        2 0.20077916E+00 0.88157510E+02</pdfrwt>
<pdfrwt beam="2">  1       -2 0.43854116E-03 0.88157510E+02</pdfrwt>
<totfact> 0.10858240E+05</totfact>
</mgrwt>
</event>
<event>
 6    1  0.1723639E-002  0.1363173E+03  0.7546771E-02  0.1232543E+00
         -2   -1    0    0    0  501 -0.00000000000E+00  0.00000000000E+00  0.32160119920E+03  0.32160119920E+03  0.00000000000E+00 0.  1.
          2   -1    0    0  501    0  0.00000000000E+00 -0.00000000000E+00 -0.69541590927E+02  0.69541590927E+02  0.00000000000E+00 0. -1.
         23    2    1    2    0    0  0.38617583208E+02 -0.93876026102E+02  0.25548391033E+03  0.28957630031E+03  0.90985599160E+02 0.  0.
         13    1    3    3    0    0  0.34033869576E+02 -0.10277407359E+03  0.25752922070E+03  0.27936018685E+03  0.00000000000E+00 0.  1.
        -13    1    3    3    0    0  0.45837136315E+01  0.88980474889E+01 -0.20453103711E+01  0.10216113463E+02  0.00000000000E+00 0. -1.
         22    1    1    2    0    0 -0.38617583208E+02  0.93876026102E+02 -0.34243020538E+01  0.10156648982E+03  0.00000000000E+00 0. -1.
<mgrwt>
<rscale>  0 0.12663072E+03</rscale>
<asrwt>0</asrwt>
<pdfrwt beam="1">  1        2 0.10698706E-01 0.13631730E+03</pdfrwt>
<pdfrwt beam="2">  1       -2 0.49477107E-01 0.13631730E+03</pdfrwt>
<totfact> 0.22299995E+03</totfact>
</mgrwt>
</event>
<event>
 6    1  0.1723639E-002  0.9339811E+02  0.7546771E-02  0.1412997E+00
          2   -1    0    0  501    0  0.00000000000E+00  0.00000000000E+00  0.10909500101E+03  0.10909500101E+03  0.00000000000E+00 0. -1.
         -2   -1    0    0    0  501 -0.00000000000E+00 -0.00000000000E+00 -0.25791570835E+02  0.25791570835E+02  0.00000000000E+00 0.  1.
         23    2    1    2    0    0 -0.11544223671E+02  0.48837127048E+01  0.70983083698E+02  0.11731071661E+03  0.92553153971E+02 0.  0.
         11    1    3    3    0    0  0.14222445812E+02  0.28175335933E+02  0.75928438620E+02  0.82226852737E+02  0.00000000000E+00 0. -1.
        -11    1    3    3    0    0 -0.25766669483E+02 -0.23291623228E+02 -0.49453549214E+01  0.35083863871E+02  0.00000000000E+00 0.  1.
         22    1    1    2    0    0  0.11544223671E+02 -0.48837127048E+01  0.12320346473E+02  0.17575855233E+02  0.00000000000E+00 0. -1.
<mgrwt>
<rscale>  0 0.56530444E+02</rscale>
<asrwt>0</asrwt>
<pdfrwt beam="1">  1        2 0.16783846E-01 0.93398105E+02</pdfrwt>
<pdfrwt beam="2">  1       -2 0.39679340E-02 0.93398105E+02</pdfrwt>
<totfact> 0.81228241E+04</totfact>
</mgrwt>
</event>
<event>
 6    1  0.1723639E-002  0.9674092E+02  0.7546771E-02  0.1400410E+00
         -2   -1    0    0    0  501 -0.00000000000E+00  0.00000000000E+00  0.57660624158E+01  0.57660624158E+01  0.00000000000E+00 0.  1.
          2   -1    0    0  501    0  0.00000000000E+00 -0.00000000000E+00 -0.54455976655E+03  0.54455976655E+03  0.00000000000E+00 0. -1.
         23    2    1    2    0    0 -0.21853094658E+01  0.13566245734E+02 -0.49710647717E+03  0.50643228169E+03  0.95760052679E+02 0.  0.
         13    1    3    3    0    0  0.18670668751E+01 -0.91095126566E+00 -0.48964394078E+03  0.48964834781E+03  0.00000000000E+00 0. -1.
        -13    1    3    3    0    0 -0.40523763409E+01  0.14477197000E+02 -0.74625363900E+01  0.16783933876E+02  0.00000000000E+00 0.  1.
         22    1    1    2    0    0  0.21853094658E+01 -0.13566245734E+02 -0.41687226963E+02  0.43893547279E+02  0.00000000000E+00 0. -1.
<mgrwt>
<rscale>  0 0.59389992E+02</rscale>
<asrwt>0</asrwt>
<pdfrwt beam="1">  1        2 0.83778454E-01 0.96740924E+02</pdfrwt>
<pdfrwt beam="2">  1       -2 0.88708622E-03 0.96740924E+02</pdfrwt>
<totfact> 0.12489213E+05</totfact>
</mgrwt>
</event>
<event>
 6    1  0.1723639E-002  0.9295808E+02  0.7546771E-02  0.1422992E+00
          2   -1    0    0  501    0  0.00000000000E+00  0.00000000000E+00  0.33921926916E+02  0.33921926916E+02  0.00000000000E+00 0.  1.
         -2   -1    0    0    0  501 -0.00000000000E+00 -0.00000000000E+00 -0.79515887996E+02  0.79515887996E+02  0.00000000000E+00 0. -1.
         23    2    1    2    0    0  0.10459861125E+02 -0.30554349512E+01 -0.40182107715E+02  0.10127095277E+03  0.92317169137E+02 0.  0.
         13    1    3    3    0    0 -0.40691037669E+00  0.40189535645E+02 -0.39967184639E+02  0.56681039152E+02  0.00000000000E+00 0. -1.
        -13    1    3    3    0    0  0.10866771501E+02 -0.43244970596E+02 -0.21492307598E+00  0.44589913620E+02  0.00000000000E+00 0.  1.
         22    1    1    2    0    0 -0.10459861125E+02  0.30554349512E+01 -0.54118533652E+01  0.12166862140E+02  0.00000000000E+00 0. -1.
<mgrwt>
<rscale>  0 0.54392871E+02</rscale>
<asrwt>0</asrwt>
<pdfrwt beam="1">  1        2 0.52187580E-02 0.92958077E+02</pdfrwt>
<pdfrwt beam="2">  1       -2 0.12233213E-01 0.92958077E+02</pdfrwt>
<totfact> 0.60939627E+04</totfact>
</mgrwt>
</event>
<event>
 6    1  0.1723639E-002  0.9096515E+02  0.7546771E-02  0.1418422E+00
          4   -1    0    0  501    0  0.00000000000E+00  0.00000000000E+00  0.46031207263E+02  0.46031207263E+02  0.00000000000E+00 0. -1.
         -4   -1    0    0    0  501 -0.00000000000E+00 -0.00000000000E+00 -0.15198074644E+03  0.15198074644E+03  0.00000000000E+00 0.  1.
         23    2    1    2    0    0 -0.11520403998E+02  0.47857337186E+01 -0.13705659051E+03  0.16449670944E+03  0.90105690483E+02 0.  0.
         13    1    3    3    0    0 -0.66695094936E+01 -0.22148881201E+02 -0.13509233533E+03  0.13705836115E+03  0.00000000000E+00 0.  1.
        -13    1    3    3    0    0 -0.48508945046E+01  0.26934614919E+02 -0.19642551794E+01  0.27438348288E+02  0.00000000000E+00 0. -1.
         22    1    1    2    0    0  0.11520403998E+02 -0.47857337186E+01  0.31107051334E+02  0.33515244266E+02  0.00000000000E+00 0. -1.
<mgrwt>
<rscale>  0 0.55356100E+02</rscale>
<asrwt>0</asrwt>
<pdfrwt beam="1">  1        4 0.70817242E-02 0.90965149E+02</pdfrwt>
<pdfrwt beam="2">  1       -4 0.23381653E-01 0.90965149E+02</pdfrwt>
<totfact> 0.33879732E+03</totfact>
</mgrwt>
</event>
<event>
 6    1  0.1723639E-002  0.1039357E+03  0.7546771E-02  0.1313676E+00
         -4   -1    0    0    0  501 -0.00000000000E+00  0.00000000000E+00  0.92967172493E+02  0.92967172493E+02  0.00000000000E+00 0. -1.
          4   -1    0    0  501    0  0.00000000000E+00 -0.00000000000E+00 -0.17638556858E+03  0.17638556858E+03  0.00000000000E+00 0.  1.
         23    2    1    2    0    0 -0.19637664073E+02 -0.43785341319E+02  0.58689566244E+02  0.11936118490E+03  0.92194540569E+02 0.  0.
         13    1    3    3    0    0 -0.10537734026E+02  0.11182760842E+02 -0.18572743345E+02  0.24104870334E+02  0.00000000000E+00 0.  1.
        -13    1    3    3    0    0 -0.90999300472E+01 -0.54968102161E+02  0.77262309590E+02  0.95256314569E+02  0.00000000000E+00 0. -1.
         22    1    1    2    0    0  0.19637664073E+02  0.43785341319E+02 -0.14210796233E+03  0.14999155617E+03  0.00000000000E+00 0.  1.
<mgrwt>
<rscale>  0 0.85675255E+02</rscale>
<asrwt>0</asrwt>
<pdfrwt beam="1">  1        4 0.27136241E-01 0.10393569E+03</pdfrwt>
<pdfrwt beam="2">  1       -4 0.14302642E-01 0.10393569E+03</pdfrwt>
<totfact> 0.82116419E+02</totfact>
</mgrwt>
</event>
<event>
 6    1  0.1723639E-002  0.9221376E+02  0.7546771E-02  0.1426019E+00
          2   -1    0    0  501    0  0.00000000000E+00  0.00000000000E+00  0.29991534401E+03  0.29991534401E+03  0.00000000000E+00 0. -1.
         -2   -1    0    0    0  501 -0.00000000000E+00 -0.00000000000E+00 -0.92907472707E+01  0.92907472707E+01  0.00000000000E+00 0.  1.
         23    2    1    2    0    0  0.96573446463E+01  0.45095552051E+01  0.23262725398E+03  0.25023752202E+03  0.91595729910E+02 0.  0.
         11    1    3    3    0    0  0.42104151569E+02 -0.11085646703E+02  0.61421643679E+02  0.75287910414E+02  0.00000000000E+00 0.  1.
        -11    1    3    3    0    0 -0.32446806923E+02  0.15595201908E+02  0.17120561030E+03  0.17494961160E+03  0.00000000000E+00 0. -1.
         22    1    1    2    0    0 -0.96573446463E+01 -0.45095552051E+01  0.57997342760E+02  0.58968569264E+02  0.00000000000E+00 0. -1.
<mgrwt>
<rscale>  0 0.53767431E+02</rscale>
<asrwt>0</asrwt>
<pdfrwt beam="1">  1        2 0.46140815E-01 0.92213763E+02</pdfrwt>
<pdfrwt beam="2">  1       -2 0.14293460E-02 0.92213763E+02</pdfrwt>
<totfact> 0.11863198E+05</totfact>
</mgrwt>
</event>
<event>
 6    1  0.1723639E-002  0.5996287E+02  0.7546771E-02  0.1473779E+00
         -3   -1    0    0    0  501 -0.00000000000E+00  0.00000000000E+00  0.17476437358E+03  0.17476437358E+03  0.00000000000E+00 0.  1.
          3   -1    0    0  501    0  0.00000000000E+00 -0.00000000000E+00 -0.92180358376E+01  0.92180358376E+01  0.00000000000E+00 0. -1.
         23    2    1    2    0    0  0.14797391243E+02  0.12191576684E+02  0.13753273607E+03  0.15003599269E+03  0.56815035718E+02 0.  0.
         11    1    3    3    0    0 -0.35503039932E+01  0.17492834765E+02  0.12695596976E+03  0.12820461062E+03  0.00000000000E+00 0.  1.
        -11    1    3    3    0    0  0.18347695236E+02 -0.53012580817E+01  0.10576766308E+02  0.21831382074E+02  0.00000000000E+00 0. -1.
         22    1    1    2    0    0 -0.14797391243E+02 -0.12191576684E+02  0.28013601676E+02  0.33946416725E+02  0.00000000000E+00 0. -1.
<mgrwt>
<rscale>  0 0.45090323E+02</rscale>
<asrwt>0</asrwt>
<pdfrwt beam="1">  1        3 0.14181595E-02 0.59962869E+02</pdfrwt>
<pdfrwt beam="2">  1       -3 0.26886824E-01 0.59962869E+02</pdfrwt>
<totfact> 0.37802704E+04</totfact>
</mgrwt>
</event>
<event>
 6    1  0.1723639E-002  0.9194828E+02  0.7546771E-02  0.1408559E+00
          2   -1    0    0  501    0  0.00000000000E+00  0.00000000000E+00  0.57739914156E+03  0.57739914156E+03  0.00000000000E+00 0. -1.
         -2   -1    0    0    0  501 -0.00000000000E+00 -0.00000000000E+00 -0.48686003704E+01  0.48686003704E+01  0.00000000000E+00 0.  1.
         23    2    1    2    0    0 -0.35398339952E+01  0.13625768982E+02  0.49327310209E+03  0.50176970681E+03  0.90864148183E+02 0.  0.
         11    1    3    3    0    0  0.41422074734E+02  0.12926696442E+02  0.17317935877E+03  0.17853284868E+03  0.00000000000E+00 0.  1.
        -11    1    3    3    0    0 -0.44961908730E+02  0.69907254002E+00  0.32009374332E+03  0.32323685813E+03  0.00000000000E+00 0. -1.
         22    1    1    2    0    0  0.35398339952E+01 -0.13625768982E+02  0.79257439108E+02  0.80498035125E+02  0.00000000000E+00 0.  1.
<mgrwt>
<rscale>  0 0.57516634E+02</rscale>
<asrwt>0</asrwt>
<pdfrwt beam="1">  1        2 0.88830583E-01 0.91948276E+02</pdfrwt>
<pdfrwt beam="2">  1       -2 0.74901590E-03 0.91948276E+02</pdfrwt>
<totfact> 0.14755276E+05</totfact>
</mgrwt>
</event>
<event>
 6    1  0.1723639E-002  0.9227010E+02  0.7546771E-02  0.1411798E+00
         -4   -1    0    0    0  501 -0.00000000000E+00  0.00000000000E+00  0.23839080657E+02  0.23839080657E+02  0.00000000000E+00 0.  1.
          4   -1    0    0  501    0  0.00000000000E+00 -0.00000000000E+00 -0.14472156234E+03  0.14472156234E+03  0.00000000000E+00 0. -1.
         23    2    1    2    0    0 -0.98246170575E+01  0.88824865566E+01 -0.69548373348E+02  0.11554543436E+03  0.91314563457E+02 0.  0.
         11    1    3    3    0    0 -0.71976540100E+01  0.31930604245E+02 -0.82656006171E+02  0.88900984623E+02  0.00000000000E+00 0. -1.
        -11    1    3    3    0    0 -0.26269630475E+01 -0.23048117688E+02  0.13107632823E+02  0.26644449742E+02  0.00000000000E+00 0.  1.
         22    1    1    2    0    0  0.98246170575E+01 -0.88824865566E+01 -0.51334108336E+02  0.53015208633E+02  0.00000000000E+00 0.  1.
<mgrwt>
<rscale>  0 0.56794482E+02</rscale>
<asrwt>0</asrwt>
<pdfrwt beam="1">  1        4 0.22264856E-01 0.92270099E+02</pdfrwt>
<pdfrwt beam="2">  1       -4 0.36675509E-02 0.92270099E+02</pdfrwt>
<totfact> 0.10626155E+04</totfact>
</mgrwt>
</event>
<event>
 6    1  0.1723639E-002  0.9085657E+02  0.7546771E-02  0.1427478E+00
          2   -1    0    0  501    0  0.00000000000E+00  0.00000000000E+00  0.11217198911E+03  0.11217198911E+03  0.00000000000E+00 0. -1.
         -2   -1    0    0    0  501 -0.00000000000E+00 -0.00000000000E+00 -0.23676830091E+02  0.23676830091E+02  0.00000000000E+00 0.  1.
         23    2    1    2    0    0 -0.10849080960E+02 -0.10341790790E+01  0.71308818873E+02  0.11549833096E+03  0.90200580493E+02 0.  0.
         11    1    3    3    0    0  0.32854044660E+02  0.22761929323E+02  0.40871074726E+02  0.57165885161E+02  0.00000000000E+00 0. -1.
        -11    1    3    3    0    0 -0.43703125620E+02 -0.23796108402E+02  0.30437744147E+02  0.58332445798E+02  0.00000000000E+00 0.  1.
         22    1    1    2    0    0  0.10849080960E+02  0.10341790790E+01  0.17186340144E+02  0.20350488240E+02  0.00000000000E+00 0. -1.
<mgrwt>
<rscale>  0 0.53469554E+02</rscale>
<asrwt>0</asrwt>
<pdfrwt beam="1">  1        2 0.17257229E-01 0.90856573E+02</pdfrwt>
<pdfrwt beam="2">  1       -2 0.36425893E-02 0.90856573E+02</pdfrwt>
<totfact> 0.88855960E+04</totfact>
</mgrwt>
</event>
<event>
 6    1  0.1723639E-002  0.9161194E+02  0.7546771E-02  0.1426839E+00
          2   -1    0    0  501    0  0.00000000000E+00  0.00000000000E+00  0.56376845218E+03  0.56376845218E+03  0.00000000000E+00 0. -1.
         -2   -1    0    0    0  501 -0.00000000000E+00 -0.00000000000E+00 -0.46659854739E+01  0.46659854739E+01  0.00000000000E+00 0.  1.
         23    2    1    2    0    0  0.35360526417E+01 -0.10135789838E+02  0.51118454327E+03  0.51932878330E+03  0.90980822007E+02 0.  0.
         11    1    3    3    0    0 -0.10251829042E+02  0.58545055169E+01  0.48732736477E+03  0.48747034339E+03  0.00000000000E+00 0. -1.
        -11    1    3    3    0    0  0.13787881684E+02 -0.15990295355E+02  0.23857178503E+02  0.31858439902E+02  0.00000000000E+00 0.  1.
         22    1    1    2    0    0 -0.35360526417E+01  0.10135789838E+02  0.47917923429E+02  0.49105654355E+02  0.00000000000E+00 0.  1.
<mgrwt>
<rscale>  0 0.53599839E+02</rscale>
<asrwt>0</asrwt>
<pdfrwt beam="1">  1        2 0.86733554E-01 0.91611942E+02</pdfrwt>
<pdfrwt beam="2">  1       -2 0.71784437E-03 0.91611942E+02</pdfrwt>
<totfact> 0.16076760E+05</totfact>
</mgrwt>
</event>
<event>
 6    1  0.1723639E-002  0.9071029E+02  0.7546771E-02  0.1374176E+00
         -2   -1    0    0    0  501 -0.00000000000E+00  0.00000000000E+00  0.15326867671E+02  0.15326867671E+02  0.00000000000E+00 0.  1.
          2   -1    0    0  501    0  0.00000000000E+00 -0.00000000000E+00 -0.24544827876E+03  0.24544827876E+03  0.00000000000E+00 0. -1.
         23    2    1    2    0    0 -0.14721520031E+02 -0.20762727013E+02 -0.13754313499E+03  0.16476185990E+03  0.87066310990E+02 0.  0.
         13    1    3    3    0    0 -0.32036659363E+02 -0.38708568794E+02 -0.40413784779E+02  0.64482360700E+02  0.00000000000E+00 0.  1.
        -13    1    3    3    0    0  0.17315139332E+02  0.17945841782E+02 -0.97129350207E+02  0.10027949920E+03  0.00000000000E+00 0. -1.
         22    1    1    2    0    0  0.14721520031E+02  0.20762727013E+02 -0.92578276108E+02  0.96013286540E+02  0.00000000000E+00 0.  1.
<mgrwt>
<rscale>  0 0.66019724E+02</rscale>
<asrwt>0</asrwt>
<pdfrwt beam="1">  1        2 0.37761273E-01 0.90710289E+02</pdfrwt>
<pdfrwt beam="2">  1       -2 0.23579797E-02 0.90710289E+02</pdfrwt>
<totfact> 0.71224802E+04</totfact>
</mgrwt>
</event>
<event>
 6    1  0.1723639E-002  0.9237157E+02  0.7546771E-02  0.1416534E+00
          2   -1    0    0  501    0  0.00000000000E+00  0.00000000000E+00  0.19727549010E+03  0.19727549010E+03  0.00000000000E+00 0. -1.
         -2   -1    0    0    0  501 -0.00000000000E+00 -0.00000000000E+00 -0.14159659311E+02  0.14159659311E+02  0.00000000000E+00 0.  1.
         23    2    1    2    0    0 -0.91706591792E+01 -0.81459514690E+01  0.15046827477E+03  0.17655936370E+03  0.91553534512E+02 0.  0.
         11    1    3    3    0    0  0.28278642376E+02 -0.15298884010E+02  0.12870227526E+03  0.13265750308E+03  0.00000000000E+00 0. -1.
        -11    1    3    3    0    0 -0.37449301555E+02  0.71529325407E+01  0.21765999510E+02  0.43901860616E+02  0.00000000000E+00 0.  1.
         22    1    1    2    0    0  0.91706591792E+01  0.81459514690E+01  0.32647556011E+02  0.34875785706E+02  0.00000000000E+00 0. -1.
<mgrwt>
<rscale>  0 0.55760991E+02</rscale>
<asrwt>0</asrwt>
<pdfrwt beam="1">  1        2 0.30350073E-01 0.92371571E+02</pdfrwt>
<pdfrwt beam="2">  1       -2 0.21784093E-02 0.92371571E+02</pdfrwt>
<totfact> 0.10091451E+05</totfact>
</mgrwt>
</event>
<event>
 6    1  0.1723639E-002  0.9136369E+02  0.7546771E-02  0.1406684E+00
          4   -1    0    0  501    0  0.00000000000E+00  0.00000000000E+00  0.33107410921E+02  0.33107410921E+02  0.00000000000E+00 0. -1.
         -4   -1    0    0    0  501 -0.00000000000E+00 -0.00000000000E+00 -0.88019806815E+02  0.88019806815E+02  0.00000000000E+00 0.  1.
         23    2    1    2    0    0 -0.11332000837E+02  0.94848081922E+01 -0.54416552262E+02  0.10634135657E+03  0.90160673958E+02 0.  0.
         13    1    3    3    0    0 -0.19274582319E+02  0.20586219831E+02  0.17467667383E+02  0.33172599752E+02  0.00000000000E+00 0. -1.
        -13    1    3    3    0    0  0.79425814817E+01 -0.11101411639E+02 -0.71884219645E+02  0.73168756822E+02  0.00000000000E+00 0.  1.
         22    1    1    2    0    0  0.11332000837E+02 -0.94848081922E+01 -0.49584363272E+00  0.14785861163E+02  0.00000000000E+00 0.  1.
<mgrwt>
<rscale>  0 0.57940305E+02</rscale>
<asrwt>0</asrwt>
<pdfrwt beam="1">  1        4 0.50934480E-02 0.91363685E+02</pdfrwt>
<pdfrwt beam="2">  1       -4 0.13541508E-01 0.91363685E+02</pdfrwt>
<totfact> 0.15104463E+04</totfact>
</mgrwt>
</event>
<event>
 6    1  0.1723639E-002  0.1038687E+03  0.7546771E-02  0.1340319E+00
         -2   -1    0    0    0  501 -0.00000000000E+00  0.00000000000E+00  0.69159340670E+02  0.69159340670E+02  0.00000000000E+00 0.  1.
          2   -1    0    0  501    0  0.00000000000E+00 -0.00000000000E+00 -0.93443998818E+02  0.93443998818E+02  0.00000000000E+00 0. -1.
         23    2    1    2    0    0 -0.29863815773E+02 -0.30727502062E+01  0.23196386080E+02  0.10642737623E+03  0.99435530866E+02 0.  0.
         11    1    3    3    0    0  0.26839091480E+02  0.20504236873E+01  0.38957506513E+02  0.47352174000E+02  0.00000000000E+00 0.  1.
        -11    1    3    3    0    0 -0.56702907253E+02 -0.51231738936E+01 -0.15761120433E+02  0.59075202235E+02  0.00000000000E+00 0. -1.
         22    1    1    2    0    0  0.29863815773E+02  0.30727502062E+01 -0.47481044229E+02  0.56175963253E+02  0.00000000000E+00 0. -1.
<mgrwt>
<rscale>  0 0.76159074E+02</rscale>
<asrwt>0</asrwt>
<pdfrwt beam="1">  1        2 0.14376000E-01 0.10386873E+03</pdfrwt>
<pdfrwt beam="2">  1       -2 0.10639899E-01 0.10386873E+03</pdfrwt>
<totfact> 0.22123776E+04</totfact>
</mgrwt>
</event>
<event>
 6    1  0.1723639E-002  0.9397056E+02  0.7546771E-02  0.1403494E+00
          4   -1    0    0  501    0  0.00000000000E+00  0.00000000000E+00  0.22410964663E+02  0.22410964663E+02  0.00000000000E+00 0. -1.
         -4   -1    0    0    0  501 -0.00000000000E+00 -0.00000000000E+00 -0.13387629595E+03  0.13387629595E+03  0.00000000000E+00 0.  1.
         23    2    1    2    0    0 -0.53476515660E+01 -0.13240860197E+02 -0.87559629343E+02  0.12844124938E+03  0.92879212401E+02 0.  0.
         11    1    3    3    0    0 -0.71888940033E+01  0.12422079415E+01  0.19277196233E+02  0.20611491265E+02  0.00000000000E+00 0. -1.
        -11    1    3    3    0    0  0.18412424373E+01 -0.14483068138E+02 -0.10683682558E+03  0.10782975812E+03  0.00000000000E+00 0.  1.
         22    1    1    2    0    0  0.53476515660E+01  0.13240860197E+02 -0.23905701943E+02  0.27846011229E+02  0.00000000000E+00 0.  1.
<mgrwt>
<rscale>  0 0.58671303E+02</rscale>
<asrwt>0</asrwt>
<pdfrwt beam="1">  1        4 0.34478407E-02 0.93970558E+02</pdfrwt>
<pdfrwt beam="2">  1       -4 0.20596353E-01 0.93970558E+02</pdfrwt>
<totfact> 0.13538470E+04</totfact>
</mgrwt>
</event>
<event>
 6    1  0.1723639E-002  0.9350709E+02  0.7546771E-02  0.1386618E+00
         -2   -1    0    0    0  501 -0.00000000000E+00  0.00000000000E+00  0.15468741515E+04  0.15468741515E+04  0.00000000000E+00 0.  1.
          2   -1    0    0  501    0  0.00000000000E+00 -0.00000000000E+00 -0.43753980116E+01  0.43753980116E+01  0.00000000000E+00 0. -1.
         23    2    1    2    0    0 -0.11352501144E+02 -0.15198910270E+02  0.15147643018E+04  0.15176476751E+04  0.91562489281E+02 0.  0.
         11    1    3    3    0    0  0.16518618103E+02  0.32116090674E+02  0.43915495030E+03  0.44063746821E+03  0.00000000000E+00 0. -1.
        -11    1    3    3    0    0 -0.27871119247E+02 -0.47315000945E+02  0.10756093515E+04  0.10770102069E+04  0.00000000000E+00 0.  1.
         22    1    1    2    0    0  0.11352501144E+02  0.15198910270E+02  0.27734451623E+02  0.33601874389E+02  0.00000000000E+00 0. -1.
<mgrwt>
<rscale>  0 0.62755825E+02</rscale>
<asrwt>0</asrwt>
<pdfrwt beam="1">  1        2 0.67313939E-03 0.93507088E+02</pdfrwt>
<pdfrwt beam="2">  1       -2 0.23798020E+00 0.93507088E+02</pdfrwt>
<totfact> 0.19817482E+03</totfact>
</mgrwt>
</event>
<event>
 6    1  0.1723639E-002  0.1046447E+03  0.7546771E-02  0.1306199E+00
         -4   -1    0    0    0  501 -0.00000000000E+00  0.00000000000E+00  0.46964301198E+03  0.46964301198E+03  0.00000000000E+00 0.  1.
          4   -1    0    0  501    0  0.00000000000E+00 -0.00000000000E+00 -0.18182719627E+02  0.18182719627E+02  0.00000000000E+00 0. -1.
         23    2    1    2    0    0  0.10205205881E+02 -0.52877127585E+02  0.39955343414E+03  0.41302961688E+03  0.89723914523E+02 0.  0.
         11    1    3    3    0    0  0.46965758889E+01 -0.55623162309E+02  0.10946858430E+03  0.12287947330E+03  0.00000000000E+00 0. -1.
        -11    1    3    3    0    0  0.55086299926E+01  0.27460347241E+01  0.29008484984E+03  0.29015014358E+03  0.00000000000E+00 0.  1.
         22    1    1    2    0    0 -0.10205205881E+02  0.52877127585E+02  0.51906858209E+02  0.74796114724E+02  0.00000000000E+00 0. -1.
<mgrwt>
<rscale>  0 0.88631950E+02</rscale>
<asrwt>0</asrwt>
<pdfrwt beam="1">  1        4 0.27973418E-02 0.10464472E+03</pdfrwt>
<pdfrwt beam="2">  1       -4 0.72252762E-01 0.10464472E+03</pdfrwt>
<totfact> 0.16629121E+03</totfact>
</mgrwt>
</event>
<event>
 6    1  0.1723639E-002  0.9260711E+02  0.7546771E-02  0.1405618E+00
          2   -1    0    0  501    0  0.00000000000E+00  0.00000000000E+00  0.11729417111E+03  0.11729417111E+03  0.00000000000E+00 0. -1.
         -2   -1    0    0    0  501 -0.00000000000E+00 -0.00000000000E+00 -0.25749295812E+02  0.25749295812E+02  0.00000000000E+00 0.  1.
         23    2    1    2    0    0  0.72580752799E+01  0.12471538268E+02  0.66050113163E+02  0.11374838509E+03  0.91476000880E+02 0.  0.
         11    1    3    3    0    0  0.45820898547E+02 -0.10129423710E+02  0.25552978836E+02  0.53433273302E+02  0.00000000000E+00 0.  1.
        -11    1    3    3    0    0 -0.38562823267E+02  0.22600961978E+02  0.40497134327E+02  0.60315111783E+02  0.00000000000E+00 0. -1.
         22    1    1    2    0    0 -0.72580752799E+01 -0.12471538268E+02  0.25494762137E+02  0.29295081839E+02  0.00000000000E+00 0. -1.
<mgrwt>
<rscale>  0 0.58183292E+02</rscale>
<asrwt>0</asrwt>
<pdfrwt beam="1">  1        2 0.18045257E-01 0.92607115E+02</pdfrwt>
<pdfrwt beam="2">  1       -2 0.39614302E-02 0.92607115E+02</pdfrwt>
<totfact> 0.74892344E+04</totfact>
</mgrwt>
</event>
<event>
 6    1  0.1723639E-002  0.9967684E+02  0.7546771E-02  0.1326644E+00
          2   -1    0    0  501    0  0.00000000000E+00  0.00000000000E+00  0.11497171538E+03  0.11497171538E+03  0.00000000000E+00 0. -1.
         -2   -1    0    0    0  501 -0.00000000000E+00 -0.00000000000E+00 -0.46212556823E+02  0.46212556823E+02  0.00000000000E+00 0.  1.
         23    2    1    2    0    0  0.35060433672E+02  0.25162209913E+02  0.32568822924E+02  0.10486277355E+03  0.89850443701E+02 0.  0.
         13    1    3    3    0    0 -0.11999039419E+02 -0.26914344852E+02  0.10578157502E+02  0.31309045369E+02  0.00000000000E+00 0.  1.
        -13    1    3    3    0    0  0.47059473091E+02  0.52076554765E+02  0.21990665421E+02  0.73553728182E+02  0.00000000000E+00 0. -1.
         22    1    1    2    0    0 -0.35060433672E+02 -0.25162209913E+02  0.36190335633E+02  0.56321498650E+02  0.00000000000E+00 0.  1.
<mgrwt>
<rscale>  0 0.80854459E+02</rscale>
<asrwt>0</asrwt>
<pdfrwt beam="1">  1        2 0.17687956E-01 0.99676843E+02</pdfrwt>
<pdfrwt beam="2">  1       -2 0.71096241E-02 0.99676843E+02</pdfrwt>
<totfact> 0.32301913E+04</totfact>
</mgrwt>
</event>
<event>
 6    1  0.1723639E-002  0.9454159E+02  0.7546771E-02  0.1385004E+00
         -2   -1    0    0    0  501 -0.00000000000E+00  0.00000000000E+00  0.36136030559E+02  0.36136030559E+02  0.00000000000E+00 0.  1.
          2   -1    0    0  501    0  0.00000000000E+00 -0.00000000000E+00 -0.96846846566E+02  0.96846846566E+02  0.00000000000E+00 0. -1.
         23    2    1    2    0    0 -0.16541824751E+02  0.90171558166E+01 -0.34364192249E+02  0.10059328545E+03  0.92645400882E+02 0.  0.
         13    1    3    3    0    0  0.73440840999E+01  0.10088132174E+02 -0.62463739230E+02  0.63697917554E+02  0.00000000000E+00 0. -1.
        -13    1    3    3    0    0 -0.23885908851E+02 -0.10709763574E+01  0.28099546982E+02  0.36895367901E+02  0.00000000000E+00 0.  1.
         22    1    1    2    0    0  0.16541824751E+02 -0.90171558166E+01 -0.26346623759E+02  0.32389591670E+02  0.00000000000E+00 0. -1.
<mgrwt>
<rscale>  0 0.63166482E+02</rscale>
<asrwt>0</asrwt>
<pdfrwt beam="1">  1        2 0.14899515E-01 0.94541585E+02</pdfrwt>
<pdfrwt beam="2">  1       -2 0.55593894E-02 0.94541585E+02</pdfrwt>
<totfact> 0.56597625E+04</totfact>
</mgrwt>
</event>
<event>
 6    1  0.1723639E-002  0.9467249E+02  0.7546771E-02  0.1386019E+00
         -1   -1    0    0    0  501 -0.00000000000E+00  0.00000000000E+00  0.10978507347E+02  0.10978507347E+02  0.00000000000E+00 0.  1.
          1   -1    0    0  501    0  0.00000000000E+00 -0.00000000000E+00 -0.29457459264E+03  0.29457459264E+03  0.00000000000E+00 0. -1.
         23    2    1    2    0    0  0.16025062612E+02 -0.91558627098E+01 -0.22460499107E+03  0.24374224616E+03  0.92856061159E+02 0.  0.
         11    1    3    3    0    0  0.11672608222E+02  0.33995590103E+02 -0.38583212602E+02  0.52731529694E+02  0.00000000000E+00 0.  1.
        -11    1    3    3    0    0  0.43524543895E+01 -0.43151452813E+02 -0.18602177847E+03  0.19101071647E+03  0.00000000000E+00 0. -1.
         22    1    1    2    0    0 -0.16025062612E+02  0.91558627098E+01 -0.58991094221E+02  0.61810853829E+02  0.00000000000E+00 0. -1.
<mgrwt>
<rscale>  0 0.62907671E+02</rscale>
<asrwt>0</asrwt>
<pdfrwt beam="1">  1        1 0.45319162E-01 0.94672491E+02</pdfrwt>
<pdfrwt beam="2">  1       -1 0.16890013E-02 0.94672491E+02</pdfrwt>
<totfact> 0.68590964E+04</totfact>
</mgrwt>
</event>
<event>
 6    1  0.1723639E-002  0.9240657E+02  0.7546771E-02  0.1415389E+00
         -2   -1    0    0    0  501 -0.00000000000E+00  0.00000000000E+00  0.51261539746E+03  0.51261539746E+03  0.00000000000E+00 0.  1.
          2   -1    0    0  501    0  0.00000000000E+00 -0.00000000000E+00 -0.53688616383E+01  0.53688616383E+01  0.00000000000E+00 0. -1.
         23    2    1    2    0    0  0.80849348982E+01  0.94955557112E+01  0.45163899200E+03  0.46099539457E+03  0.91561143327E+02 0.  0.
         13    1    3    3    0    0 -0.19394702990E+02  0.13738799350E+00  0.40872549402E+03  0.40918541377E+03  0.00000000000E+00 0.  1.
        -13    1    3    3    0    0  0.27479637888E+02  0.93581677177E+01  0.42913497980E+02  0.51809980798E+02  0.00000000000E+00 0. -1.
         22    1    1    2    0    0 -0.80849348982E+01 -0.94955557112E+01  0.55607543820E+02  0.56988864528E+02  0.00000000000E+00 0. -1.
<mgrwt>
<rscale>  0 0.56008576E+02</rscale>
<asrwt>0</asrwt>
<pdfrwt beam="1">  1        2 0.82597911E-03 0.92406573E+02</pdfrwt>
<pdfrwt beam="2">  1       -2 0.78863869E-01 0.92406573E+02</pdfrwt>
<totfact> 0.24251353E+04</totfact>
</mgrwt>
</event>
<event>
 6    1  0.1723639E-002  0.9034349E+02  0.7546771E-02  0.1381285E+00
         -2   -1    0    0    0  501 -0.00000000000E+00  0.00000000000E+00  0.78109405183E+02  0.78109405183E+02  0.00000000000E+00 0.  1.
          2   -1    0    0  501    0  0.00000000000E+00 -0.00000000000E+00 -0.53010084447E+02  0.53010084447E+02  0.00000000000E+00 0. -1.
         23    2    1    2    0    0  0.20279738314E+01  0.22844161204E+02  0.44840368492E+02  0.10085932860E+03  0.87384078301E+02 0.  0.
         11    1    3    3    0    0  0.11252539602E+02 -0.25667685661E+02 -0.73870618134E+01  0.28983071213E+02  0.00000000000E+00 0. -1.
        -11    1    3    3    0    0 -0.92245657707E+01  0.48511846865E+02  0.52227430305E+02  0.71876257388E+02  0.00000000000E+00 0.  1.
         22    1    1    2    0    0 -0.20279738314E+01 -0.22844161204E+02 -0.19741047756E+02  0.30260161028E+02  0.00000000000E+00 0. -1.
<mgrwt>
<rscale>  0 0.64127246E+02</rscale>
<asrwt>0</asrwt>
<pdfrwt beam="1">  1        2 0.81553976E-02 0.90343486E+02</pdfrwt>
<pdfrwt beam="2">  1       -2 0.12016832E-01 0.90343486E+02</pdfrwt>
<totfact> 0.35528427E+04</totfact>
</mgrwt>
</event>
<event>
 6    1  0.1723639E-002  0.9220466E+02  0.7546771E-02  0.1391130E+00
         -4   -1    0    0    0  501 -0.00000000000E+00  0.00000000000E+00  0.65227849350E+03  0.65227849350E+03  0.00000000000E+00 0.  1.
          4   -1    0    0  501    0  0.00000000000E+00 -0.00000000000E+00 -0.53765770568E+01  0.53765770568E+01  0.00000000000E+00 0. -1.
         23    2    1    2    0    0  0.12496485807E+02  0.13505266988E+02  0.60366101968E+03  0.61066220358E+03  0.90350128968E+02 0.  0.
         13    1    3    3    0    0  0.28849215817E+02 -0.19328641330E+02  0.48999992883E+03  0.49122887119E+03  0.00000000000E+00 0.  1.
        -13    1    3    3    0    0 -0.16352730010E+02  0.32833908318E+02  0.11366109084E+03  0.11943333239E+03  0.00000000000E+00 0. -1.
         22    1    1    2    0    0 -0.12496485807E+02 -0.13505266988E+02  0.43240896760E+02  0.46992866975E+02  0.00000000000E+00 0. -1.
<mgrwt>
<rscale>  0 0.61626603E+02</rscale>
<asrwt>0</asrwt>
<pdfrwt beam="1">  1        4 0.82716622E-03 0.92204665E+02</pdfrwt>
<pdfrwt beam="2">  1       -4 0.10035047E+00 0.92204665E+02</pdfrwt>
<totfact> 0.49231816E+03</totfact>
</mgrwt>
</event>
<event>
 6    1  0.1723639E-002  0.9256009E+02  0.7546771E-02  0.1420499E+00
          1   -1    0    0  501    0  0.00000000000E+00  0.00000000000E+00  0.25759935069E+02  0.25759935069E+02  0.00000000000E+00 0. -1.
         -1   -1    0    0    0  501 -0.00000000000E+00 -0.00000000000E+00 -0.10507067987E+03  0.10507067987E+03  0.00000000000E+00 0.  1.
         23    2    1    2    0    0 -0.11333394209E+02  0.17557355929E+01 -0.69719650159E+02  0.11588011233E+03  0.91846841991E+02 0.  0.
         11    1    3    3    0    0 -0.42866547223E+02 -0.82359525025E+01 -0.59664949132E+01  0.44056450674E+02  0.00000000000E+00 0. -1.
        -11    1    3    3    0    0  0.31533153014E+02  0.99916880953E+01 -0.63753155246E+02  0.71823661657E+02  0.00000000000E+00 0.  1.
         22    1    1    2    0    0  0.11333394209E+02 -0.17557355929E+01 -0.95910946385E+01  0.14950502605E+02  0.00000000000E+00 0. -1.
<mgrwt>
<rscale>  0 0.54915544E+02</rscale>
<asrwt>0</asrwt>
<pdfrwt beam="1">  1        1 0.39630669E-02 0.92560093E+02</pdfrwt>
<pdfrwt beam="2">  1       -1 0.16164720E-01 0.92560093E+02</pdfrwt>
<totfact> 0.56340316E+04</totfact>
</mgrwt>
</event>
<event>
 6    1  0.1723639E-002  0.9311082E+02  0.7546771E-02  0.1407291E+00
          2   -1    0    0  501    0  0.00000000000E+00  0.00000000000E+00  0.18074292251E+02  0.18074292251E+02  0.00000000000E+00 0. -1.
         -2   -1    0    0    0  501 -0.00000000000E+00 -0.00000000000E+00 -0.15846387263E+03  0.15846387263E+03  0.00000000000E+00 0.  1.
         23    2    1    2    0    0 -0.66921562040E+01  0.12101996295E+02 -0.11964320603E+03  0.15160514827E+03  0.92078124230E+02 0.  0.
         13    1    3    3    0    0  0.25124903640E+01  0.51996361672E+02 -0.70632958836E+02  0.87743655662E+02  0.00000000000E+00 0. -1.
        -13    1    3    3    0    0 -0.92046465680E+01 -0.39894365377E+02 -0.49010247197E+02  0.63861492604E+02  0.00000000000E+00 0.  1.
         22    1    1    2    0    0  0.66921562040E+01 -0.12101996295E+02 -0.20746374341E+02  0.24933016610E+02  0.00000000000E+00 0.  1.
<mgrwt>
<rscale>  0 0.57802733E+02</rscale>
<asrwt>0</asrwt>
<pdfrwt beam="1">  1        2 0.27806604E-02 0.93110817E+02</pdfrwt>
<pdfrwt beam="2">  1       -2 0.24379057E-01 0.93110817E+02</pdfrwt>
<totfact> 0.44665207E+04</totfact>
</mgrwt>
</event>
<event>
 6    1  0.1723639E-002  0.9047635E+02  0.7546771E-02  0.1418934E+00
         -2   -1    0    0    0  501 -0.00000000000E+00  0.00000000000E+00  0.59840867381E+01  0.59840867381E+01  0.00000000000E+00 0.  1.
          2   -1    0    0  501    0  0.00000000000E+00 -0.00000000000E+00 -0.45070431472E+03  0.45070431472E+03  0.00000000000E+00 0. -1.
         23    2    1    2    0    0  0.82894857056E+01  0.94608182464E+01 -0.36898159807E+03  0.37991234584E+03  0.89597701719E+02 0.  0.
         11    1    3    3    0    0 -0.31133113066E+02  0.24078194551E+02 -0.26243469499E+03  0.26536955236E+03  0.00000000000E+00 0. -1.
        -11    1    3    3    0    0  0.39422598772E+02 -0.14617376304E+02 -0.10654690308E+03  0.11454279349E+03  0.00000000000E+00 0.  1.
         22    1    1    2    0    0 -0.82894857056E+01 -0.94608182464E+01 -0.75738629909E+02  0.76776055614E+02  0.00000000000E+00 0. -1.
<mgrwt>
<rscale>  0 0.55247153E+02</rscale>
<asrwt>0</asrwt>
<pdfrwt beam="1">  1        2 0.69339145E-01 0.90476355E+02</pdfrwt>
<pdfrwt beam="2">  1       -2 0.92062847E-03 0.90476355E+02</pdfrwt>
<totfact> 0.14394158E+05</totfact>
</mgrwt>
</event>
<event>
 6    1  0.1723639E-002  0.9174328E+02  0.7546771E-02  0.1420849E+00
         -2   -1    0    0    0  501 -0.00000000000E+00  0.00000000000E+00  0.82951669771E+01  0.82951669771E+01  0.00000000000E+00 0. -1.
          2   -1    0    0  501    0  0.00000000000E+00 -0.00000000000E+00 -0.32457775482E+03  0.32457775482E+03  0.00000000000E+00 0.  1.
         23    2    1    2    0    0 -0.11485457917E+02  0.23046263061E+01 -0.27140958408E+03  0.28649605781E+03  0.90992317082E+02 0.  0.
         13    1    3    3    0    0 -0.13203391576E+02  0.44611758975E+02 -0.10614440630E+03  0.11589294015E+03  0.00000000000E+00 0. -1.
        -13    1    3    3    0    0  0.17179336596E+01 -0.42307132669E+02 -0.16526517778E+03  0.17060311766E+03  0.00000000000E+00 0.  1.
         22    1    1    2    0    0  0.11485457917E+02 -0.23046263061E+01 -0.44873003767E+02  0.46376863985E+02  0.00000000000E+00 0. -1.
<mgrwt>
<rscale>  0 0.54841667E+02</rscale>
<asrwt>0</asrwt>
<pdfrwt beam="1">  1        2 0.49935031E-01 0.91743277E+02</pdfrwt>
<pdfrwt beam="2">  1       -2 0.12761798E-02 0.91743277E+02</pdfrwt>
<totfact> 0.12825586E+05</totfact>
</mgrwt>
</event>
<event>
 6    1  0.1723639E-002  0.9149350E+02  0.7546771E-02  0.1430455E+00
          2   -1    0    0  501    0  0.00000000000E+00  0.00000000000E+00  0.34050528073E+03  0.34050528073E+03  0.00000000000E+00 0. -1.
         -2   -1    0    0    0  501 -0.00000000000E+00 -0.00000000000E+00 -0.76748939838E+01  0.76748939838E+01  0.00000000000E+00 0.  1.
         23    2    1    2    0    0  0.97817248785E+01  0.28933571404E+01  0.28711181460E+03  0.30133744320E+03  0.90923082497E+02 0.  0.
         13    1    3    3    0    0 -0.19858126250E+02 -0.25938749080E+02  0.22070184681E+03  0.22310640750E+03  0.00000000000E+00 0. -1.
        -13    1    3    3    0    0  0.29639851128E+02  0.28832106220E+02  0.66409967790E+02  0.78231035694E+02  0.00000000000E+00 0.  1.
         22    1    1    2    0    0 -0.97817248785E+01 -0.28933571404E+01  0.45718572143E+02  0.46842731517E+02  0.00000000000E+00 0. -1.
<mgrwt>
<rscale>  0 0.52868848E+02</rscale>
<asrwt>0</asrwt>
<pdfrwt beam="1">  1        2 0.52385416E-01 0.91493500E+02</pdfrwt>
<pdfrwt beam="2">  1       -2 0.11807532E-02 0.91493500E+02</pdfrwt>
<totfact> 0.13617381E+05</totfact>
</mgrwt>
</event>
<event>
 6    1  0.1723639E-002  0.9850030E+02  0.7546771E-02  0.1338756E+00
          2   -1    0    0  501    0  0.00000000000E+00  0.00000000000E+00  0.33188407859E+03  0.33188407859E+03  0.00000000000E+00 0. -1.
         -2   -1    0    0    0  501 -0.00000000000E+00 -0.00000000000E+00 -0.14847551656E+02  0.14847551656E+02  0.00000000000E+00 0.  1.
         23    2    1    2    0    0  0.70658023533E+00  0.36162435367E+02  0.18211733007E+03  0.20704837903E+03  0.91619257588E+02 0.  0.
         11    1    3    3    0    0  0.16988357473E+02 -0.25827371766E+02  0.87206842709E+02  0.92524001412E+02  0.00000000000E+00 0. -1.
        -11    1    3    3    0    0 -0.16281777238E+02  0.61989807133E+02  0.94910487362E+02  0.11452437762E+03  0.00000000000E+00 0.  1.
         22    1    1    2    0    0 -0.70658023533E+00 -0.36162435367E+02  0.13491919686E+03  0.13968325121E+03  0.00000000000E+00 0.  1.
<mgrwt>
<rscale>  0 0.76676681E+02</rscale>
<asrwt>0</asrwt>
<pdfrwt beam="1">  1        2 0.51059083E-01 0.98500301E+02</pdfrwt>
<pdfrwt beam="2">  1       -2 0.22842390E-02 0.98500301E+02</pdfrwt>
<totfact> 0.54961494E+04</totfact>
</mgrwt>
</event>
<event>
 6    1  0.1723639E-002  0.8952415E+02  0.7546771E-02  0.1403141E+00
         -2   -1    0    0    0  501 -0.00000000000E+00  0.00000000000E+00  0.61362540663E+03  0.61362540663E+03  0.00000000000E+00 0.  1.
          2   -1    0    0  501    0  0.00000000000E+00 -0.00000000000E+00 -0.45893759909E+01  0.45893759909E+01  0.00000000000E+00 0. -1.
         23    2    1    2    0    0  0.10424681140E+02  0.12927539825E+02  0.51560496577E+03  0.52331926563E+03  0.87970323336E+02 0.  0.
         11    1    3    3    0    0 -0.30867430139E+02  0.13305428159E+02  0.96531661800E+02  0.10221640960E+03  0.00000000000E+00 0.  1.
        -11    1    3    3    0    0  0.41292111279E+02 -0.37788833395E+00  0.41907330397E+03  0.42110285603E+03  0.00000000000E+00 0. -1.
         22    1    1    2    0    0 -0.10424681140E+02 -0.12927539825E+02  0.93431064870E+02  0.94895516994E+02  0.00000000000E+00 0. -1.
<mgrwt>
<rscale>  0 0.58752790E+02</rscale>
<asrwt>0</asrwt>
<pdfrwt beam="1">  1        2 0.70605833E-03 0.89524148E+02</pdfrwt>
<pdfrwt beam="2">  1       -2 0.94403843E-01 0.89524148E+02</pdfrwt>
<totfact> 0.20128140E+04</totfact>
</mgrwt>
</event>
<event>
 6    1  0.1723639E-002  0.8938280E+02  0.7546771E-02  0.1410659E+00
         -2   -1    0    0    0  501 -0.00000000000E+00  0.00000000000E+00  0.45064965482E+02  0.45064965482E+02  0.00000000000E+00 0.  1.
          2   -1    0    0  501    0  0.00000000000E+00 -0.00000000000E+00 -0.63111745752E+02  0.63111745752E+02  0.00000000000E+00 0. -1.
         23    2    1    2    0    0  0.78593110044E+00 -0.14810245484E+02 -0.69477613047E+01  0.89652422287E+02  0.88143771055E+02 0.  0.
         13    1    3    3    0    0 -0.20862729295E+02  0.22514579234E+02 -0.28085200997E+02  0.41604546227E+02  0.00000000000E+00 0. -1.
        -13    1    3    3    0    0  0.21648660395E+02 -0.37324824719E+02  0.21137439692E+02  0.48047876060E+02  0.00000000000E+00 0.  1.
         22    1    1    2    0    0 -0.78593110044E+00  0.14810245484E+02 -0.11099018965E+02  0.18524288947E+02  0.00000000000E+00 0. -1.
<mgrwt>
<rscale>  0 0.57047117E+02</rscale>
<asrwt>0</asrwt>
<pdfrwt beam="1">  1        2 0.97094993E-02 0.89382803E+02</pdfrwt>
<pdfrwt beam="2">  1       -2 0.69330717E-02 0.89382803E+02</pdfrwt>
<totfact> 0.66972866E+04</totfact>
</mgrwt>
</event>
<event>
 6    1  0.1723639E-002  0.9396261E+02  0.7546771E-02  0.1373861E+00
         -2   -1    0    0    0  501 -0.00000000000E+00  0.00000000000E+00  0.15468216436E+03  0.15468216436E+03  0.00000000000E+00 0.  1.
          2   -1    0    0  501    0  0.00000000000E+00 -0.00000000000E+00 -0.24751442975E+02  0.24751442975E+02  0.00000000000E+00 0. -1.
         23    2    1    2    0    0 -0.21809051685E+02  0.73635257339E+01  0.12415213147E+03  0.15570075357E+03  0.91099487738E+02 0.  0.
         11    1    3    3    0    0 -0.35454606378E+02  0.22832746548E+02  0.15220581478E+02  0.44833352862E+02  0.00000000000E+00 0. -1.
        -11    1    3    3    0    0  0.13645554693E+02 -0.15469220814E+02  0.10893154999E+03  0.11086740070E+03  0.00000000000E+00 0.  1.
         22    1    1    2    0    0  0.21809051685E+02 -0.73635257339E+01  0.57785899165E+01  0.23732853770E+02  0.00000000000E+00 0. -1.
<mgrwt>
<rscale>  0 0.66105269E+02</rscale>
<asrwt>0</asrwt>
<pdfrwt beam="1">  1        2 0.38079144E-02 0.93962614E+02</pdfrwt>
<pdfrwt beam="2">  1       -2 0.23797256E-01 0.93962614E+02</pdfrwt>
<totfact> 0.30748801E+04</totfact>
</mgrwt>
</event>
<event>
 6    1  0.1723639E-002  0.9466579E+02  0.7546771E-02  0.1395038E+00
          2   -1    0    0  501    0  0.00000000000E+00  0.00000000000E+00  0.17592306764E+02  0.17592306764E+02  0.00000000000E+00 0.  1.
         -2   -1    0    0    0  501 -0.00000000000E+00 -0.00000000000E+00 -0.17434647920E+03  0.17434647920E+03  0.00000000000E+00 0. -1.
         23    2    1    2    0    0  0.10777816184E+02  0.11786439451E+02 -0.13722830796E+03  0.16671298846E+03  0.93308791315E+02 0.  0.
         13    1    3    3    0    0  0.11328812098E+02  0.51719422022E+02 -0.61914554108E+02  0.81465652936E+02  0.00000000000E+00 0. -1.
        -13    1    3    3    0    0 -0.55099591422E+00 -0.39932982571E+02 -0.75313753856E+02  0.85247335521E+02  0.00000000000E+00 0.  1.
         22    1    1    2    0    0 -0.10777816184E+02 -0.11786439451E+02 -0.19525864475E+02  0.25225797512E+02  0.00000000000E+00 0.  1.
<mgrwt>
<rscale>  0 0.60670792E+02</rscale>
<asrwt>0</asrwt>
<pdfrwt beam="1">  1        2 0.27065086E-02 0.94665791E+02</pdfrwt>
<pdfrwt beam="2">  1       -2 0.26822536E-01 0.94665791E+02</pdfrwt>
<totfact> 0.39316873E+04</totfact>
</mgrwt>
</event>
<event>
 6    1  0.1723639E-002  0.9111872E+02  0.7546771E-02  0.1409925E+00
         -2   -1    0    0    0  501 -0.00000000000E+00  0.00000000000E+00  0.36762912946E+01  0.36762912946E+01  0.00000000000E+00 0. -1.
          2   -1    0    0  501    0  0.00000000000E+00 -0.00000000000E+00 -0.77799407645E+03  0.77799407645E+03  0.00000000000E+00 0.  1.
         23    2    1    2    0    0  0.28730043540E+01 -0.13866223191E+02 -0.70927449472E+03  0.71510343954E+03  0.90011633058E+02 0.  0.
         13    1    3    3    0    0  0.39277375539E+02  0.15365055918E+02 -0.25855184025E+03  0.26196918000E+03  0.00000000000E+00 0.  1.
        -13    1    3    3    0    0 -0.36404371185E+02 -0.29231279109E+02 -0.45072265447E+03  0.45313425954E+03  0.00000000000E+00 0. -1.
         22    1    1    2    0    0 -0.28730043540E+01  0.13866223191E+02 -0.65043290432E+02  0.66566928198E+02  0.00000000000E+00 0.  1.
<mgrwt>
<rscale>  0 0.57210680E+02</rscale>
<asrwt>0</asrwt>
<pdfrwt beam="1">  1        2 0.11969151E+00 0.91118716E+02</pdfrwt>
<pdfrwt beam="2">  1       -2 0.56558274E-03 0.91118716E+02</pdfrwt>
<totfact> 0.15503494E+05</totfact>
</mgrwt>
</event>
<event>
 6    1  0.1723639E-002  0.9803808E+02  0.7546771E-02  0.1317297E+00
          2   -1    0    0  501    0  0.00000000000E+00  0.00000000000E+00  0.20210121366E+03  0.20210121366E+03  0.00000000000E+00 0. -1.
         -2   -1    0    0    0  501 -0.00000000000E+00 -0.00000000000E+00 -0.43335867424E+02  0.43335867424E+02  0.00000000000E+00 0.  1.
         23    2    1    2    0    0 -0.61403546151E+01  0.53219708413E+02  0.16456175159E+03  0.19155165047E+03  0.82106171455E+02 0.  0.
         11    1    3    3    0    0 -0.62397481027E+01  0.63241446891E+02  0.62957311208E+02  0.89454111677E+02  0.00000000000E+00 0.  1.
        -11    1    3    3    0    0  0.99393487614E-01 -0.10021738478E+02  0.10160444038E+03  0.10209753879E+03  0.00000000000E+00 0. -1.
         22    1    1    2    0    0  0.61403546151E+01 -0.53219708413E+02 -0.57964053512E+01  0.53885430622E+02  0.00000000000E+00 0. -1.
<mgrwt>
<rscale>  0 0.84291175E+02</rscale>
<asrwt>0</asrwt>
<pdfrwt beam="1">  1        2 0.31092494E-01 0.98038078E+02</pdfrwt>
<pdfrwt beam="2">  1       -2 0.66670566E-02 0.98038078E+02</pdfrwt>
<totfact> 0.19103788E+04</totfact>
</mgrwt>
</event>
<event>
 6    1  0.1723639E-002  0.1124079E+03  0.7546771E-02  0.1287428E+00
          2   -1    0    0  501    0  0.00000000000E+00  0.00000000000E+00  0.21087575864E+03  0.21087575864E+03  0.00000000000E+00 0. -1.
         -2   -1    0    0    0  501 -0.00000000000E+00 -0.00000000000E+00 -0.70758868758E+02  0.70758868758E+02  0.00000000000E+00 0.  1.
         23    2    1    2    0    0  0.57277735949E+02 -0.22454502723E+02 -0.16272259355E+02  0.11357954795E+03  0.94077540151E+02 0.  0.
         13    1    3    3    0    0  0.12545692723E+01 -0.54751458196E+00  0.34704021185E+02  0.34731006359E+02  0.00000000000E+00 0. -1.
        -13    1    3    3    0    0  0.56023166677E+02 -0.21906988141E+02 -0.50976280540E+02  0.78848541594E+02  0.00000000000E+00 0.  1.
         22    1    1    2    0    0 -0.57277735949E+02  0.22454502723E+02  0.15638914923E+03  0.16805507944E+03  0.00000000000E+00 0. -1.
<mgrwt>
<rscale>  0 0.96684074E+02</rscale>
<asrwt>0</asrwt>
<pdfrwt beam="1">  1        2 0.32442424E-01 0.11240786E+03</pdfrwt>
<pdfrwt beam="2">  1       -2 0.10885980E-01 0.11240786E+03</pdfrwt>
<totfact> 0.86784760E+03</totfact>
</mgrwt>
</event>
<event>
 6    1  0.1723639E-002  0.9203145E+02  0.7546771E-02  0.1415356E+00
         -4   -1    0    0    0  501 -0.00000000000E+00  0.00000000000E+00  0.24818714202E+03  0.24818714202E+03  0.00000000000E+00 0.  1.
          4   -1    0    0  501    0  0.00000000000E+00 -0.00000000000E+00 -0.11147764454E+02  0.11147764454E+02  0.00000000000E+00 0. -1.
         23    2    1    2    0    0 -0.71772405314E+01  0.10393431010E+02  0.21610280031E+03  0.23488339411E+03  0.91160585433E+02 0.  0.
         11    1    3    3    0    0 -0.34444330904E+01  0.41319422645E+02  0.45903790085E+02  0.61857228771E+02  0.00000000000E+00 0. -1.
        -11    1    3    3    0    0 -0.37328074410E+01 -0.30925991635E+02  0.17019901022E+03  0.17302616534E+03  0.00000000000E+00 0.  1.
         22    1    1    2    0    0  0.71772405314E+01 -0.10393431010E+02  0.20936577260E+02  0.24451512370E+02  0.00000000000E+00 0.  1.
<mgrwt>
<rscale>  0 0.56015680E+02</rscale>
<asrwt>0</asrwt>
<pdfrwt beam="1">  1        4 0.17150409E-02 0.92031454E+02</pdfrwt>
<pdfrwt beam="2">  1       -4 0.38182633E-01 0.92031454E+02</pdfrwt>
<totfact> 0.12515526E+04</totfact>
</mgrwt>
</event>
<event>
 6    1  0.1723639E-002  0.9095876E+02  0.7546771E-02  0.1415123E+00
         -1   -1    0    0    0  501 -0.00000000000E+00  0.00000000000E+00  0.25227213319E+02  0.25227213319E+02  0.00000000000E+00 0.  1.
          1   -1    0    0  501    0  0.00000000000E+00 -0.00000000000E+00 -0.10755788962E+03  0.10755788962E+03  0.00000000000E+00 0. -1.
         23    2    1    2    0    0 -0.12128306565E+02  0.50302845167E+01 -0.70042057979E+02  0.11480150700E+03  0.90006091695E+02 0.  0.
         11    1    3    3    0    0 -0.33682015906E+01  0.15366984539E+02  0.19038017449E+02  0.24696864257E+02  0.00000000000E+00 0.  1.
        -11    1    3    3    0    0 -0.87601049741E+01 -0.10336700022E+02 -0.89080075428E+02  0.90104642748E+02  0.00000000000E+00 0. -1.
         22    1    1    2    0    0  0.12128306565E+02 -0.50302845167E+01 -0.12288618323E+02  0.17983595934E+02  0.00000000000E+00 0. -1.
<mgrwt>
<rscale>  0 0.56066110E+02</rscale>
<asrwt>0</asrwt>
<pdfrwt beam="1">  1        1 0.16547367E-01 0.90958761E+02</pdfrwt>
<pdfrwt beam="2">  1       -1 0.38811098E-02 0.90958761E+02</pdfrwt>
<totfact> 0.71892132E+04</totfact>
</mgrwt>
</event>
<event>
 6    1  0.1723639E-002  0.9305136E+02  0.7546771E-02  0.1359930E+00
         -2   -1    0    0    0  501 -0.00000000000E+00  0.00000000000E+00  0.31795682927E+02  0.31795682927E+02  0.00000000000E+00 0.  1.
          2   -1    0    0  501    0  0.00000000000E+00 -0.00000000000E+00 -0.14186058324E+03  0.14186058324E+03  0.00000000000E+00 0. -1.
         23    2    1    2    0    0  0.28680663352E+02  0.83894100368E+01 -0.47842161418E+02  0.10462995316E+03  0.88122596642E+02 0.  0.
         11    1    3    3    0    0 -0.20063930423E+02 -0.15770412412E+02  0.79244827714E+01  0.26721987928E+02  0.00000000000E+00 0. -1.
        -11    1    3    3    0    0  0.48744593775E+02  0.24159822449E+02 -0.55766644189E+02  0.77907965236E+02  0.00000000000E+00 0.  1.
         22    1    1    2    0    0 -0.28680663352E+02 -0.83894100368E+01 -0.62222738896E+02  0.69026313003E+02  0.00000000000E+00 0. -1.
<mgrwt>
<rscale>  0 0.70048072E+02</rscale>
<asrwt>0</asrwt>
<pdfrwt beam="1">  1        2 0.21824705E-01 0.93051355E+02</pdfrwt>
<pdfrwt beam="2">  1       -2 0.48916436E-02 0.93051355E+02</pdfrwt>
<totfact> 0.44360458E+04</totfact>
</mgrwt>
</event>
<event>
 6    1  0.1723639E-002  0.9416940E+02  0.7546771E-02  0.1420056E+00
         -3   -1    0    0    0  501 -0.00000000000E+00  0.00000000000E+00  0.23554797527E+02  0.23554797527E+02  0.00000000000E+00 0.  1.
          3   -1    0    0  501    0  0.00000000000E+00 -0.00000000000E+00 -0.11814441281E+03  0.11814441281E+03  0.00000000000E+00 0. -1.
         23    2    1    2    0    0  0.87991768656E+01  0.65427076911E+01 -0.88113038354E+02  0.12896427468E+03  0.93528840892E+02 0.  0.
         13    1    3    3    0    0 -0.35782130316E+02  0.20621119651E+02 -0.18844535248E+02  0.45395021030E+02  0.00000000000E+00 0.  1.
        -13    1    3    3    0    0  0.44581307181E+02 -0.14078411960E+02 -0.69268503105E+02  0.83569253651E+02  0.00000000000E+00 0. -1.
         22    1    1    2    0    0 -0.87991768656E+01 -0.65427076911E+01 -0.64765769309E+01  0.12734935657E+02  0.00000000000E+00 0. -1.
<mgrwt>
<rscale>  0 0.55009173E+02</rscale>
<asrwt>0</asrwt>
<pdfrwt beam="1">  1        3 0.18176063E-01 0.94169404E+02</pdfrwt>
<pdfrwt beam="2">  1       -3 0.36238151E-02 0.94169404E+02</pdfrwt>
<totfact> 0.20745084E+04</totfact>
</mgrwt>
</event>
<event>
 6    1  0.1723639E-002  0.9922588E+02  0.7546771E-02  0.1388296E+00
         -2   -1    0    0    0  501 -0.00000000000E+00  0.00000000000E+00  0.64868297418E+02  0.64868297418E+02  0.00000000000E+00 0.  1.
          2   -1    0    0  501    0  0.00000000000E+00 -0.00000000000E+00 -0.67314439690E+02  0.67314439690E+02  0.00000000000E+00 0. -1.
         23    2    1    2    0    0 -0.14063776787E+01  0.15387833131E+02  0.23512166416E+02  0.10197351506E+03  0.98015368683E+02 0.  0.
         13    1    3    3    0    0  0.33056920261E+01  0.30455266469E+02 -0.31976603281E+02  0.44282660408E+02  0.00000000000E+00 0. -1.
        -13    1    3    3    0    0 -0.47120697048E+01 -0.15067433338E+02  0.55488769697E+02  0.57690854655E+02  0.00000000000E+00 0.  1.
         22    1    1    2    0    0  0.14063776787E+01 -0.15387833131E+02 -0.25958308688E+02  0.30209222045E+02  0.00000000000E+00 0. -1.
<mgrwt>
<rscale>  0 0.62332519E+02</rscale>
<asrwt>0</asrwt>
<pdfrwt beam="1">  1        2 0.10356068E-01 0.99225883E+02</pdfrwt>
<pdfrwt beam="2">  1       -2 0.99797381E-02 0.99225883E+02</pdfrwt>
<totfact> 0.35923530E+04</totfact>
</mgrwt>
</event>
<event>
 6    1  0.1723639E-002  0.8929403E+02  0.7546771E-02  0.1404659E+00
         -2   -1    0    0    0  501 -0.00000000000E+00  0.00000000000E+00  0.38814144726E+02  0.38814144726E+02  0.00000000000E+00 0.  1.
          2   -1    0    0  501    0  0.00000000000E+00 -0.00000000000E+00 -0.73832853072E+02  0.73832853072E+02  0.00000000000E+00 0. -1.
         23    2    1    2    0    0 -0.14920716282E+02  0.66624339193E+01 -0.22563286566E+02  0.92100627514E+02  0.87786148610E+02 0.  0.
         11    1    3    3    0    0 -0.31014422813E+02 -0.13106925935E+02 -0.46313608132E+02  0.57259376770E+02  0.00000000000E+00 0. -1.
        -11    1    3    3    0    0  0.16093706531E+02  0.19769359854E+02  0.23750321566E+02  0.34841250744E+02  0.00000000000E+00 0.  1.
         22    1    1    2    0    0  0.14920716282E+02 -0.66624339193E+01 -0.12455421780E+02  0.20546370283E+02  0.00000000000E+00 0.  1.
<mgrwt>
<rscale>  0 0.58402836E+02</rscale>
<asrwt>0</asrwt>
<pdfrwt beam="1">  1        2 0.11358900E-01 0.89294029E+02</pdfrwt>
<pdfrwt beam="2">  1       -2 0.59714069E-02 0.89294029E+02</pdfrwt>
<totfact> 0.69407090E+04</totfact>
</mgrwt>
</event>
<event>
 6    1  0.1723639E-002  0.9778290E+02  0.7546771E-02  0.1337503E+00
          2   -1    0    0  501    0  0.00000000000E+00  0.00000000000E+00  0.21841627946E+03  0.21841627946E+03  0.00000000000E+00 0.  1.
         -2   -1    0    0    0  501 -0.00000000000E+00 -0.00000000000E+00 -0.24425984567E+02  0.24425984567E+02  0.00000000000E+00 0. -1.
         23    2    1    2    0    0  0.32494592135E+02 -0.19282981116E+02  0.92723971435E+02  0.13475618654E+03  0.90187377468E+02 0.  0.
         13    1    3    3    0    0 -0.11274345481E+02  0.15324815351E+02 -0.71727977348E+01  0.20332482851E+02  0.00000000000E+00 0. -1.
        -13    1    3    3    0    0  0.43768937616E+02 -0.34607796467E+02  0.99896769169E+02  0.11442370369E+03  0.00000000000E+00 0.  1.
         22    1    1    2    0    0 -0.32494592135E+02  0.19282981116E+02  0.10126632346E+03  0.10808607749E+03  0.00000000000E+00 0.  1.
<mgrwt>
<rscale>  0 0.77095318E+02</rscale>
<asrwt>0</asrwt>
<pdfrwt beam="1">  1        2 0.33602503E-01 0.97782897E+02</pdfrwt>
<pdfrwt beam="2">  1       -2 0.37578439E-02 0.97782897E+02</pdfrwt>
<totfact> 0.41300093E+04</totfact>
</mgrwt>
</event>
<event>
 6    1  0.1723639E-002  0.1620687E+03  0.7546771E-02  0.1195407E+00
         -2   -1    0    0    0  501 -0.00000000000E+00  0.00000000000E+00  0.28366182960E+02  0.28366182960E+02  0.00000000000E+00 0.  1.
          2   -1    0    0  501    0  0.00000000000E+00 -0.00000000000E+00 -0.14209062749E+04  0.14209062749E+04  0.00000000000E+00 0. -1.
         23    2    1    2    0    0  0.10612196923E+03  0.79847432124E+02 -0.12240606460E+04  0.12347431861E+04  0.92891256715E+02 0.  0.
         11    1    3    3    0    0  0.32616600150E+02 -0.11985345986E+02 -0.49848307677E+03  0.49969277456E+03  0.00000000000E+00 0. -1.
        -11    1    3    3    0    0  0.73505369081E+02  0.91832778110E+02 -0.72557756928E+03  0.73505041151E+03  0.00000000000E+00 0.  1.
         22    1    1    2    0    0 -0.10612196923E+03 -0.79847432124E+02 -0.16847944593E+03  0.21452927183E+03  0.00000000000E+00 0.  1.
<mgrwt>
<rscale>  0 0.15419809E+03</rscale>
<asrwt>0</asrwt>
<pdfrwt beam="1">  1        2 0.21860096E+00 0.16206872E+03</pdfrwt>
<pdfrwt beam="2">  1       -2 0.43640282E-02 0.16206872E+03</pdfrwt>
<totfact> 0.36027648E+03</totfact>
</mgrwt>
</event>
<event>
 6    1  0.1723639E-002  0.1028425E+03  0.7546771E-02  0.1318149E+00
          2   -1    0    0  501    0  0.00000000000E+00  0.00000000000E+00  0.15772509216E+02  0.15772509216E+02  0.00000000000E+00 0.  1.
         -2   -1    0    0    0  501 -0.00000000000E+00 -0.00000000000E+00 -0.39515642301E+03  0.39515642301E+03  0.00000000000E+00 0. -1.
         23    2    1    2    0    0  0.42748470754E+02 -0.16174326075E+02 -0.31919024085E+03  0.33534904841E+03  0.92127812506E+02 0.  0.
         11    1    3    3    0    0 -0.36167600207E+01 -0.13025886092E+02 -0.75403821461E+00  0.13539691103E+02  0.00000000000E+00 0.  1.
        -11    1    3    3    0    0  0.46365230775E+02 -0.31484399831E+01 -0.31843620264E+03  0.32180935730E+03  0.00000000000E+00 0. -1.
         22    1    1    2    0    0 -0.42748470754E+02  0.16174326075E+02 -0.60193672948E+02  0.75579883824E+02  0.00000000000E+00 0.  1.
<mgrwt>
<rscale>  0 0.83969728E+02</rscale>
<asrwt>0</asrwt>
<pdfrwt beam="1">  1        2 0.24265401E-02 0.10284247E+03</pdfrwt>
<pdfrwt beam="2">  1       -2 0.60793291E-01 0.10284247E+03</pdfrwt>
<totfact> 0.98036471E+03</totfact>
</mgrwt>
</event>
<event>
 6    1  0.1723639E-002  0.9148327E+02  0.7546771E-02  0.1393964E+00
          2   -1    0    0  501    0  0.00000000000E+00  0.00000000000E+00  0.13311753525E+02  0.13311753525E+02  0.00000000000E+00 0. -1.
         -2   -1    0    0    0  501 -0.00000000000E+00 -0.00000000000E+00 -0.32263683544E+03  0.32263683544E+03  0.00000000000E+00 0.  1.
         23    2    1    2    0    0 -0.80362685965E+01 -0.16109700231E+02 -0.30355942136E+03  0.31704496772E+03  0.89694398964E+02 0.  0.
         13    1    3    3    0    0 -0.60828201559E+01  0.93773622171E+01  0.11761661682E+01  0.11239172125E+02  0.00000000000E+00 0. -1.
        -13    1    3    3    0    0 -0.19534484406E+01 -0.25487062448E+02 -0.30473558753E+03  0.30580579560E+03  0.00000000000E+00 0.  1.
         22    1    1    2    0    0  0.80362685965E+01  0.16109700231E+02 -0.57656605528E+01  0.18903621243E+02  0.00000000000E+00 0. -1.
<mgrwt>
<rscale>  0 0.60931494E+02</rscale>
<asrwt>0</asrwt>
<pdfrwt beam="1">  1        2 0.20479621E-02 0.91483273E+02</pdfrwt>
<pdfrwt beam="2">  1       -2 0.49636437E-01 0.91483273E+02</pdfrwt>
<totfact> 0.18234778E+04</totfact>
</mgrwt>
</event>
<event>
 6    1  0.1723639E-002  0.9707107E+02  0.7546771E-02  0.1337360E+00
          2   -1    0    0  501    0  0.00000000000E+00  0.00000000000E+00  0.23351820843E+02  0.23351820843E+02  0.00000000000E+00 0. -1.
         -2   -1    0    0    0  501 -0.00000000000E+00 -0.00000000000E+00 -0.21245868031E+03  0.21245868031E+03  0.00000000000E+00 0.  1.
         23    2    1    2    0    0 -0.37586718398E+02  0.92947476767E+01 -0.16087311523E+03  0.18789079698E+03  0.89014822652E+02 0.  0.
         11    1    3    3    0    0  0.24762142487E+02 -0.63395618067E+01 -0.83370268221E+02  0.87200661510E+02  0.00000000000E+00 0.  1.
        -11    1    3    3    0    0 -0.62348860884E+02  0.15634309483E+02 -0.77502847010E+02  0.10069013547E+03  0.00000000000E+00 0. -1.
         22    1    1    2    0    0  0.37586718398E+02 -0.92947476767E+01 -0.28233744233E+02  0.47919704170E+02  0.00000000000E+00 0. -1.
<mgrwt>
<rscale>  0 0.77143285E+02</rscale>
<asrwt>0</asrwt>
<pdfrwt beam="1">  1        2 0.35925879E-02 0.97071069E+02</pdfrwt>
<pdfrwt beam="2">  1       -2 0.32685950E-01 0.97071069E+02</pdfrwt>
<totfact> 0.19046804E+04</totfact>
</mgrwt>
</event>
<event>
 6    1  0.1723639E-002  0.9474878E+02  0.7546771E-02  0.1361936E+00
          2   -1    0    0  501    0  0.00000000000E+00  0.00000000000E+00  0.61854242452E+01  0.61854242452E+01  0.00000000000E+00 0. -1.
         -2   -1    0    0    0  501 -0.00000000000E+00 -0.00000000000E+00 -0.64792027340E+03  0.64792027340E+03  0.00000000000E+00 0.  1.
         23    2    1    2    0    0  0.25942088053E+02  0.87185970605E+01 -0.55869279503E+03  0.56667007206E+03  0.90710117897E+02 0.  0.
         11    1    3    3    0    0  0.45415804378E+01  0.38032872592E+02 -0.45865687144E+03  0.46025346395E+03  0.00000000000E+00 0.  1.
        -11    1    3    3    0    0  0.21400507616E+02 -0.29314275532E+02 -0.10003592358E+03  0.10641660812E+03  0.00000000000E+00 0. -1.
         22    1    1    2    0    0 -0.25942088053E+02 -0.87185970605E+01 -0.83042054128E+02  0.87435625583E+02  0.00000000000E+00 0.  1.
<mgrwt>
<rscale>  0 0.69460975E+02</rscale>
<asrwt>0</asrwt>
<pdfrwt beam="1">  1        2 0.95160363E-03 0.94748780E+02</pdfrwt>
<pdfrwt beam="2">  1       -2 0.99680052E-01 0.94748780E+02</pdfrwt>
<totfact> 0.11905824E+04</totfact>
</mgrwt>
</event>
<event>
 6    1  0.1723639E-002  0.9274710E+02  0.7546771E-02  0.1416012E+00
         -4   -1    0    0    0  501 -0.00000000000E+00  0.00000000000E+00  0.86662361253E+03  0.86662361253E+03  0.00000000000E+00 0.  1.
          4   -1    0    0  501    0  0.00000000000E+00 -0.00000000000E+00 -0.39434835229E+01  0.39434835229E+01  0.00000000000E+00 0. -1.
         23    2    1    2    0    0 -0.10953073263E+02 -0.54093032300E+01  0.83707164857E+03  0.84219413982E+03  0.91939077241E+02 0.  0.
         13    1    3    3    0    0  0.40157653729E+02 -0.81602728912E+00  0.30010832824E+03  0.30278426599E+03  0.00000000000E+00 0.  1.
        -13    1    3    3    0    0 -0.51110726993E+02 -0.45932759408E+01  0.53696332033E+03  0.53940987383E+03  0.00000000000E+00 0. -1.
         22    1    1    2    0    0  0.10953073263E+02  0.54093032300E+01  0.25608480432E+02  0.28372956233E+02  0.00000000000E+00 0. -1.
<mgrwt>
<rscale>  0 0.55873696E+02</rscale>
<asrwt>0</asrwt>
<pdfrwt beam="1">  1        4 0.60669046E-03 0.92747099E+02</pdfrwt>
<pdfrwt beam="2">  1       -4 0.13332656E+00 0.92747099E+02</pdfrwt>
<totfact> 0.39889633E+03</totfact>
</mgrwt>
</event>
<event>
 6    1  0.1723639E-002  0.9323415E+02  0.7546771E-02  0.1401833E+00
         -4   -1    0    0    0  501 -0.00000000000E+00  0.00000000000E+00  0.26212249969E+02  0.26212249969E+02  0.00000000000E+00 0. -1.
          4   -1    0    0  501    0  0.00000000000E+00 -0.00000000000E+00 -0.12485629187E+03  0.12485629187E+03  0.00000000000E+00 0.  1.
         23    2    1    2    0    0  0.10883808368E+02 -0.10335339340E+02 -0.63362589402E+02  0.11272721408E+03  0.92018098952E+02 0.  0.
         13    1    3    3    0    0 -0.73510575830E+01 -0.99368639597E+01 -0.84161212251E+02  0.85064028593E+02  0.00000000000E+00 0.  1.
        -13    1    3    3    0    0  0.18234865951E+02 -0.39847538022E+00  0.20798622849E+02  0.27663185487E+02  0.00000000000E+00 0. -1.
         22    1    1    2    0    0 -0.10883808368E+02  0.10335339340E+02 -0.35281452503E+02  0.38341327762E+02  0.00000000000E+00 0.  1.
<mgrwt>
<rscale>  0 0.59056915E+02</rscale>
<asrwt>0</asrwt>
<pdfrwt beam="1">  1        4 0.19208661E-01 0.93234152E+02</pdfrwt>
<pdfrwt beam="2">  1       -4 0.40326538E-02 0.93234152E+02</pdfrwt>
<totfact> 0.11960571E+04</totfact>
</mgrwt>
</event>
<event>
 6    1  0.1723639E-002  0.9317740E+02  0.7546771E-02  0.1423833E+00
         -2   -1    0    0    0  501 -0.00000000000E+00  0.00000000000E+00  0.91257937653E+01  0.91257937653E+01  0.00000000000E+00 0.  1.
          2   -1    0    0  501    0  0.00000000000E+00 -0.00000000000E+00 -0.30868264372E+03  0.30868264372E+03  0.00000000000E+00 0. -1.
         23    2    1    2    0    0  0.76450801921E+01  0.74603046142E+01 -0.24300366251E+03  0.26025527592E+03  0.92563087970E+02 0.  0.
         13    1    3    3    0    0 -0.12728235621E+02 -0.34759232328E+02 -0.16622603153E+03  0.17029769750E+03  0.00000000000E+00 0. -1.
        -13    1    3    3    0    0  0.20373315814E+02  0.42219536942E+02 -0.76777630975E+02  0.89957578419E+02  0.00000000000E+00 0.  1.
         22    1    1    2    0    0 -0.76450801921E+01 -0.74603046142E+01 -0.56553187447E+02  0.57553161568E+02  0.00000000000E+00 0.  1.
<mgrwt>
<rscale>  0 0.54218223E+02</rscale>
<asrwt>0</asrwt>
<pdfrwt beam="1">  1        2 0.47489638E-01 0.93177404E+02</pdfrwt>
<pdfrwt beam="2">  1       -2 0.14039683E-02 0.93177404E+02</pdfrwt>
<totfact> 0.11827649E+05</totfact>
</mgrwt>
</event>
<event>
 6    1  0.1723639E-002  0.9434344E+02  0.7546771E-02  0.1387309E+00
          2   -1    0    0  501    0  0.00000000000E+00  0.00000000000E+00  0.35514281069E+02  0.35514281069E+02  0.00000000000E+00 0. -1.
         -2   -1    0    0    0  501 -0.00000000000E+00 -0.00000000000E+00 -0.15771432902E+03  0.15771432902E+03  0.00000000000E+00 0.  1.
         23    2    1    2    0    0  0.15129962922E+02  0.10232945685E+02 -0.13927780054E+03  0.16822303892E+03  0.92558393159E+02 0.  0.
         13    1    3    3    0    0 -0.26339900146E+02 -0.27561777422E+02 -0.52381008977E+02  0.64785893649E+02  0.00000000000E+00 0.  1.
        -13    1    3    3    0    0  0.41469863068E+02  0.37794723106E+02 -0.86896791567E+02  0.10343714527E+03  0.00000000000E+00 0. -1.
         22    1    1    2    0    0 -0.15129962922E+02 -0.10232945685E+02  0.17077752598E+02  0.25005571163E+02  0.00000000000E+00 0. -1.
<mgrwt>
<rscale>  0 0.62580893E+02</rscale>
<asrwt>0</asrwt>
<pdfrwt beam="1">  1        2 0.54637356E-02 0.94343442E+02</pdfrwt>
<pdfrwt beam="2">  1       -2 0.24263743E-01 0.94343442E+02</pdfrwt>
<totfact> 0.18616178E+04</totfact>
</mgrwt>
</event>
<event>
 6    1  0.1723639E-002  0.9560311E+02  0.7546771E-02  0.1365358E+00
          2   -1    0    0  501    0  0.00000000000E+00  0.00000000000E+00  0.64577382583E+02  0.64577382583E+02  0.00000000000E+00 0. -1.
         -2   -1    0    0    0  501 -0.00000000000E+00 -0.00000000000E+00 -0.95817262949E+02  0.95817262949E+02  0.00000000000E+00 0.  1.
         23    2    1    2    0    0 -0.16342019595E+02  0.19129932134E+02 -0.66947803852E+02  0.11671316539E+03  0.92233066883E+02 0.  0.
         11    1    3    3    0    0 -0.53175969405E+02  0.20145379993E+02 -0.29049893084E+02  0.63854650147E+02  0.00000000000E+00 0. -1.
        -11    1    3    3    0    0  0.36833949811E+02 -0.10154478599E+01 -0.37897910768E+02  0.52858515242E+02  0.00000000000E+00 0.  1.
         22    1    1    2    0    0  0.16342019595E+02 -0.19129932134E+02  0.35707923486E+02  0.43681480144E+02  0.00000000000E+00 0. -1.
<mgrwt>
<rscale>  0 0.68474811E+02</rscale>
<asrwt>0</asrwt>
<pdfrwt beam="1">  1        2 0.99349819E-02 0.95603109E+02</pdfrwt>
<pdfrwt beam="2">  1       -2 0.14741117E-01 0.95603109E+02</pdfrwt>
<totfact> 0.20258969E+04</totfact>
</mgrwt>
</event>
<event>
 6    1  0.1723639E-002  0.9270974E+02  0.7546771E-02  0.1425875E+00
         -2   -1    0    0    0  501 -0.00000000000E+00  0.00000000000E+00  0.51908828978E+02  0.51908828978E+02  0.00000000000E+00 0.  1.
          2   -1    0    0  501    0  0.00000000000E+00 -0.00000000000E+00 -0.88009830087E+02  0.88009830087E+02  0.00000000000E+00 0. -1.
         23    2    1    2    0    0  0.56231283605E+00  0.10496284616E+02  0.94318413891E+01  0.93188284227E+02  0.92111934617E+02 0.  0.
         11    1    3    3    0    0 -0.30454277296E+01  0.49567332313E+02 -0.79148673048E+01  0.50287574878E+02  0.00000000000E+00 0. -1.
        -11    1    3    3    0    0  0.36077405657E+01 -0.39071047697E+02  0.17346708694E+02  0.42900709349E+02  0.00000000000E+00 0.  1.
         22    1    1    2    0    0 -0.56231283605E+00 -0.10496284616E+02 -0.45532842499E+02  0.46730374838E+02  0.00000000000E+00 0. -1.
<mgrwt>
<rscale>  0 0.53797057E+02</rscale>
<asrwt>0</asrwt>
<pdfrwt beam="1">  1        2 0.13539974E-01 0.92709744E+02</pdfrwt>
<pdfrwt beam="2">  1       -2 0.79859738E-02 0.92709744E+02</pdfrwt>
<totfact> 0.36503869E+04</totfact>
</mgrwt>
</event>
<event>
 6    1  0.1723639E-002  0.9298408E+02  0.7546771E-02  0.1401640E+00
          1   -1    0    0  501    0  0.00000000000E+00  0.00000000000E+00  0.43753364738E+03  0.43753364738E+03  0.00000000000E+00 0. -1.
         -1   -1    0    0    0  501 -0.00000000000E+00 -0.00000000000E+00 -0.73416225204E+01  0.73416225204E+01  0.00000000000E+00 0.  1.
         23    2    1    2    0    0  0.13744154224E+02 -0.64366602176E+01  0.40437388997E+03  0.41492683991E+03  0.91737163750E+02 0.  0.
         11    1    3    3    0    0  0.41106658203E+02 -0.34510980576E+02  0.24350360957E+03  0.24934869761E+03  0.00000000000E+00 0. -1.
        -11    1    3    3    0    0 -0.27362503979E+02  0.28074320358E+02  0.16087028041E+03  0.16557814229E+03  0.00000000000E+00 0.  1.
         22    1    1    2    0    0 -0.13744154224E+02  0.64366602176E+01  0.25818134890E+02  0.29948429997E+02  0.00000000000E+00 0.  1.
<mgrwt>
<rscale>  0 0.59101817E+02</rscale>
<asrwt>0</asrwt>
<pdfrwt beam="1">  1        1 0.67312849E-01 0.92984082E+02</pdfrwt>
<pdfrwt beam="2">  1       -1 0.11294807E-02 0.92984082E+02</pdfrwt>
<totfact> 0.74274291E+04</totfact>
</mgrwt>
</event>
<event>
 6    1  0.1723639E-002  0.9119631E+02  0.7546771E-02  0.1402493E+00
         -4   -1    0    0    0  501 -0.00000000000E+00  0.00000000000E+00  0.29789242670E+03  0.29789242670E+03  0.00000000000E+00 0. -1.
          4   -1    0    0  501    0  0.00000000000E+00 -0.00000000000E+00 -0.51389491459E+02  0.51389491459E+02  0.00000000000E+00 0.  1.
         23    2    1    2    0    0 -0.15686543429E+02 -0.24166608157E+01  0.28946018944E+03  0.30348635524E+03  0.89804558109E+02 0.  0.
         11    1    3    3    0    0  0.28106046048E+02 -0.18070032054E+02  0.54187498393E+02  0.63661298015E+02  0.00000000000E+00 0.  1.
        -11    1    3    3    0    0 -0.43792589478E+02  0.15653371239E+02  0.23527269104E+03  0.23982505723E+03  0.00000000000E+00 0. -1.
         22    1    1    2    0    0  0.15686543429E+02  0.24166608157E+01 -0.42957254197E+02  0.45795562912E+02  0.00000000000E+00 0.  1.
<mgrwt>
<rscale>  0 0.58903102E+02</rscale>
<asrwt>0</asrwt>
<pdfrwt beam="1">  1        4 0.79060758E-02 0.91196308E+02</pdfrwt>
<pdfrwt beam="2">  1       -4 0.45829603E-01 0.91196308E+02</pdfrwt>
<totfact> 0.78939134E+02</totfact>
</mgrwt>
</event>
<event>
 6    1  0.1723639E-002  0.9228649E+02  0.7546771E-02  0.1412173E+00
         -2   -1    0    0    0  501 -0.00000000000E+00  0.00000000000E+00  0.26519378904E+03  0.26519378904E+03  0.00000000000E+00 0.  1.
          2   -1    0    0  501    0  0.00000000000E+00 -0.00000000000E+00 -0.11274367900E+02  0.11274367900E+02  0.00000000000E+00 0. -1.
         23    2    1    2    0    0 -0.53723084756E+01  0.12014321894E+02  0.24082854941E+03  0.25790538366E+03  0.91343259659E+02 0.  0.
         13    1    3    3    0    0  0.21450413520E+02  0.26799902123E+02  0.32282768597E+02  0.47122522665E+02  0.00000000000E+00 0. -1.
        -13    1    3    3    0    0 -0.26822721996E+02 -0.14785580229E+02  0.20854578081E+03  0.21078286100E+03  0.00000000000E+00 0.  1.
         22    1    1    2    0    0  0.53723084756E+01 -0.12014321894E+02  0.13090871738E+02  0.18562773278E+02  0.00000000000E+00 0.  1.
<mgrwt>
<rscale>  0 0.56711855E+02</rscale>
<asrwt>0</asrwt>
<pdfrwt beam="1">  1        2 0.17345183E-02 0.92286493E+02</pdfrwt>
<pdfrwt beam="2">  1       -2 0.40799040E-01 0.92286493E+02</pdfrwt>
<totfact> 0.33302360E+04</totfact>
</mgrwt>
</event>
<event>
 6    1  0.1723639E-002  0.1025174E+03  0.7546771E-02  0.1352384E+00
         -2   -1    0    0    0  501 -0.00000000000E+00  0.00000000000E+00  0.13232601101E+03  0.13232601101E+03  0.00000000000E+00 0.  1.
          2   -1    0    0  501    0  0.00000000000E+00 -0.00000000000E+00 -0.40487609141E+02  0.40487609141E+02  0.00000000000E+00 0. -1.
         23    2    1    2    0    0 -0.40143858267E+01  0.25066020378E+02  0.10278293648E+03  0.14516938913E+03  0.99324714142E+02 0.  0.
         13    1    3    3    0    0 -0.46282464209E+02  0.36030085863E+02  0.63338739394E+02  0.86325138219E+02  0.00000000000E+00 0.  1.
        -13    1    3    3    0    0  0.42268078382E+02 -0.10964065485E+02  0.39444197082E+02  0.58844250913E+02  0.00000000000E+00 0. -1.
         22    1    1    2    0    0  0.40143858267E+01 -0.25066020378E+02 -0.10944534603E+02  0.27644231023E+02  0.00000000000E+00 0. -1.
<mgrwt>
<rscale>  0 0.72317667E+02</rscale>
<asrwt>0</asrwt>
<pdfrwt beam="1">  1        2 0.62288630E-02 0.10251741E+03</pdfrwt>
<pdfrwt beam="2">  1       -2 0.20357848E-01 0.10251741E+03</pdfrwt>
<totfact> 0.21441246E+04</totfact>
</mgrwt>
</event>
<event>
 6    1  0.1723639E-002  0.9286628E+02  0.7546771E-02  0.1386312E+00
         -2   -1    0    0    0  501 -0.00000000000E+00  0.00000000000E+00  0.67172726385E+03  0.67172726385E+03  0.00000000000E+00 0.  1.
          2   -1    0    0  501    0  0.00000000000E+00 -0.00000000000E+00 -0.58537689905E+01  0.58537689905E+01  0.00000000000E+00 0. -1.
         23    2    1    2    0    0  0.77934401478E+01 -0.17833380822E+02  0.62963938638E+03  0.63645102192E+03  0.90804070636E+02 0.  0.
         11    1    3    3    0    0  0.45995673542E+01 -0.10779874138E+02  0.62851806628E+03  0.62862733106E+03  0.00000000000E+00 0.  1.
        -11    1    3    3    0    0  0.31938727936E+01 -0.70535066839E+01  0.11213200932E+01  0.78236908626E+01  0.00000000000E+00 0. -1.
         22    1    1    2    0    0 -0.77934401478E+01  0.17833380822E+02  0.36234108483E+02  0.41130010922E+02  0.00000000000E+00 0. -1.
<mgrwt>
<rscale>  0 0.62833332E+02</rscale>
<asrwt>0</asrwt>
<pdfrwt beam="1">  1        2 0.90058038E-03 0.92866282E+02</pdfrwt>
<pdfrwt beam="2">  1       -2 0.10334260E+00 0.92866282E+02</pdfrwt>
<totfact> 0.11787302E+04</totfact>
</mgrwt>
</event>
<event>
 6    1  0.1723639E-002  0.1006119E+03  0.7546771E-02  0.1400844E+00
          2   -1    0    0  501    0  0.00000000000E+00  0.00000000000E+00  0.86648324577E+01  0.86648324577E+01  0.00000000000E+00 0. -1.
         -2   -1    0    0    0  501 -0.00000000000E+00 -0.00000000000E+00 -0.36770253817E+03  0.36770253817E+03  0.00000000000E+00 0.  1.
         23    2    1    2    0    0 -0.11577477695E+02 -0.36248883535E+01 -0.32600200854E+03  0.34117454333E+03  0.99877833581E+02 0.  0.
         13    1    3    3    0    0 -0.32639428329E+02 -0.12414100201E+02 -0.35567218513E+02  0.49844450024E+02  0.00000000000E+00 0. -1.
        -13    1    3    3    0    0  0.21061950634E+02  0.87892118474E+01 -0.29043479003E+03  0.29133009331E+03  0.00000000000E+00 0.  1.
         22    1    1    2    0    0  0.11577477695E+02  0.36248883535E+01 -0.33035697177E+02  0.35192827299E+02  0.00000000000E+00 0. -1.
<mgrwt>
<rscale>  0 0.59288080E+02</rscale>
<asrwt>0</asrwt>
<pdfrwt beam="1">  1        2 0.13330510E-02 0.10061192E+03</pdfrwt>
<pdfrwt beam="2">  1       -2 0.56569629E-01 0.10061192E+03</pdfrwt>
<totfact> 0.25509776E+04</totfact>
</mgrwt>
</event>
<event>
 6    1  0.1723639E-002  0.9199505E+02  0.7546771E-02  0.1427627E+00
          2   -1    0    0  501    0  0.00000000000E+00  0.00000000000E+00  0.12477762534E+03  0.12477762534E+03  0.00000000000E+00 0. -1.
         -2   -1    0    0    0  501 -0.00000000000E+00 -0.00000000000E+00 -0.25505105377E+02  0.25505105377E+02  0.00000000000E+00 0.  1.
         23    2    1    2    0    0  0.90247286185E+01  0.53177288355E+01  0.60466062329E+02  0.11008739367E+03  0.91396748212E+02 0.  0.
         13    1    3    3    0    0  0.61653081697E+01  0.47318449739E+02  0.43922504065E+02  0.64855478364E+02  0.00000000000E+00 0.  1.
        -13    1    3    3    0    0  0.28594204488E+01 -0.42000720904E+02  0.16543558265E+02  0.45231915301E+02  0.00000000000E+00 0. -1.
         22    1    1    2    0    0 -0.90247286185E+01 -0.53177288355E+01  0.38806457636E+02  0.40195337054E+02  0.00000000000E+00 0. -1.
<mgrwt>
<rscale>  0 0.53439334E+02</rscale>
<asrwt>0</asrwt>
<pdfrwt beam="1">  1        2 0.19196557E-01 0.91995052E+02</pdfrwt>
<pdfrwt beam="2">  1       -2 0.39238624E-02 0.91995052E+02</pdfrwt>
<totfact> 0.70766819E+04</totfact>
</mgrwt>
</event>
<event>
 6    1  0.1723639E-002  0.8978419E+02  0.7546771E-02  0.1398805E+00
         -1   -1    0    0    0  501 -0.00000000000E+00  0.00000000000E+00  0.97072108740E+02  0.97072108740E+02  0.00000000000E+00 0.  1.
          1   -1    0    0  501    0  0.00000000000E+00 -0.00000000000E+00 -0.75636661919E+02  0.75636661919E+02  0.00000000000E+00 0. -1.
         23    2    1    2    0    0  0.22411226377E+01 -0.17488607074E+02  0.74577818636E+02  0.11671782773E+03  0.88035937373E+02 0.  0.
         13    1    3    3    0    0  0.37738921767E+02 -0.13444681729E+02  0.75568139858E+01  0.40768751766E+02  0.00000000000E+00 0. -1.
        -13    1    3    3    0    0 -0.35497799129E+02 -0.40439253444E+01  0.67021004650E+02  0.75949075962E+02  0.00000000000E+00 0.  1.
         22    1    1    2    0    0 -0.22411226377E+01  0.17488607074E+02 -0.53142371815E+02  0.55990942930E+02  0.00000000000E+00 0. -1.
<mgrwt>
<rscale>  0 0.59768581E+02</rscale>
<asrwt>0</asrwt>
<pdfrwt beam="1">  1        1 0.11636409E-01 0.89784187E+02</pdfrwt>
<pdfrwt beam="2">  1       -1 0.14934171E-01 0.89784187E+02</pdfrwt>
<totfact> 0.15100873E+04</totfact>
</mgrwt>
</event>
<event>
 6    1  0.1723639E-002  0.8960874E+02  0.7546771E-02  0.1421473E+00
          2   -1    0    0  501    0  0.00000000000E+00  0.00000000000E+00  0.17061468595E+02  0.17061468595E+02  0.00000000000E+00 0.  1.
         -2   -1    0    0    0  501 -0.00000000000E+00 -0.00000000000E+00 -0.17339726945E+03  0.17339726945E+03  0.00000000000E+00 0. -1.
         23    2    1    2    0    0  0.38926127351E+01 -0.11827677411E+02 -0.15341670167E+03  0.17766938595E+03  0.88739393548E+02 0.  0.
         13    1    3    3    0    0 -0.36409985666E+02  0.63464084102E+01 -0.33573420409E+02  0.49931337994E+02  0.00000000000E+00 0.  1.
        -13    1    3    3    0    0  0.40302598401E+02 -0.18174085821E+02 -0.11984328126E+03  0.12773804796E+03  0.00000000000E+00 0. -1.
         22    1    1    2    0    0 -0.38926127351E+01  0.11827677411E+02 -0.29190991842E+01  0.12789352090E+02  0.00000000000E+00 0. -1.
<mgrwt>
<rscale>  0 0.54710475E+02</rscale>
<asrwt>0</asrwt>
<pdfrwt beam="1">  1        2 0.26248413E-02 0.89608740E+02</pdfrwt>
<pdfrwt beam="2">  1       -2 0.26676503E-01 0.89608740E+02</pdfrwt>
<totfact> 0.41027289E+04</totfact>
</mgrwt>
</event>
<event>
 6    1  0.1723639E-002  0.9906688E+02  0.7546771E-02  0.1360745E+00
         -2   -1    0    0    0  501 -0.00000000000E+00  0.00000000000E+00  0.49808764858E+01  0.49808764858E+01  0.00000000000E+00 0.  1.
          2   -1    0    0  501    0  0.00000000000E+00 -0.00000000000E+00 -0.76750000719E+03  0.76750000719E+03  0.00000000000E+00 0. -1.
         23    2    1    2    0    0  0.15383376737E+02  0.18972841351E+02 -0.62700248594E+03  0.63478056415E+03  0.96008490570E+02 0.  0.
         13    1    3    3    0    0  0.42417854603E+02  0.43617775152E+02 -0.33319478959E+03  0.33870422570E+03  0.00000000000E+00 0.  1.
        -13    1    3    3    0    0 -0.27034477866E+02 -0.24644933802E+02 -0.29380769635E+03  0.29607633845E+03  0.00000000000E+00 0. -1.
         22    1    1    2    0    0 -0.15383376737E+02 -0.18972841351E+02 -0.13551664476E+03  0.13770031952E+03  0.00000000000E+00 0.  1.
<mgrwt>
<rscale>  0 0.69808503E+02</rscale>
<asrwt>0</asrwt>
<pdfrwt beam="1">  1        2 0.11807681E+00 0.99066883E+02</pdfrwt>
<pdfrwt beam="2">  1       -2 0.76628946E-03 0.99066883E+02</pdfrwt>
<totfact> 0.10397426E+05</totfact>
</mgrwt>
</event>
<event>
 6    1  0.1723639E-002  0.9986248E+02  0.7546771E-02  0.1339629E+00
         -2   -1    0    0    0  501 -0.00000000000E+00  0.00000000000E+00  0.27119928053E+02  0.27119928053E+02  0.00000000000E+00 0.  1.
          2   -1    0    0  501    0  0.00000000000E+00 -0.00000000000E+00 -0.24110113443E+03  0.24110113443E+03  0.00000000000E+00 0. -1.
         23    2    1    2    0    0  0.59899988160E+01  0.33658973788E+02 -0.74444474839E+02  0.12455719768E+03  0.93828082455E+02 0.  0.
         11    1    3    3    0    0 -0.97651627617E+01 -0.14765286998E+02 -0.71379892807E+02  0.73542240930E+02  0.00000000000E+00 0. -1.
        -11    1    3    3    0    0  0.15755161578E+02  0.48424260786E+02 -0.30645820320E+01  0.51014956748E+02  0.00000000000E+00 0.  1.
         22    1    1    2    0    0 -0.59899988160E+01 -0.33658973788E+02 -0.13953673153E+03  0.14366386480E+03  0.00000000000E+00 0. -1.
<mgrwt>
<rscale>  0 0.76387026E+02</rscale>
<asrwt>0</asrwt>
<pdfrwt beam="1">  1        2 0.37092481E-01 0.99862484E+02</pdfrwt>
<pdfrwt beam="2">  1       -2 0.41722967E-02 0.99862484E+02</pdfrwt>
<totfact> 0.31963194E+04</totfact>
</mgrwt>
</event>
<event>
 6    1  0.1723639E-002  0.9418817E+02  0.7546771E-02  0.1409143E+00
         -2   -1    0    0    0  501 -0.00000000000E+00  0.00000000000E+00  0.91832115828E+01  0.91832115828E+01  0.00000000000E+00 0.  1.
          2   -1    0    0  501    0  0.00000000000E+00 -0.00000000000E+00 -0.33229841675E+03  0.33229841675E+03  0.00000000000E+00 0. -1.
         23    2    1    2    0    0 -0.95191147147E+01 -0.88218476457E+01 -0.24860000371E+03  0.26584464142E+03  0.93289726053E+02 0.  0.
         13    1    3    3    0    0 -0.31580553309E+02  0.33761356401E+02 -0.12214507446E+03  0.13060084130E+03  0.00000000000E+00 0. -1.
        -13    1    3    3    0    0  0.22061438594E+02 -0.42583204047E+02 -0.12645492925E+03  0.13524380012E+03  0.00000000000E+00 0.  1.
         22    1    1    2    0    0  0.95191147147E+01  0.88218476457E+01 -0.74515201460E+02  0.75636986914E+02  0.00000000000E+00 0.  1.
<mgrwt>
<rscale>  0 0.57385538E+02</rscale>
<asrwt>0</asrwt>
<pdfrwt beam="1">  1        2 0.51122821E-01 0.94188171E+02</pdfrwt>
<pdfrwt beam="2">  1       -2 0.14128021E-02 0.94188171E+02</pdfrwt>
<totfact> 0.10869832E+05</totfact>
</mgrwt>
</event>
<event>
 6    1  0.1723639E-002  0.1525554E+03  0.7546771E-02  0.1207646E+00
          2   -1    0    0  501    0  0.00000000000E+00  0.00000000000E+00  0.52032539822E+03  0.52032539822E+03  0.00000000000E+00 0. -1.
         -2   -1    0    0    0  501 -0.00000000000E+00 -0.00000000000E+00 -0.46006845061E+02  0.46006845061E+02  0.00000000000E+00 0.  1.
         23    2    1    2    0    0  0.62106370432E+02  0.10518026162E+03  0.12812349439E+03  0.19922039739E+03  0.91395012100E+02 0.  0.
         11    1    3    3    0    0  0.74630212518E+01  0.84206863195E+02  0.40228510167E+02  0.93620646898E+02  0.00000000000E+00 0.  1.
        -11    1    3    3    0    0  0.54643349180E+02  0.20973398424E+02  0.87894984227E+02  0.10559975049E+03  0.00000000000E+00 0. -1.
         22    1    1    2    0    0 -0.62106370432E+02 -0.10518026162E+03  0.34619505876E+03  0.36711184589E+03  0.00000000000E+00 0.  1.
<mgrwt>
<rscale>  0 0.14430854E+03</rscale>
<asrwt>0</asrwt>
<pdfrwt beam="1">  1        2 0.80050057E-01 0.15255536E+03</pdfrwt>
<pdfrwt beam="2">  1       -2 0.70779765E-02 0.15255536E+03</pdfrwt>
<totfact> 0.65854492E+03</totfact>
</mgrwt>
</event>
<event>
 6    1  0.1723639E-002  0.9284920E+02  0.7546771E-02  0.1393060E+00
         -2   -1    0    0    0  501 -0.00000000000E+00  0.00000000000E+00  0.23327794867E+02  0.23327794867E+02  0.00000000000E+00 0.  1.
          2   -1    0    0  501    0  0.00000000000E+00 -0.00000000000E+00 -0.14018565679E+03  0.14018565679E+03  0.00000000000E+00 0. -1.
         23    2    1    2    0    0  0.87187054662E+01 -0.15139663584E+02 -0.79351737471E+02  0.12213792012E+03  0.91190723506E+02 0.  0.
         13    1    3    3    0    0  0.18653776502E+02  0.12197748262E+02  0.12663938846E+02  0.25634425828E+02  0.00000000000E+00 0.  1.
        -13    1    3    3    0    0 -0.99350710359E+01 -0.27337411846E+02 -0.92015676316E+02  0.96503494294E+02  0.00000000000E+00 0. -1.
         22    1    1    2    0    0 -0.87187054662E+01  0.15139663584E+02 -0.37506124447E+02  0.41375531531E+02  0.00000000000E+00 0.  1.
<mgrwt>
<rscale>  0 0.61152071E+02</rscale>
<asrwt>0</asrwt>
<pdfrwt beam="1">  1        2 0.21567024E-01 0.92849197E+02</pdfrwt>
<pdfrwt beam="2">  1       -2 0.35888916E-02 0.92849197E+02</pdfrwt>
<totfact> 0.70936750E+04</totfact>
</mgrwt>
</event>
<event>
 6    1  0.1723639E-002  0.9243861E+02  0.7546771E-02  0.1422342E+00
          1   -1    0    0  501    0  0.00000000000E+00  0.00000000000E+00  0.12048658875E+03  0.12048658875E+03  0.00000000000E+00 0. -1.
         -1   -1    0    0    0  501 -0.00000000000E+00 -0.00000000000E+00 -0.22781787516E+02  0.22781787516E+02  0.00000000000E+00 0.  1.
         23    2    1    2    0    0  0.88072023817E+01  0.69071917702E+01  0.79624093810E+02  0.12200366153E+03  0.91758492790E+02 0.  0.
         11    1    3    3    0    0 -0.27633065375E+01 -0.70322535775E+01 -0.19669614724E+02  0.21070885050E+02  0.00000000000E+00 0.  1.
        -11    1    3    3    0    0  0.11570508919E+02  0.13939445348E+02  0.99293708533E+02  0.10093277648E+03  0.00000000000E+00 0. -1.
         22    1    1    2    0    0 -0.88072023817E+01 -0.69071917702E+01  0.18080707422E+02  0.21264714736E+02  0.00000000000E+00 0. -1.
<mgrwt>
<rscale>  0 0.54528506E+02</rscale>
<asrwt>0</asrwt>
<pdfrwt beam="1">  1        1 0.18536398E-01 0.92438613E+02</pdfrwt>
<pdfrwt beam="2">  1       -1 0.35048905E-02 0.92438613E+02</pdfrwt>
<totfact> 0.72348571E+04</totfact>
</mgrwt>
</event>
<event>
 6    1  0.1723639E-002  0.9477881E+02  0.7546771E-02  0.1414054E+00
          1   -1    0    0  501    0  0.00000000000E+00  0.00000000000E+00  0.42028883041E+03  0.42028883041E+03  0.00000000000E+00 0. -1.
         -1   -1    0    0    0  501 -0.00000000000E+00 -0.00000000000E+00 -0.69047534025E+01  0.69047534025E+01  0.00000000000E+00 0.  1.
         23    2    1    2    0    0  0.74579229347E+01 -0.91438760633E+01  0.34421144691E+03  0.35702176725E+03  0.94041432508E+02 0.  0.
         13    1    3    3    0    0 -0.65834483926E+01  0.19075089596E+02  0.30941449536E+03  0.31007181551E+03  0.00000000000E+00 0. -1.
        -13    1    3    3    0    0  0.14041371327E+02 -0.28218965660E+02  0.34796951544E+02  0.46949951740E+02  0.00000000000E+00 0.  1.
         22    1    1    2    0    0 -0.74579229347E+01  0.91438760633E+01  0.69172630105E+02  0.70171816562E+02  0.00000000000E+00 0.  1.
<mgrwt>
<rscale>  0 0.56298970E+02</rscale>
<asrwt>0</asrwt>
<pdfrwt beam="1">  1        1 0.64659800E-01 0.94778806E+02</pdfrwt>
<pdfrwt beam="2">  1       -1 0.10622701E-02 0.94778806E+02</pdfrwt>
<totfact> 0.85422880E+04</totfact>
</mgrwt>
</event>
<event>
 6    1  0.1723639E-002  0.8697449E+02  0.7546771E-02  0.1382663E+00
          2   -1    0    0  501    0  0.00000000000E+00  0.00000000000E+00  0.12387678084E+03  0.12387678084E+03  0.00000000000E+00 0. -1.
         -2   -1    0    0    0  501 -0.00000000000E+00 -0.00000000000E+00 -0.25525672488E+02  0.25525672488E+02  0.00000000000E+00 0.  1.
         23    2    1    2    0    0 -0.21823739670E+02 -0.12467782426E+02  0.81086962926E+02  0.11891029156E+03  0.83263681585E+02 0.  0.
         13    1    3    3    0    0 -0.41971747609E+02 -0.36162507601E+02  0.57735954225E+02  0.80017466616E+02  0.00000000000E+00 0.  1.
        -13    1    3    3    0    0  0.20148007938E+02  0.23694725175E+02  0.23351008701E+02  0.38892824947E+02  0.00000000000E+00 0. -1.
         22    1    1    2    0    0  0.21823739670E+02  0.12467782426E+02  0.17264145426E+02  0.30492161765E+02  0.00000000000E+00 0. -1.
<mgrwt>
<rscale>  0 0.63768999E+02</rscale>
<asrwt>0</asrwt>
<pdfrwt beam="1">  1        2 0.19057966E-01 0.86974490E+02</pdfrwt>
<pdfrwt beam="2">  1       -2 0.39270266E-02 0.86974490E+02</pdfrwt>
<totfact> 0.70671945E+04</totfact>
</mgrwt>
</event>
<event>
 6    1  0.1723639E-002  0.9105982E+02  0.7546771E-02  0.1410248E+00
          2   -1    0    0  501    0  0.00000000000E+00  0.00000000000E+00  0.11254708639E+03  0.11254708639E+03  0.00000000000E+00 0. -1.
         -2   -1    0    0    0  501 -0.00000000000E+00 -0.00000000000E+00 -0.24902047453E+02  0.24902047453E+02  0.00000000000E+00 0.  1.
         23    2    1    2    0    0 -0.44561481218E+01  0.13395058610E+02  0.70023345803E+02  0.11487018524E+03  0.89958910885E+02 0.  0.
         11    1    3    3    0    0  0.25800272218E+02 -0.28075627142E+02  0.40613071466E+02  0.55707418355E+02  0.00000000000E+00 0. -1.
        -11    1    3    3    0    0 -0.30256420339E+02  0.41470685752E+02  0.29410274338E+02  0.59162766882E+02  0.00000000000E+00 0.  1.
         22    1    1    2    0    0  0.44561481218E+01 -0.13395058610E+02  0.17621693133E+02  0.22578948605E+02  0.00000000000E+00 0. -1.
<mgrwt>
<rscale>  0 0.57138570E+02</rscale>
<asrwt>0</asrwt>
<pdfrwt beam="1">  1        2 0.17314936E-01 0.91059818E+02</pdfrwt>
<pdfrwt beam="2">  1       -2 0.38310843E-02 0.91059818E+02</pdfrwt>
<totfact> 0.82236232E+04</totfact>
</mgrwt>
</event>
<event>
 6    1  0.1723639E-002  0.9716545E+02  0.7546771E-02  0.1417207E+00
          1   -1    0    0  501    0  0.00000000000E+00  0.00000000000E+00  0.16512931874E+03  0.16512931874E+03  0.00000000000E+00 0. -1.
         -1   -1    0    0    0  501 -0.00000000000E+00 -0.00000000000E+00 -0.17603898238E+02  0.17603898238E+02  0.00000000000E+00 0.  1.
         23    2    1    2    0    0  0.48081514337E+01 -0.92551672073E+01  0.12936986849E+03  0.16179520110E+03  0.96604077473E+02 0.  0.
         13    1    3    3    0    0  0.42845234531E+02  0.11463167889E+01  0.10960153969E+03  0.11768400769E+03  0.00000000000E+00 0. -1.
        -13    1    3    3    0    0 -0.38037083098E+02 -0.10401483996E+02  0.19768328799E+02  0.44111193403E+02  0.00000000000E+00 0.  1.
         22    1    1    2    0    0 -0.48081514337E+01  0.92551672073E+01  0.18155552012E+02  0.20938015883E+02  0.00000000000E+00 0. -1.
<mgrwt>
<rscale>  0 0.55616128E+02</rscale>
<asrwt>0</asrwt>
<pdfrwt beam="1">  1        1 0.25404509E-01 0.97165448E+02</pdfrwt>
<pdfrwt beam="2">  1       -1 0.27082922E-02 0.97165448E+02</pdfrwt>
<totfact> 0.71267002E+04</totfact>
</mgrwt>
</event>
<event>
 6    1  0.1723639E-002  0.9766368E+02  0.7546771E-02  0.1354874E+00
          2   -1    0    0  501    0  0.00000000000E+00  0.00000000000E+00  0.22945948245E+03  0.22945948245E+03  0.00000000000E+00 0. -1.
         -2   -1    0    0    0  501 -0.00000000000E+00 -0.00000000000E+00 -0.28297292766E+02  0.28297292766E+02  0.00000000000E+00 0.  1.
         23    2    1    2    0    0 -0.27837754821E+02 -0.41610635707E+01  0.61786092870E+02  0.11556693238E+03  0.93519728098E+02 0.  0.
         11    1    3    3    0    0 -0.36562404385E+02  0.34552170876E+02  0.56307660522E+02  0.75506387545E+02  0.00000000000E+00 0. -1.
        -11    1    3    3    0    0  0.87246495641E+01 -0.38713234446E+02  0.54784323481E+01  0.40060544833E+02  0.00000000000E+00 0.  1.
         22    1    1    2    0    0  0.27837754821E+02  0.41610635707E+01  0.13937609682E+03  0.14218984284E+03  0.00000000000E+00 0. -1.
<mgrwt>
<rscale>  0 0.71557959E+02</rscale>
<asrwt>0</asrwt>
<pdfrwt beam="1">  1        2 0.35301458E-01 0.97663681E+02</pdfrwt>
<pdfrwt beam="2">  1       -2 0.43534298E-02 0.97663681E+02</pdfrwt>
<totfact> 0.31549406E+04</totfact>
</mgrwt>
</event>
<event>
 6    1  0.1723639E-002  0.9647518E+02  0.7546771E-02  0.1409155E+00
          2   -1    0    0  501    0  0.00000000000E+00  0.00000000000E+00  0.10767458196E+02  0.10767458196E+02  0.00000000000E+00 0. -1.
         -2   -1    0    0    0  501 -0.00000000000E+00 -0.00000000000E+00 -0.14934115776E+04  0.14934115776E+04  0.00000000000E+00 0.  1.
         23    2    1    2    0    0  0.85281675475E+01  0.85480984145E+01 -0.14878896529E+04  0.14910141109E+04  0.95716560887E+02 0.  0.
         11    1    3    3    0    0  0.71290913757E+01  0.17716678582E+02 -0.57382740959E+02  0.60477132900E+02  0.00000000000E+00 0. -1.
        -11    1    3    3    0    0  0.13990761719E+01 -0.91685801678E+01 -0.14305069119E+04  0.14305369780E+04  0.00000000000E+00 0.  1.
         22    1    1    2    0    0 -0.85281675475E+01 -0.85480984145E+01  0.52455334415E+01  0.13164924964E+02  0.00000000000E+00 0. -1.
<mgrwt>
<rscale>  0 0.57382734E+02</rscale>
<asrwt>0</asrwt>
<pdfrwt beam="1">  1        2 0.16565319E-02 0.96475176E+02</pdfrwt>
<pdfrwt beam="2">  1       -2 0.22975565E+00 0.96475176E+02</pdfrwt>
<totfact> 0.64604756E+02</totfact>
</mgrwt>
</event>
<event>
 6    1  0.1723639E-002  0.9329395E+02  0.7546771E-02  0.1423264E+00
          2   -1    0    0  501    0  0.00000000000E+00  0.00000000000E+00  0.61633618088E+02  0.61633618088E+02  0.00000000000E+00 0. -1.
         -2   -1    0    0    0  501 -0.00000000000E+00 -0.00000000000E+00 -0.44845271595E+02  0.44845271595E+02  0.00000000000E+00 0.  1.
         23    2    1    2    0    0  0.92954919693E+01  0.53694239768E+01  0.10119356816E+02  0.93841156180E+02  0.92674291613E+02 0.  0.
         11    1    3    3    0    0  0.32374330950E+02  0.39717093737E+02  0.11183783102E+02  0.52446371122E+02  0.00000000000E+00 0.  1.
        -11    1    3    3    0    0 -0.23078838981E+02 -0.34347669760E+02 -0.10644262864E+01  0.41394785058E+02  0.00000000000E+00 0. -1.
         22    1    1    2    0    0 -0.92954919693E+01 -0.53694239768E+01  0.66689896776E+01  0.12637733504E+02  0.00000000000E+00 0.  1.
<mgrwt>
<rscale>  0 0.54336174E+02</rscale>
<asrwt>0</asrwt>
<pdfrwt beam="1">  1        2 0.94820951E-02 0.93293951E+02</pdfrwt>
<pdfrwt beam="2">  1       -2 0.68992725E-02 0.93293951E+02</pdfrwt>
<totfact> 0.69886368E+04</totfact>
</mgrwt>
</event>
<event>
 6    1  0.1723639E-002  0.9535754E+02  0.7546771E-02  0.1366623E+00
         -1   -1    0    0    0  501 -0.00000000000E+00  0.00000000000E+00  0.87653862266E+02  0.87653862266E+02  0.00000000000E+00 0.  1.
          1   -1    0    0  501    0  0.00000000000E+00 -0.00000000000E+00 -0.49558440875E+02  0.49558440875E+02  0.00000000000E+00 0. -1.
         23    2    1    2    0    0  0.15969891277E+02 -0.19007762752E+02  0.52147778852E+02  0.10868510169E+03  0.92069148028E+02 0.  0.
         11    1    3    3    0    0 -0.31684359754E+02 -0.79017820109E+00 -0.49907189705E+01  0.32084736410E+02  0.00000000000E+00 0. -1.
        -11    1    3    3    0    0  0.47654251031E+02 -0.18217584551E+02  0.57138497822E+02  0.76600365284E+02  0.00000000000E+00 0.  1.
         22    1    1    2    0    0 -0.15969891277E+02  0.19007762752E+02 -0.14052357461E+02  0.28527201448E+02  0.00000000000E+00 0. -1.
<mgrwt>
<rscale>  0 0.68115063E+02</rscale>
<asrwt>0</asrwt>
<pdfrwt beam="1">  1        1 0.76243755E-02 0.95357540E+02</pdfrwt>
<pdfrwt beam="2">  1       -1 0.13485210E-01 0.95357540E+02</pdfrwt>
<totfact> 0.31036269E+04</totfact>
</mgrwt>
</event>
<event>
 6    1  0.1723639E-002  0.9125168E+02  0.7546771E-02  0.1417880E+00
          3   -1    0    0  501    0  0.00000000000E+00  0.00000000000E+00  0.19554101696E+03  0.19554101696E+03  0.00000000000E+00 0. -1.
         -3   -1    0    0    0  501 -0.00000000000E+00 -0.00000000000E+00 -0.13772504383E+02  0.13772504383E+02  0.00000000000E+00 0.  1.
         23    2    1    2    0    0 -0.11107067895E+02  0.56501467102E+01  0.15720765650E+03  0.18177215670E+03  0.90396784096E+02 0.  0.
         11    1    3    3    0    0  0.20374653170E+01  0.21317834582E+02  0.15973606246E+03  0.16116516679E+03  0.00000000000E+00 0. -1.
        -11    1    3    3    0    0 -0.13144533212E+02 -0.15667687872E+02 -0.25284059587E+01  0.20606989914E+02  0.00000000000E+00 0.  1.
         22    1    1    2    0    0  0.11107067895E+02 -0.56501467102E+01  0.24560856072E+02  0.27541364637E+02  0.00000000000E+00 0.  1.
<mgrwt>
<rscale>  0 0.55472021E+02</rscale>
<asrwt>0</asrwt>
<pdfrwt beam="1">  1        3 0.30083231E-01 0.91251683E+02</pdfrwt>
<pdfrwt beam="2">  1       -3 0.21188470E-02 0.91251683E+02</pdfrwt>
<totfact> 0.19079942E+04</totfact>
</mgrwt>
</event>
<event>
 6    1  0.1723639E-002  0.9624130E+02  0.7546771E-02  0.1364345E+00
          2   -1    0    0  501    0  0.00000000000E+00  0.00000000000E+00  0.98956095184E+01  0.98956095184E+01  0.00000000000E+00 0. -1.
         -2   -1    0    0    0  501 -0.00000000000E+00 -0.00000000000E+00 -0.55465630809E+03  0.55465630809E+03  0.00000000000E+00 0.  1.
         23    2    1    2    0    0  0.24952416000E+02  0.25544004528E+01 -0.52162299618E+03  0.53042712753E+03  0.92915227224E+02 0.  0.
         11    1    3    3    0    0 -0.16175418128E+02  0.35458078221E+02 -0.14529678271E+03  0.15043295693E+03  0.00000000000E+00 0. -1.
        -11    1    3    3    0    0  0.41127834128E+02 -0.32903677768E+02 -0.37632621346E+03  0.37999417060E+03  0.00000000000E+00 0.  1.
         22    1    1    2    0    0 -0.24952416000E+02 -0.25544004528E+01 -0.23137702391E+02  0.34124790078E+02  0.00000000000E+00 0. -1.
<mgrwt>
<rscale>  0 0.68764646E+02</rscale>
<asrwt>0</asrwt>
<pdfrwt beam="1">  1        2 0.15224014E-02 0.96241298E+02</pdfrwt>
<pdfrwt beam="2">  1       -2 0.85331743E-01 0.96241298E+02</pdfrwt>
<totfact> 0.88936394E+03</totfact>
</mgrwt>
</event>
<event>
 6    1  0.1723639E-002  0.9239073E+02  0.7546771E-02  0.1407049E+00
         -2   -1    0    0    0  501 -0.00000000000E+00  0.00000000000E+00  0.49798541020E+02  0.49798541020E+02  0.00000000000E+00 0. -1.
          2   -1    0    0  501    0  0.00000000000E+00 -0.00000000000E+00 -0.67221825117E+02  0.67221825117E+02  0.00000000000E+00 0.  1.
         23    2    1    2    0    0  0.14060271036E+02 -0.20486565687E+01  0.26481703272E+01  0.92428670424E+02  0.91291610211E+02 0.  0.
         11    1    3    3    0    0 -0.39087091461E+02 -0.33124166255E+01  0.13519149032E+01  0.39250484031E+02  0.00000000000E+00 0. -1.
        -11    1    3    3    0    0  0.53147362497E+02  0.12637600568E+01  0.12962554240E+01  0.53178186393E+02  0.00000000000E+00 0.  1.
         22    1    1    2    0    0 -0.14060271036E+02  0.20486565687E+01 -0.20071454425E+02  0.24591695713E+02  0.00000000000E+00 0. -1.
<mgrwt>
<rscale>  0 0.57857566E+02</rscale>
<asrwt>0</asrwt>
<pdfrwt beam="1">  1        2 0.10341819E-01 0.92390726E+02</pdfrwt>
<pdfrwt beam="2">  1       -2 0.76613140E-02 0.92390726E+02</pdfrwt>
<totfact> 0.53568569E+04</totfact>
</mgrwt>
</event>
<event>
 6    1  0.1723639E-002  0.9128560E+02  0.7546771E-02  0.1418431E+00
          2   -1    0    0  501    0  0.00000000000E+00  0.00000000000E+00  0.14439901038E+03  0.14439901038E+03  0.00000000000E+00 0.  1.
         -2   -1    0    0    0  501 -0.00000000000E+00 -0.00000000000E+00 -0.23110791848E+02  0.23110791848E+02  0.00000000000E+00 0. -1.
         23    2    1    2    0    0  0.75999596631E+01 -0.97248278296E+01  0.70768509839E+02  0.11550429647E+03  0.90447381687E+02 0.  0.
         13    1    3    3    0    0 -0.37904595358E+02 -0.65900231715E+00  0.54392515053E+02  0.66300364457E+02  0.00000000000E+00 0.  1.
        -13    1    3    3    0    0  0.45504555021E+02 -0.90658255125E+01  0.16375994786E+02  0.49203932009E+02  0.00000000000E+00 0. -1.
         22    1    1    2    0    0 -0.75999596631E+01  0.97248278296E+01  0.50519708692E+02  0.52005505762E+02  0.00000000000E+00 0.  1.
<mgrwt>
<rscale>  0 0.55354187E+02</rscale>
<asrwt>0</asrwt>
<pdfrwt beam="1">  1        2 0.22215232E-01 0.91285599E+02</pdfrwt>
<pdfrwt beam="2">  1       -2 0.35555065E-02 0.91285599E+02</pdfrwt>
<totfact> 0.69429884E+04</totfact>
</mgrwt>
</event>
<event>
 6    1  0.1723639E-002  0.9912686E+02  0.7546771E-02  0.1365143E+00
         -4   -1    0    0    0  501 -0.00000000000E+00  0.00000000000E+00  0.58927879317E+03  0.58927879317E+03  0.00000000000E+00 0.  1.
          4   -1    0    0  501    0  0.00000000000E+00 -0.00000000000E+00 -0.73981497862E+01  0.73981497862E+01  0.00000000000E+00 0. -1.
         23    2    1    2    0    0  0.14268887424E+02 -0.17592884700E+02  0.54038119084E+03  0.54939782175E+03  0.96504012310E+02 0.  0.
         13    1    3    3    0    0  0.87416625460E+01  0.28779039252E+02  0.40639120364E+03  0.40750271184E+03  0.00000000000E+00 0. -1.
        -13    1    3    3    0    0  0.55272248784E+01 -0.46371923952E+02  0.13398998720E+03  0.14189510990E+03  0.00000000000E+00 0.  1.
         22    1    1    2    0    0 -0.14268887424E+02  0.17592884700E+02  0.41499452545E+02  0.47279121205E+02  0.00000000000E+00 0. -1.
<mgrwt>
<rscale>  0 0.68536183E+02</rscale>
<asrwt>0</asrwt>
<pdfrwt beam="1">  1        4 0.11381773E-02 0.99126864E+02</pdfrwt>
<pdfrwt beam="2">  1       -4 0.90658239E-01 0.99126864E+02</pdfrwt>
<totfact> 0.39239712E+03</totfact>
</mgrwt>
</event>
<event>
 6    1  0.1723639E-002  0.9510355E+02  0.7546771E-02  0.1402166E+00
          2   -1    0    0  501    0  0.00000000000E+00  0.00000000000E+00  0.32195484619E+03  0.32195484619E+03  0.00000000000E+00 0. -1.
         -2   -1    0    0    0  501 -0.00000000000E+00 -0.00000000000E+00 -0.93141980554E+01  0.93141980554E+01  0.00000000000E+00 0.  1.
         23    2    1    2    0    0 -0.12936442876E+02  0.55256322796E+01  0.26269912348E+03  0.27938417120E+03  0.94057437092E+02 0.  0.
         11    1    3    3    0    0 -0.74642934503E+01 -0.39352413579E+02  0.18675106507E+03  0.19099813726E+03  0.00000000000E+00 0. -1.
        -11    1    3    3    0    0 -0.54721494256E+01  0.44878045858E+02  0.75948058412E+02  0.88386033941E+02  0.00000000000E+00 0.  1.
         22    1    1    2    0    0  0.12936442876E+02 -0.55256322796E+01  0.49941524658E+02  0.51884873051E+02  0.00000000000E+00 0. -1.
<mgrwt>
<rscale>  0 0.58979208E+02</rscale>
<asrwt>0</asrwt>
<pdfrwt beam="1">  1        2 0.49531506E-01 0.95103552E+02</pdfrwt>
<pdfrwt beam="2">  1       -2 0.14329538E-02 0.95103552E+02</pdfrwt>
<totfact> 0.11026824E+05</totfact>
</mgrwt>
</event>
<event>
 6    1  0.1723639E-002  0.9239475E+02  0.7546771E-02  0.1389164E+00
          1   -1    0    0  501    0  0.00000000000E+00  0.00000000000E+00  0.56449788601E+02  0.56449788601E+02  0.00000000000E+00 0. -1.
         -1   -1    0    0    0  501 -0.00000000000E+00 -0.00000000000E+00 -0.84356467405E+02  0.84356467405E+02  0.00000000000E+00 0.  1.
         23    2    1    2    0    0  0.18330238144E+02 -0.44952891334E+01 -0.55196081053E+02  0.10762619076E+03  0.90446582680E+02 0.  0.
         13    1    3    3    0    0  0.46116449995E+02 -0.23845317336E+02 -0.12990736284E+02  0.53517150038E+02  0.00000000000E+00 0. -1.
        -13    1    3    3    0    0 -0.27786211851E+02  0.19350028202E+02 -0.42205344769E+02  0.54109040719E+02  0.00000000000E+00 0.  1.
         22    1    1    2    0    0 -0.18330238144E+02  0.44952891334E+01  0.27289402249E+02  0.33180065249E+02  0.00000000000E+00 0. -1.
<mgrwt>
<rscale>  0 0.62115217E+02</rscale>
<asrwt>0</asrwt>
<pdfrwt beam="1">  1        1 0.86845829E-02 0.92394749E+02</pdfrwt>
<pdfrwt beam="2">  1       -1 0.12977918E-01 0.92394749E+02</pdfrwt>
<totfact> 0.27596368E+04</totfact>
</mgrwt>
</event>
<event>
 6    1  0.1723639E-002  0.8055064E+02  0.7546771E-02  0.1447402E+00
         -1   -1    0    0    0  501 -0.00000000000E+00  0.00000000000E+00  0.35618432981E+03  0.35618432981E+03  0.00000000000E+00 0.  1.
          1   -1    0    0  501    0  0.00000000000E+00 -0.00000000000E+00 -0.98723665665E+01  0.98723665665E+01  0.00000000000E+00 0. -1.
         23    2    1    2    0    0  0.85932367267E+01  0.77904286639E+01  0.34512130759E+03  0.35439684401E+03  0.79711176099E+02 0.  0.
         13    1    3    3    0    0  0.22047416604E+02 -0.23487856451E+02  0.27005143220E+03  0.27196607144E+03  0.00000000000E+00 0. -1.
        -13    1    3    3    0    0 -0.13454179877E+02  0.31278285115E+02  0.75069875395E+02  0.82430772578E+02  0.00000000000E+00 0.  1.
         22    1    1    2    0    0 -0.85932367267E+01 -0.77904286639E+01  0.11906556474E+01  0.11659852361E+02  0.00000000000E+00 0. -1.
<mgrwt>
<rscale>  0 0.49619909E+02</rscale>
<asrwt>0</asrwt>
<pdfrwt beam="1">  1        1 0.15188259E-02 0.80550643E+02</pdfrwt>
<pdfrwt beam="2">  1       -1 0.54797579E-01 0.80550643E+02</pdfrwt>
<totfact> 0.26750063E+04</totfact>
</mgrwt>
</event>
<event>
 6    1  0.1723639E-002  0.9578502E+02  0.7546771E-02  0.1358337E+00
          2   -1    0    0  501    0  0.00000000000E+00  0.00000000000E+00  0.30233646053E+03  0.30233646053E+03  0.00000000000E+00 0. -1.
         -2   -1    0    0    0  501 -0.00000000000E+00 -0.00000000000E+00 -0.15684305666E+02  0.15684305666E+02  0.00000000000E+00 0.  1.
         23    2    1    2    0    0 -0.27274679541E+02  0.69271332512E+01  0.14624207132E+03  0.17481851454E+03  0.91558048704E+02 0.  0.
         13    1    3    3    0    0 -0.60099853438E+02 -0.85035011725E+00  0.75995376767E+02  0.96891758001E+02  0.00000000000E+00 0.  1.
        -13    1    3    3    0    0  0.32825173897E+02  0.77774833684E+01  0.70246694556E+02  0.77926756540E+02  0.00000000000E+00 0. -1.
         22    1    1    2    0    0  0.27274679541E+02 -0.69271332512E+01  0.14041008354E+03  0.14320225165E+03  0.00000000000E+00 0. -1.
<mgrwt>
<rscale>  0 0.70519061E+02</rscale>
<asrwt>0</asrwt>
<pdfrwt beam="1">  1        2 0.46513297E-01 0.95785018E+02</pdfrwt>
<pdfrwt beam="2">  1       -2 0.24129703E-02 0.95785018E+02</pdfrwt>
<totfact> 0.55781195E+04</totfact>
</mgrwt>
</event>
<event>
 6    1  0.1723639E-002  0.9585410E+02  0.7546771E-02  0.1351264E+00
         -2   -1    0    0    0  501 -0.00000000000E+00  0.00000000000E+00  0.12132465683E+03  0.12132465683E+03  0.00000000000E+00 0.  1.
          2   -1    0    0  501    0  0.00000000000E+00 -0.00000000000E+00 -0.35109572263E+02  0.35109572263E+02  0.00000000000E+00 0. -1.
         23    2    1    2    0    0  0.31228249194E+02  0.51726130704E+01  0.78392840655E+02  0.12382829446E+03  0.90476790221E+02 0.  0.
         13    1    3    3    0    0  0.31172589441E+02  0.25464895709E+02  0.91299801770E+02  0.99778980998E+02  0.00000000000E+00 0.  1.
        -13    1    3    3    0    0  0.55659753192E-01 -0.20292282639E+02 -0.12906961114E+02  0.24049313460E+02  0.00000000000E+00 0. -1.
         22    1    1    2    0    0 -0.31228249194E+02 -0.51726130704E+01  0.78222439126E+01  0.32605934636E+02  0.00000000000E+00 0. -1.
<mgrwt>
<rscale>  0 0.72663163E+02</rscale>
<asrwt>0</asrwt>
<pdfrwt beam="1">  1        2 0.54014727E-02 0.95854103E+02</pdfrwt>
<pdfrwt beam="2">  1       -2 0.18665332E-01 0.95854103E+02</pdfrwt>
<totfact> 0.29508695E+04</totfact>
</mgrwt>
</event>
<event>
 6    1  0.1723639E-002  0.8908031E+02  0.7546771E-02  0.1409678E+00
         -2   -1    0    0    0  501 -0.00000000000E+00  0.00000000000E+00  0.86044662544E+01  0.86044662544E+01  0.00000000000E+00 0. -1.
          2   -1    0    0  501    0  0.00000000000E+00 -0.00000000000E+00 -0.33083466675E+03  0.33083466675E+03  0.00000000000E+00 0.  1.
         23    2    1    2    0    0  0.13454390146E+02  0.71018009405E+01 -0.24421469674E+03  0.25995407141E+03  0.87771549758E+02 0.  0.
         13    1    3    3    0    0 -0.80007537140E+01 -0.17770357923E+02 -0.73589272569E+01  0.20831502372E+02  0.00000000000E+00 0. -1.
        -13    1    3    3    0    0  0.21455143860E+02  0.24872158864E+02 -0.23685576949E+03  0.23912256904E+03  0.00000000000E+00 0.  1.
         22    1    1    2    0    0 -0.13454390146E+02 -0.71018009405E+01 -0.78015503751E+02  0.79485061592E+02  0.00000000000E+00 0. -1.
<mgrwt>
<rscale>  0 0.57265740E+02</rscale>
<asrwt>0</asrwt>
<pdfrwt beam="1">  1        2 0.50897632E-01 0.89080307E+02</pdfrwt>
<pdfrwt beam="2">  1       -2 0.13237643E-02 0.89080307E+02</pdfrwt>
<totfact> 0.11879698E+05</totfact>
</mgrwt>
</event>
<event>
 6    1  0.1723639E-002  0.7793999E+02  0.7546771E-02  0.1394860E+00
         -4   -1    0    0    0  501 -0.00000000000E+00  0.00000000000E+00  0.89801302579E+02  0.89801302579E+02  0.00000000000E+00 0.  1.
          4   -1    0    0  501    0  0.00000000000E+00 -0.00000000000E+00 -0.32675457222E+02  0.32675457222E+02  0.00000000000E+00 0. -1.
         23    2    1    2    0    0 -0.22816828804E+02  0.17408199634E+02  0.31718951826E+02  0.84147093353E+02  0.72463703491E+02 0.  0.
         13    1    3    3    0    0  0.18253752326E+02  0.29866236064E+02  0.15167860544E+02  0.38147811525E+02  0.00000000000E+00 0.  1.
        -13    1    3    3    0    0 -0.41070581130E+02 -0.12458036430E+02  0.16551091282E+02  0.45999281828E+02  0.00000000000E+00 0. -1.
         22    1    1    2    0    0  0.22816828804E+02 -0.17408199634E+02  0.25406893531E+02  0.38329666449E+02  0.00000000000E+00 0. -1.
<mgrwt>
<rscale>  0 0.60713921E+02</rscale>
<asrwt>0</asrwt>
<pdfrwt beam="1">  1        4 0.50269935E-02 0.77939986E+02</pdfrwt>
<pdfrwt beam="2">  1       -4 0.13815585E-01 0.77939986E+02</pdfrwt>
<totfact> 0.14167634E+04</totfact>
</mgrwt>
</event>
<event>
 6    1  0.1723639E-002  0.1111516E+03  0.7546771E-02  0.1299925E+00
          2   -1    0    0  501    0  0.00000000000E+00  0.00000000000E+00  0.30354222984E+03  0.30354222984E+03  0.00000000000E+00 0.  1.
         -2   -1    0    0    0  501 -0.00000000000E+00 -0.00000000000E+00 -0.31219822618E+02  0.31219822618E+02  0.00000000000E+00 0. -1.
         23    2    1    2    0    0  0.47701294860E+02  0.16332556320E+02  0.82676812294E+02  0.13852847326E+03  0.99058148007E+02 0.  0.
         11    1    3    3    0    0  0.53186419229E+02 -0.24664701332E+02  0.17229991524E+02  0.61106589580E+02  0.00000000000E+00 0. -1.
        -11    1    3    3    0    0 -0.54851243694E+01  0.40997257652E+02  0.65446820770E+02  0.77421883684E+02  0.00000000000E+00 0.  1.
         22    1    1    2    0    0 -0.47701294860E+02 -0.16332556320E+02  0.18964559492E+03  0.19623357919E+03  0.00000000000E+00 0.  1.
<mgrwt>
<rscale>  0 0.91219426E+02</rscale>
<asrwt>0</asrwt>
<pdfrwt beam="1">  1        2 0.46698803E-01 0.11115162E+03</pdfrwt>
<pdfrwt beam="2">  1       -2 0.48030498E-02 0.11115162E+03</pdfrwt>
<totfact> 0.20589472E+04</totfact>
</mgrwt>
</event>
<event>
 6    1  0.1723639E-002  0.9687378E+02  0.7546771E-02  0.1373016E+00
          2   -1    0    0  501    0  0.00000000000E+00  0.00000000000E+00  0.17545825130E+03  0.17545825130E+03  0.00000000000E+00 0. -1.
         -2   -1    0    0    0  501 -0.00000000000E+00 -0.00000000000E+00 -0.20433733233E+02  0.20433733233E+02  0.00000000000E+00 0.  1.
         23    2    1    2    0    0  0.59109069275E+01  0.20463211639E+02  0.11347899251E+03  0.14920459282E+03  0.94503158286E+02 0.  0.
         13    1    3    3    0    0  0.29159401818E+02 -0.18711205891E+00 -0.23688460147E+01  0.29256061881E+02  0.00000000000E+00 0.  1.
        -13    1    3    3    0    0 -0.23248494891E+02  0.20650323698E+02  0.11584783853E+03  0.11994853094E+03  0.00000000000E+00 0. -1.
         22    1    1    2    0    0 -0.59109069275E+01 -0.20463211639E+02  0.41545525560E+02  0.46687391717E+02  0.00000000000E+00 0.  1.
<mgrwt>
<rscale>  0 0.66335896E+02</rscale>
<asrwt>0</asrwt>
<pdfrwt beam="1">  1        2 0.26993576E-01 0.96873778E+02</pdfrwt>
<pdfrwt beam="2">  1       -2 0.31436514E-02 0.96873778E+02</pdfrwt>
<totfact> 0.67735154E+04</totfact>
</mgrwt>
</event>
<event>
 6    1  0.1723639E-002  0.1931445E+03  0.7546771E-02  0.1161105E+00
          4   -1    0    0  501    0  0.00000000000E+00  0.00000000000E+00  0.52640254249E+02  0.52640254249E+02  0.00000000000E+00 0.  1.
         -4   -1    0    0    0  501 -0.00000000000E+00 -0.00000000000E+00 -0.64269071781E+03  0.64269071781E+03  0.00000000000E+00 0. -1.
         23    2    1    2    0    0  0.16986004427E+03 -0.84371714592E+01 -0.36830630157E+03  0.41587776689E+03  0.91548701319E+02 0.  0.
         11    1    3    3    0    0  0.39869664794E+02  0.43104631594E+01 -0.19379272284E+03  0.19789843276E+03  0.00000000000E+00 0. -1.
        -11    1    3    3    0    0  0.12999037948E+03 -0.12747634619E+02 -0.17451357873E+03  0.21797933413E+03  0.00000000000E+00 0.  1.
         22    1    1    2    0    0 -0.16986004427E+03  0.84371714592E+01 -0.22174416199E+03  0.27945320517E+03  0.00000000000E+00 0. -1.
<mgrwt>
<rscale>  0 0.18709763E+03</rscale>
<asrwt>0</asrwt>
<pdfrwt beam="1">  1        4 0.80985009E-02 0.19314447E+03</pdfrwt>
<pdfrwt beam="2">  1       -4 0.98875492E-01 0.19314447E+03</pdfrwt>
<totfact> 0.16813030E+02</totfact>
</mgrwt>
</event>
<event>
 6    1  0.1723639E-002  0.7561762E+02  0.7546771E-02  0.1427726E+00
          4   -1    0    0  501    0  0.00000000000E+00  0.00000000000E+00  0.11842514662E+02  0.11842514662E+02  0.00000000000E+00 0.  1.
         -4   -1    0    0    0  501 -0.00000000000E+00 -0.00000000000E+00 -0.19597869006E+03  0.19597869006E+03  0.00000000000E+00 0. -1.
         23    2    1    2    0    0  0.22707677510E+00  0.18831630735E+02 -0.16184900545E+03  0.17864244833E+03  0.73234840769E+02 0.  0.
         13    1    3    3    0    0  0.92645841589E+01 -0.14605065343E+02 -0.49846707020E+01  0.17999649867E+02  0.00000000000E+00 0.  1.
        -13    1    3    3    0    0 -0.90375073838E+01  0.33436696078E+02 -0.15686433474E+03  0.16064279847E+03  0.00000000000E+00 0. -1.
         22    1    1    2    0    0 -0.22707677510E+00 -0.18831630735E+02 -0.22287169954E+02  0.29178756392E+02  0.00000000000E+00 0. -1.
<mgrwt>
<rscale>  0 0.53419167E+02</rscale>
<asrwt>0</asrwt>
<pdfrwt beam="1">  1        4 0.18219254E-02 0.75617616E+02</pdfrwt>
<pdfrwt beam="2">  1       -4 0.30150567E-01 0.75617616E+02</pdfrwt>
<totfact> 0.16806582E+04</totfact>
</mgrwt>
</event>
<event>
 6    1  0.1723639E-002  0.1093836E+03  0.7546771E-02  0.1299591E+00
          2   -1    0    0  501    0  0.00000000000E+00  0.00000000000E+00  0.31642828240E+03  0.31642828240E+03  0.00000000000E+00 0. -1.
         -2   -1    0    0    0  501 -0.00000000000E+00 -0.00000000000E+00 -0.21150799743E+02  0.21150799743E+02  0.00000000000E+00 0.  1.
         23    2    1    2    0    0  0.11525202314E+02  0.51969513123E+02  0.18047515399E+03  0.21103566963E+03  0.95556852536E+02 0.  0.
         13    1    3    3    0    0 -0.39056084767E+02  0.33308298850E+01  0.66258822266E+02  0.76985087602E+02  0.00000000000E+00 0.  1.
        -13    1    3    3    0    0  0.50581287081E+02  0.48638683238E+02  0.11421633172E+03  0.13405058203E+03  0.00000000000E+00 0. -1.
         22    1    1    2    0    0 -0.11525202314E+02 -0.51969513123E+02  0.11480232867E+03  0.12654341251E+03  0.00000000000E+00 0. -1.
<mgrwt>
<rscale>  0 0.91360327E+02</rscale>
<asrwt>0</asrwt>
<pdfrwt beam="1">  1        2 0.48681271E-01 0.10938360E+03</pdfrwt>
<pdfrwt beam="2">  1       -2 0.32539694E-02 0.10938360E+03</pdfrwt>
<totfact> 0.34977199E+04</totfact>
</mgrwt>
</event>
<event>
 6    1  0.1723639E-002  0.1051173E+03  0.7546771E-02  0.1331235E+00
          3   -1    0    0  501    0  0.00000000000E+00  0.00000000000E+00  0.13231981213E+02  0.13231981213E+02  0.00000000000E+00 0. -1.
         -3   -1    0    0    0  501 -0.00000000000E+00 -0.00000000000E+00 -0.47205775153E+03  0.47205775153E+03  0.00000000000E+00 0.  1.
         23    2    1    2    0    0  0.12100033446E+02  0.31705286795E+02 -0.42331450382E+03  0.43617063189E+03  0.99488768016E+02 0.  0.
         13    1    3    3    0    0  0.27033377778E+02  0.12039691533E+02 -0.30203489997E+02  0.42284849465E+02  0.00000000000E+00 0. -1.
        -13    1    3    3    0    0 -0.14933344332E+02  0.19665595262E+02 -0.39311101382E+03  0.39388578243E+03  0.00000000000E+00 0.  1.
         22    1    1    2    0    0 -0.12100033446E+02 -0.31705286795E+02 -0.35511266499E+02  0.49119100852E+02  0.00000000000E+00 0. -1.
<mgrwt>
<rscale>  0 0.79235557E+02</rscale>
<asrwt>0</asrwt>
<pdfrwt beam="1">  1        3 0.20356896E-02 0.10511732E+03</pdfrwt>
<pdfrwt beam="2">  1       -3 0.72624263E-01 0.10511732E+03</pdfrwt>
<totfact> 0.37055694E+03</totfact>
</mgrwt>
</event>
<event>
 6    1  0.1723639E-002  0.3009939E+03  0.7546771E-02  0.1086529E+00
          2   -1    0    0  501    0  0.00000000000E+00  0.00000000000E+00  0.15062404699E+04  0.15062404699E+04  0.00000000000E+00 0. -1.
         -2   -1    0    0    0  501 -0.00000000000E+00 -0.00000000000E+00 -0.70260381803E+02  0.70260381803E+02  0.00000000000E+00 0.  1.
         23    2    1    2    0    0 -0.28138604925E+03  0.56577917405E+02  0.39460580728E+03  0.49629736986E+03  0.90654104890E+02 0.  0.
         11    1    3    3    0    0 -0.15152825583E+03  0.22894378667E+02  0.13567762646E+03  0.20467873171E+03  0.00000000000E+00 0.  1.
        -11    1    3    3    0    0 -0.12985779342E+03  0.33683538738E+02  0.25892818082E+03  0.29161863815E+03  0.00000000000E+00 0. -1.
         22    1    1    2    0    0  0.28138604925E+03 -0.56577917405E+02  0.10413742808E+04  0.10802034818E+04  0.00000000000E+00 0. -1.
<mgrwt>
<rscale>  0 0.29743732E+03</rscale>
<asrwt>0</asrwt>
<pdfrwt beam="1">  1        2 0.23172928E+00 0.30099391E+03</pdfrwt>
<pdfrwt beam="2">  1       -2 0.10809291E-01 0.30099391E+03</pdfrwt>
<totfact> 0.79246834E+02</totfact>
</mgrwt>
</event>
<event>
 6    1  0.1723639E-002  0.9158518E+02  0.7546771E-02  0.1428967E+00
          4   -1    0    0  501    0  0.00000000000E+00  0.00000000000E+00  0.47081384171E+02  0.47081384171E+02  0.00000000000E+00 0. -1.
         -4   -1    0    0    0  501 -0.00000000000E+00 -0.00000000000E+00 -0.55245797269E+02  0.55245797269E+02  0.00000000000E+00 0.  1.
         23    2    1    2    0    0  0.10398349007E+02  0.27983515909E+00 -0.68238555896E+01  0.91839042223E+02  0.90992531021E+02 0.  0.
         11    1    3    3    0    0 -0.27365569365E+02  0.31023294451E+02  0.51647736430E+01  0.41689256074E+02  0.00000000000E+00 0. -1.
        -11    1    3    3    0    0  0.37763918371E+02 -0.30743459291E+02 -0.11988629233E+02  0.50149786149E+02  0.00000000000E+00 0.  1.
         22    1    1    2    0    0 -0.10398349007E+02 -0.27983515909E+00 -0.13405575085E+01  0.10488139216E+02  0.00000000000E+00 0. -1.
<mgrwt>
<rscale>  0 0.53167874E+02</rscale>
<asrwt>0</asrwt>
<pdfrwt beam="1">  1        4 0.72432899E-02 0.91585177E+02</pdfrwt>
<pdfrwt beam="2">  1       -4 0.84993534E-02 0.91585177E+02</pdfrwt>
<totfact> 0.18738230E+04</totfact>
</mgrwt>
</event>
<event>
 6    1  0.1723639E-002  0.9050677E+02  0.7546771E-02  0.1429055E+00
         -2   -1    0    0    0  501 -0.00000000000E+00  0.00000000000E+00  0.17804511501E+02  0.17804511501E+02  0.00000000000E+00 0.  1.
          2   -1    0    0  501    0  0.00000000000E+00 -0.00000000000E+00 -0.14412934668E+03  0.14412934668E+03  0.00000000000E+00 0. -1.
         23    2    1    2    0    0 -0.53315367210E+01  0.93509216006E+01 -0.11431978601E+03  0.14580976986E+03  0.89864400599E+02 0.  0.
         13    1    3    3    0    0 -0.12193526873E+02 -0.23806666538E+02 -0.10812917404E+03  0.11138831962E+03  0.00000000000E+00 0. -1.
        -13    1    3    3    0    0  0.68619901518E+01  0.33157588139E+02 -0.61906119668E+01  0.34421450239E+02  0.00000000000E+00 0.  1.
         22    1    1    2    0    0  0.53315367210E+01 -0.93509216006E+01 -0.12005049171E+02  0.16124088321E+02  0.00000000000E+00 0. -1.
<mgrwt>
<rscale>  0 0.53150193E+02</rscale>
<asrwt>0</asrwt>
<pdfrwt beam="1">  1        2 0.22173746E-01 0.90506771E+02</pdfrwt>
<pdfrwt beam="2">  1       -2 0.27391556E-02 0.90506771E+02</pdfrwt>
<totfact> 0.10158859E+05</totfact>
</mgrwt>
</event>
<event>
 6    1  0.1723639E-002  0.9367490E+02  0.7546771E-02  0.1406051E+00
          2   -1    0    0  501    0  0.00000000000E+00  0.00000000000E+00  0.17600439489E+03  0.17600439489E+03  0.00000000000E+00 0.  1.
         -2   -1    0    0    0  501 -0.00000000000E+00 -0.00000000000E+00 -0.16646651533E+02  0.16646651533E+02  0.00000000000E+00 0. -1.
         23    2    1    2    0    0 -0.10447167086E+02  0.90890396834E+01  0.14560045390E+03  0.17313139080E+03  0.92645735799E+02 0.  0.
         11    1    3    3    0    0  0.32155271736E+02  0.16111327614E+02  0.21892341277E+02  0.42104762017E+02  0.00000000000E+00 0. -1.
        -11    1    3    3    0    0 -0.42602438822E+02 -0.70222879306E+01  0.12370811262E+03  0.13102662878E+03  0.00000000000E+00 0.  1.
         22    1    1    2    0    0  0.10447167086E+02 -0.90890396834E+01  0.13757289458E+02  0.19519655625E+02  0.00000000000E+00 0. -1.
<mgrwt>
<rscale>  0 0.58084527E+02</rscale>
<asrwt>0</asrwt>
<pdfrwt beam="1">  1        2 0.27077598E-01 0.93674897E+02</pdfrwt>
<pdfrwt beam="2">  1       -2 0.25610234E-02 0.93674897E+02</pdfrwt>
<totfact> 0.90495453E+04</totfact>
</mgrwt>
</event>
<event>
 6    1  0.1723639E-002  0.2074270E+03  0.7546771E-02  0.1148085E+00
          2   -1    0    0  501    0  0.00000000000E+00  0.00000000000E+00  0.63687408069E+03  0.63687408069E+03  0.00000000000E+00 0. -1.
         -2   -1    0    0    0  501 -0.00000000000E+00 -0.00000000000E+00 -0.79628458276E+02  0.79628458276E+02  0.00000000000E+00 0.  1.
         23    2    1    2    0    0 -0.15926798520E+03 -0.96952132509E+02  0.46351848824E+03  0.50781429591E+03  0.90884339034E+02 0.  0.
         11    1    3    3    0    0 -0.12090208302E+03 -0.11142746555E+03  0.34002608434E+03  0.37769184766E+03  0.00000000000E+00 0. -1.
        -11    1    3    3    0    0 -0.38365902183E+02  0.14475333045E+02  0.12349240390E+03  0.13012244825E+03  0.00000000000E+00 0.  1.
         22    1    1    2    0    0  0.15926798520E+03  0.96952132509E+02  0.93727134169E+02  0.20868824305E+03  0.00000000000E+00 0.  1.
<mgrwt>
<rscale>  0 0.20197302E+03</rscale>
<asrwt>0</asrwt>
<pdfrwt beam="1">  1        2 0.97980624E-01 0.20742702E+03</pdfrwt>
<pdfrwt beam="2">  1       -2 0.12250532E-01 0.20742702E+03</pdfrwt>
<totfact> 0.22319811E+03</totfact>
</mgrwt>
</event>
<event>
 6    1  0.1723639E-002  0.9313448E+02  0.7546771E-02  0.1414467E+00
         -2   -1    0    0    0  501 -0.00000000000E+00  0.00000000000E+00  0.55186579702E+03  0.55186579702E+03  0.00000000000E+00 0. -1.
          2   -1    0    0  501    0  0.00000000000E+00 -0.00000000000E+00 -0.54994503867E+01  0.54994503867E+01  0.00000000000E+00 0.  1.
         23    2    1    2    0    0  0.18231964746E+01  0.12221106018E+02  0.51964718598E+03  0.52792729531E+03  0.92311168110E+02 0.  0.
         11    1    3    3    0    0  0.36406317220E+01  0.50451722668E+02  0.37097245020E+03  0.37440511392E+03  0.00000000000E+00 0.  1.
        -11    1    3    3    0    0 -0.18174352474E+01 -0.38230616650E+02  0.14867473578E+03  0.15352218139E+03  0.00000000000E+00 0. -1.
         22    1    1    2    0    0 -0.18231964746E+01 -0.12221106018E+02  0.26719160657E+02  0.29437952101E+02  0.00000000000E+00 0.  1.
<mgrwt>
<rscale>  0 0.56208947E+02</rscale>
<asrwt>0</asrwt>
<pdfrwt beam="1">  1        2 0.84606973E-03 0.93134479E+02</pdfrwt>
<pdfrwt beam="2">  1       -2 0.84902386E-01 0.93134479E+02</pdfrwt>
<totfact> 0.19996423E+04</totfact>
</mgrwt>
</event>
<event>
 6    1  0.1723639E-002  0.9375259E+02  0.7546771E-02  0.1411107E+00
          3   -1    0    0  501    0  0.00000000000E+00  0.00000000000E+00  0.60818155993E+02  0.60818155993E+02  0.00000000000E+00 0. -1.
         -3   -1    0    0    0  501 -0.00000000000E+00 -0.00000000000E+00 -0.50448024363E+02  0.50448024363E+02  0.00000000000E+00 0.  1.
         23    2    1    2    0    0  0.46313115742E+01  0.11893023521E+02 -0.16028770420E+01  0.93766294870E+02  0.92879792116E+02 0.  0.
         13    1    3    3    0    0  0.16606478344E+02  0.31289814580E+02  0.35544631035E+02  0.50182152354E+02  0.00000000000E+00 0. -1.
        -13    1    3    3    0    0 -0.11975166769E+02 -0.19396791060E+02 -0.37147508077E+02  0.43584142517E+02  0.00000000000E+00 0.  1.
         22    1    1    2    0    0 -0.46313115742E+01 -0.11893023521E+02  0.11973008672E+02  0.17499885486E+02  0.00000000000E+00 0. -1.
<mgrwt>
<rscale>  0 0.56947582E+02</rscale>
<asrwt>0</asrwt>
<pdfrwt beam="1">  1        3 0.93566394E-02 0.93752594E+02</pdfrwt>
<pdfrwt beam="2">  1       -3 0.77612345E-02 0.93752594E+02</pdfrwt>
<totfact> 0.19005333E+04</totfact>
</mgrwt>
</event>
<event>
 6    1  0.1723639E-002  0.9262468E+02  0.7546771E-02  0.1403583E+00
          3   -1    0    0  501    0  0.00000000000E+00  0.00000000000E+00  0.32920435510E+02  0.32920435510E+02  0.00000000000E+00 0. -1.
         -3   -1    0    0    0  501 -0.00000000000E+00 -0.00000000000E+00 -0.87867777340E+02  0.87867777340E+02  0.00000000000E+00 0.  1.
         23    2    1    2    0    0 -0.96418812513E+01 -0.11347339315E+02 -0.48608994262E+02  0.10460480673E+03  0.91419928272E+02 0.  0.
         11    1    3    3    0    0 -0.21799781385E+02  0.34922041306E+02 -0.37057565948E+02  0.55389914528E+02  0.00000000000E+00 0.  1.
        -11    1    3    3    0    0  0.12157900134E+02 -0.46269380622E+02 -0.11551428314E+02  0.49214892206E+02  0.00000000000E+00 0. -1.
         22    1    1    2    0    0  0.96418812513E+01  0.11347339315E+02 -0.63383475679E+01  0.16183406115E+02  0.00000000000E+00 0.  1.
<mgrwt>
<rscale>  0 0.58650619E+02</rscale>
<asrwt>0</asrwt>
<pdfrwt beam="1">  1        3 0.50646824E-02 0.92624680E+02</pdfrwt>
<pdfrwt beam="2">  1       -3 0.13518120E-01 0.92624680E+02</pdfrwt>
<totfact> 0.20311872E+04</totfact>
</mgrwt>
</event>
<event>
 6    1  0.1723639E-002  0.9871505E+02  0.7546771E-02  0.1341707E+00
          2   -1    0    0  501    0  0.00000000000E+00  0.00000000000E+00  0.10140631561E+03  0.10140631561E+03  0.00000000000E+00 0. -1.
         -2   -1    0    0    0  501 -0.00000000000E+00 -0.00000000000E+00 -0.45146569381E+02  0.45146569381E+02  0.00000000000E+00 0.  1.
         23    2    1    2    0    0 -0.30033463311E+02 -0.16240787655E+02  0.29071287283E+02  0.10290675799E+03  0.92622292101E+02 0.  0.
         13    1    3    3    0    0  0.14384489151E+02  0.11442477263E+02  0.44661303715E+02  0.48295712683E+02  0.00000000000E+00 0. -1.
        -13    1    3    3    0    0 -0.44417952462E+02 -0.27683264918E+02 -0.15590016432E+02  0.54611045309E+02  0.00000000000E+00 0.  1.
         22    1    1    2    0    0  0.30033463311E+02  0.16240787655E+02  0.27188458943E+02  0.43646126997E+02  0.00000000000E+00 0. -1.
<mgrwt>
<rscale>  0 0.75703199E+02</rscale>
<asrwt>0</asrwt>
<pdfrwt beam="1">  1        2 0.15600972E-01 0.98715050E+02</pdfrwt>
<pdfrwt beam="2">  1       -2 0.69456261E-02 0.98715050E+02</pdfrwt>
<totfact> 0.38597510E+04</totfact>
</mgrwt>
</event>
<event>
 6    1  0.1723639E-002  0.8700940E+02  0.7546771E-02  0.1441222E+00
          4   -1    0    0  501    0  0.00000000000E+00  0.00000000000E+00  0.32080840364E+02  0.32080840364E+02  0.00000000000E+00 0. -1.
         -4   -1    0    0    0  501 -0.00000000000E+00 -0.00000000000E+00 -0.16396865802E+03  0.16396865802E+03  0.00000000000E+00 0.  1.
         23    2    1    2    0    0 -0.24488189459E+01 -0.97861000485E+01 -0.15109352408E+03  0.17435563686E+03  0.86422627926E+02 0.  0.
         13    1    3    3    0    0 -0.27160764046E+02 -0.12447532122E+02 -0.10632868272E+02  0.31712868795E+02  0.00000000000E+00 0. -1.
        -13    1    3    3    0    0  0.24711945100E+02  0.26614320736E+01 -0.14046065581E+03  0.14264276807E+03  0.00000000000E+00 0.  1.
         22    1    1    2    0    0  0.24488189459E+01  0.97861000485E+01  0.19205706426E+02  0.21693861522E+02  0.00000000000E+00 0. -1.
<mgrwt>
<rscale>  0 0.50771984E+02</rscale>
<asrwt>0</asrwt>
<pdfrwt beam="1">  1        4 0.49355139E-02 0.87009397E+02</pdfrwt>
<pdfrwt beam="2">  1       -4 0.25225947E-01 0.87009397E+02</pdfrwt>
<totfact> 0.52071302E+03</totfact>
</mgrwt>
</event>
<event>
 6    1  0.1723639E-002  0.9234390E+02  0.7546771E-02  0.1424540E+00
          1   -1    0    0  501    0  0.00000000000E+00  0.00000000000E+00  0.42493982734E+03  0.42493982734E+03  0.00000000000E+00 0. -1.
         -1   -1    0    0    0  501 -0.00000000000E+00 -0.00000000000E+00 -0.62749942588E+01  0.62749942588E+01  0.00000000000E+00 0.  1.
         23    2    1    2    0    0  0.91156906520E+01  0.58948783274E+01  0.36927669876E+03  0.38064770562E+03  0.91703599391E+02 0.  0.
         13    1    3    3    0    0 -0.14855759285E+01  0.20986682762E+02  0.35884017868E+03  0.35945642521E+03  0.00000000000E+00 0. -1.
        -13    1    3    3    0    0  0.10601266581E+02 -0.15091804434E+02  0.10436520083E+02  0.21191280415E+02  0.00000000000E+00 0.  1.
         22    1    1    2    0    0 -0.91156906520E+01 -0.58948783274E+01  0.49388134324E+02  0.50567115980E+02  0.00000000000E+00 0.  1.
<mgrwt>
<rscale>  0 0.54071726E+02</rscale>
<asrwt>0</asrwt>
<pdfrwt beam="1">  1        1 0.65375335E-01 0.92343898E+02</pdfrwt>
<pdfrwt beam="2">  1       -1 0.96538407E-03 0.92343898E+02</pdfrwt>
<totfact> 0.96074890E+04</totfact>
</mgrwt>
</event>
<event>
 6    1  0.1723639E-002  0.8858098E+02  0.7546771E-02  0.1427970E+00
         -4   -1    0    0    0  501 -0.00000000000E+00  0.00000000000E+00  0.40058386607E+03  0.40058386607E+03  0.00000000000E+00 0.  1.
          4   -1    0    0  501    0  0.00000000000E+00 -0.00000000000E+00 -0.63502012975E+01  0.63502012975E+01  0.00000000000E+00 0. -1.
         23    2    1    2    0    0 -0.11542626837E+02  0.17353235763E+01  0.36104320133E+03  0.37175096851E+03  0.87808574601E+02 0.  0.
         13    1    3    3    0    0 -0.18813869426E+02 -0.63910184952E+01  0.13466363894E+02  0.24003119729E+02  0.00000000000E+00 0. -1.
        -13    1    3    3    0    0  0.72712425895E+01  0.81263420715E+01  0.34757683744E+03  0.34774784878E+03  0.00000000000E+00 0.  1.
         22    1    1    2    0    0  0.11542626837E+02 -0.17353235763E+01  0.33190463435E+02  0.35183098858E+02  0.00000000000E+00 0. -1.
<mgrwt>
<rscale>  0 0.53369711E+02</rscale>
<asrwt>0</asrwt>
<pdfrwt beam="1">  1        4 0.97695436E-03 0.88580976E+02</pdfrwt>
<pdfrwt beam="2">  1       -4 0.61628267E-01 0.88580976E+02</pdfrwt>
<totfact> 0.11018300E+04</totfact>
</mgrwt>
</event>
<event>
 6    1  0.1723639E-002  0.1146733E+03  0.7546771E-02  0.1277815E+00
         -2   -1    0    0    0  501 -0.00000000000E+00  0.00000000000E+00  0.10858426771E+02  0.10858426771E+02  0.00000000000E+00 0.  1.
          2   -1    0    0  501    0  0.00000000000E+00 -0.00000000000E+00 -0.81272212901E+03  0.81272212901E+03  0.00000000000E+00 0. -1.
         23    2    1    2    0    0 -0.19887100845E+02  0.66621049383E+02 -0.57413834955E+03  0.58547827259E+03  0.91192665580E+02 0.  0.
         13    1    3    3    0    0 -0.23475385057E+02  0.78176645949E+02 -0.56345599148E+03  0.56933762919E+03  0.00000000000E+00 0. -1.
        -13    1    3    3    0    0  0.35882842118E+01 -0.11555596566E+02 -0.10682358067E+02  0.16140643403E+02  0.00000000000E+00 0.  1.
         22    1    1    2    0    0  0.19887100845E+02 -0.66621049383E+02 -0.22772535269E+03  0.23810228319E+03  0.00000000000E+00 0.  1.
<mgrwt>
<rscale>  0 0.10118904E+03</rscale>
<asrwt>0</asrwt>
<pdfrwt beam="1">  1        2 0.12503420E+00 0.11467329E+03</pdfrwt>
<pdfrwt beam="2">  1       -2 0.16705268E-02 0.11467329E+03</pdfrwt>
<totfact> 0.32464325E+04</totfact>
</mgrwt>
</event>
<event>
 6    1  0.1723639E-002  0.9103175E+02  0.7546771E-02  0.1429669E+00
         -1   -1    0    0    0  501 -0.00000000000E+00  0.00000000000E+00  0.14891666615E+02  0.14891666615E+02  0.00000000000E+00 0.  1.
          1   -1    0    0  501    0  0.00000000000E+00 -0.00000000000E+00 -0.17592197737E+03  0.17592197737E+03  0.00000000000E+00 0. -1.
         23    2    1    2    0    0 -0.10336897319E+02 -0.17308094465E+01 -0.13574895668E+03  0.16344588902E+03  0.90426391350E+02 0.  0.
         13    1    3    3    0    0  0.81296444555E+01 -0.83233961689E+01  0.10629893013E+02  0.15759589723E+02  0.00000000000E+00 0.  1.
        -13    1    3    3    0    0 -0.18466541774E+02  0.65925867225E+01 -0.14637884969E+03  0.14768629930E+03  0.00000000000E+00 0. -1.
         22    1    1    2    0    0  0.10336897319E+02  0.17308094465E+01 -0.25281354078E+02  0.27367754959E+02  0.00000000000E+00 0. -1.
<mgrwt>
<rscale>  0 0.53026537E+02</rscale>
<asrwt>0</asrwt>
<pdfrwt beam="1">  1        1 0.27064920E-01 0.91031749E+02</pdfrwt>
<pdfrwt beam="2">  1       -1 0.22910256E-02 0.91031749E+02</pdfrwt>
<totfact> 0.82985846E+04</totfact>
</mgrwt>
</event>
<event>
 6    1  0.1723639E-002  0.9255354E+02  0.7546771E-02  0.1395077E+00
         -2   -1    0    0    0  501 -0.00000000000E+00  0.00000000000E+00  0.11740465786E+02  0.11740465786E+02  0.00000000000E+00 0.  1.
          2   -1    0    0  501    0  0.00000000000E+00 -0.00000000000E+00 -0.25655815110E+03  0.25655815110E+03  0.00000000000E+00 0. -1.
         23    2    1    2    0    0  0.73479077929E+01  0.15417826518E+02 -0.20168825418E+03  0.22191059092E+03  0.90964044342E+02 0.  0.
         13    1    3    3    0    0  0.32984953329E+02  0.38537867620E+02 -0.74569465582E+02  0.90187469107E+02  0.00000000000E+00 0.  1.
        -13    1    3    3    0    0 -0.25637045536E+02 -0.23120041102E+02 -0.12711878860E+03  0.13172312181E+03  0.00000000000E+00 0. -1.
         22    1    1    2    0    0 -0.73479077929E+01 -0.15417826518E+02 -0.43129431135E+02  0.46388025972E+02  0.00000000000E+00 0.  1.
<mgrwt>
<rscale>  0 0.60661347E+02</rscale>
<asrwt>0</asrwt>
<pdfrwt beam="1">  1        2 0.39470479E-01 0.92553544E+02</pdfrwt>
<pdfrwt beam="2">  1       -2 0.18062258E-02 0.92553544E+02</pdfrwt>
<totfact> 0.10003290E+05</totfact>
</mgrwt>
</event>
<event>
 6    1  0.1723639E-002  0.9237580E+02  0.7546771E-02  0.1415028E+00
         -2   -1    0    0    0  501 -0.00000000000E+00  0.00000000000E+00  0.83170956452E+01  0.83170956452E+01  0.00000000000E+00 0.  1.
          2   -1    0    0  501    0  0.00000000000E+00 -0.00000000000E+00 -0.33232963207E+03  0.33232963207E+03  0.00000000000E+00 0. -1.
         23    2    1    2    0    0 -0.66409782583E+01  0.10653095065E+02 -0.29188050725E+03  0.30614950572E+03  0.91518841293E+02 0.  0.
         13    1    3    3    0    0 -0.24847534168E+02  0.26144694319E+02 -0.43003551335E+02  0.56127091700E+02  0.00000000000E+00 0.  1.
        -13    1    3    3    0    0  0.18206555910E+02 -0.15491599254E+02 -0.24887695591E+03  0.25002241402E+03  0.00000000000E+00 0. -1.
         22    1    1    2    0    0  0.66409782583E+01 -0.10653095065E+02 -0.32132029178E+02  0.34497222001E+02  0.00000000000E+00 0. -1.
<mgrwt>
<rscale>  0 0.56086729E+02</rscale>
<asrwt>0</asrwt>
<pdfrwt beam="1">  1        2 0.51127634E-01 0.92375805E+02</pdfrwt>
<pdfrwt beam="2">  1       -2 0.12795532E-02 0.92375805E+02</pdfrwt>
<totfact> 0.12479108E+05</totfact>
</mgrwt>
</event>
<event>
 6    1  0.1723639E-002  0.1063606E+03  0.7546771E-02  0.1304636E+00
          2   -1    0    0  501    0  0.00000000000E+00  0.00000000000E+00  0.10479457361E+03  0.10479457361E+03  0.00000000000E+00 0. -1.
         -2   -1    0    0    0  501 -0.00000000000E+00 -0.00000000000E+00 -0.84788088040E+02  0.84788088040E+02  0.00000000000E+00 0.  1.
         23    2    1    2    0    0 -0.71756403957E+01 -0.52284142458E+02 -0.36324732871E+02  0.11239245800E+03  0.92344231171E+02 0.  0.
         11    1    3    3    0    0  0.36279764969E+02 -0.29984562865E+01 -0.28476271173E+02  0.46218071208E+02  0.00000000000E+00 0. -1.
        -11    1    3    3    0    0 -0.43455405365E+02 -0.49285686172E+02 -0.78484616982E+01  0.66174386796E+02  0.00000000000E+00 0.  1.
         22    1    1    2    0    0  0.71756403957E+01  0.52284142458E+02  0.56331218441E+02  0.77190203645E+02  0.00000000000E+00 0. -1.
<mgrwt>
<rscale>  0 0.89267036E+02</rscale>
<asrwt>0</asrwt>
<pdfrwt beam="1">  1        2 0.16122242E-01 0.10636061E+03</pdfrwt>
<pdfrwt beam="2">  1       -2 0.13044321E-01 0.10636061E+03</pdfrwt>
<totfact> 0.14062082E+04</totfact>
</mgrwt>
</event>
<event>
 6    1  0.1723639E-002  0.9376021E+02  0.7546771E-02  0.1394724E+00
          2   -1    0    0  501    0  0.00000000000E+00  0.00000000000E+00  0.14213723706E+03  0.14213723706E+03  0.00000000000E+00 0. -1.
         -2   -1    0    0    0  501 -0.00000000000E+00 -0.00000000000E+00 -0.23393018140E+02  0.23393018140E+02  0.00000000000E+00 0.  1.
         23    2    1    2    0    0  0.15619997177E+02 -0.53818391427E+01  0.79418208741E+02  0.12287485014E+03  0.92293165579E+02 0.  0.
         13    1    3    3    0    0 -0.10483014978E+02 -0.45035859788E+02  0.37260749276E+02  0.59384221023E+02  0.00000000000E+00 0. -1.
        -13    1    3    3    0    0  0.26103012155E+02  0.39654020646E+02  0.42157459466E+02  0.63490629116E+02  0.00000000000E+00 0.  1.
         22    1    1    2    0    0 -0.15619997177E+02  0.53818391427E+01  0.39326010182E+02  0.42655405065E+02  0.00000000000E+00 0. -1.
<mgrwt>
<rscale>  0 0.60746886E+02</rscale>
<asrwt>0</asrwt>
<pdfrwt beam="1">  1        2 0.21867267E-01 0.93760210E+02</pdfrwt>
<pdfrwt beam="2">  1       -2 0.35989260E-02 0.93760210E+02</pdfrwt>
<totfact> 0.69670684E+04</totfact>
</mgrwt>
</event>
<event>
 6    1  0.1723639E-002  0.1203839E+03  0.7546771E-02  0.1266709E+00
         -2   -1    0    0    0  501 -0.00000000000E+00  0.00000000000E+00  0.27790103502E+02  0.27790103502E+02  0.00000000000E+00 0. -1.
          2   -1    0    0  501    0  0.00000000000E+00 -0.00000000000E+00 -0.34335720754E+03  0.34335720754E+03  0.00000000000E+00 0.  1.
         23    2    1    2    0    0 -0.71851252092E+02 -0.19434427189E+02 -0.18128415476E+03  0.21761487195E+03  0.94614947755E+02 0.  0.
         13    1    3    3    0    0 -0.82216592784E+02 -0.41103839203E+02 -0.16406560421E+03  0.18806013988E+03  0.00000000000E+00 0. -1.
        -13    1    3    3    0    0  0.10365340692E+02  0.21669412014E+02 -0.17218550550E+02  0.29554732070E+02  0.00000000000E+00 0.  1.
         22    1    1    2    0    0  0.71851252092E+02  0.19434427189E+02 -0.13428294928E+03  0.15353243910E+03  0.00000000000E+00 0.  1.
<mgrwt>
<rscale>  0 0.10675003E+03</rscale>
<asrwt>0</asrwt>
<pdfrwt beam="1">  1        2 0.52824187E-01 0.12038392E+03</pdfrwt>
<pdfrwt beam="2">  1       -2 0.42754004E-02 0.12038392E+03</pdfrwt>
<totfact> 0.21666193E+04</totfact>
</mgrwt>
</event>
<event>
 6    1  0.1723639E-002  0.9120167E+02  0.7546771E-02  0.1392731E+00
          2   -1    0    0  501    0  0.00000000000E+00  0.00000000000E+00  0.86488556491E+01  0.86488556491E+01  0.00000000000E+00 0. -1.
         -2   -1    0    0    0  501 -0.00000000000E+00 -0.00000000000E+00 -0.44451767740E+03  0.44451767740E+03  0.00000000000E+00 0.  1.
         23    2    1    2    0    0  0.14647426448E+02  0.11352933002E+02 -0.41646721703E+03  0.42633635498E+03  0.89298983923E+02 0.  0.
         11    1    3    3    0    0  0.33212902051E+02  0.42004481997E+02 -0.20633562740E+03  0.21317097482E+03  0.00000000000E+00 0.  1.
        -11    1    3    3    0    0 -0.18565475603E+02 -0.30651548994E+02 -0.21013158963E+03  0.21316538016E+03  0.00000000000E+00 0. -1.
         22    1    1    2    0    0 -0.14647426448E+02 -0.11352933002E+02 -0.19401604719E+02  0.26830178065E+02  0.00000000000E+00 0. -1.
<mgrwt>
<rscale>  0 0.61232621E+02</rscale>
<asrwt>0</asrwt>
<pdfrwt beam="1">  1        2 0.13305926E-02 0.91201671E+02</pdfrwt>
<pdfrwt beam="2">  1       -2 0.68387364E-01 0.91201671E+02</pdfrwt>
<totfact> 0.17082582E+04</totfact>
</mgrwt>
</event>
<event>
 6    1  0.1723639E-002  0.9777843E+02  0.7546771E-02  0.1345203E+00
          2   -1    0    0  501    0  0.00000000000E+00  0.00000000000E+00  0.22649746005E+03  0.22649746005E+03  0.00000000000E+00 0. -1.
         -2   -1    0    0    0  501 -0.00000000000E+00 -0.00000000000E+00 -0.25096611218E+02  0.25096611218E+02  0.00000000000E+00 0.  1.
         23    2    1    2    0    0 -0.32693520517E+02 -0.50407140056E+01  0.81737849739E+02  0.12744291971E+03  0.92012752498E+02 0.  0.
         13    1    3    3    0    0 -0.31871525225E+02 -0.30495731279E+01 -0.11619783618E+02  0.34060437281E+02  0.00000000000E+00 0.  1.
        -13    1    3    3    0    0 -0.82199529225E+00 -0.19911408776E+01  0.93357633357E+02  0.93382482428E+02  0.00000000000E+00 0. -1.
         22    1    1    2    0    0  0.32693520517E+02  0.50407140056E+01  0.11966299909E+03  0.12415115156E+03  0.00000000000E+00 0. -1.
<mgrwt>
<rscale>  0 0.74571540E+02</rscale>
<asrwt>0</asrwt>
<pdfrwt beam="1">  1        2 0.34845762E-01 0.97778432E+02</pdfrwt>
<pdfrwt beam="2">  1       -2 0.38610173E-02 0.97778432E+02</pdfrwt>
<totfact> 0.38186512E+04</totfact>
</mgrwt>
</event>
<event>
 6    1  0.1723639E-002  0.1006862E+03  0.7546771E-02  0.1325448E+00
          4   -1    0    0  501    0  0.00000000000E+00  0.00000000000E+00  0.24244059559E+02  0.24244059559E+02  0.00000000000E+00 0. -1.
         -4   -1    0    0    0  501 -0.00000000000E+00 -0.00000000000E+00 -0.21756390222E+03  0.21756390222E+03  0.00000000000E+00 0.  1.
         23    2    1    2    0    0 -0.23783909339E+01 -0.42700111758E+02 -0.15213049070E+03  0.18243188072E+03  0.91152337400E+02 0.  0.
         11    1    3    3    0    0  0.23561136701E+02  0.22290569320E+01 -0.21871932805E+01  0.23767197393E+02  0.00000000000E+00 0. -1.
        -11    1    3    3    0    0 -0.25939527635E+02 -0.44929168690E+02 -0.14994329742E+03  0.15866468332E+03  0.00000000000E+00 0.  1.
         22    1    1    2    0    0  0.23783909339E+01  0.42700111758E+02 -0.41189351962E+02  0.59376081065E+02  0.00000000000E+00 0.  1.
<mgrwt>
<rscale>  0 0.81283572E+02</rscale>
<asrwt>0</asrwt>
<pdfrwt beam="1">  1        4 0.37298555E-02 0.10068617E+03</pdfrwt>
<pdfrwt beam="2">  1       -4 0.33471368E-01 0.10068617E+03</pdfrwt>
<totfact> 0.49823573E+03</totfact>
</mgrwt>
</event>
<event>
 6    1  0.1723639E-002  0.9219707E+02  0.7546771E-02  0.1399992E+00
         -1   -1    0    0    0  501 -0.00000000000E+00  0.00000000000E+00  0.98585556709E+01  0.98585556709E+01  0.00000000000E+00 0.  1.
          1   -1    0    0  501    0  0.00000000000E+00 -0.00000000000E+00 -0.29759853910E+03  0.29759853910E+03  0.00000000000E+00 0. -1.
         23    2    1    2    0    0 -0.14009599568E+02  0.76870762539E+01 -0.23912869242E+03  0.25628661857E+03  0.90801648094E+02 0.  0.
         11    1    3    3    0    0  0.25374721554E+02  0.20018557390E+02 -0.33470306291E+02  0.46528276748E+02  0.00000000000E+00 0.  1.
        -11    1    3    3    0    0 -0.39384321122E+02 -0.12331481136E+02 -0.20565838613E+03  0.20975834182E+03  0.00000000000E+00 0. -1.
         22    1    1    2    0    0  0.14009599568E+02 -0.76870762539E+01 -0.48611291004E+02  0.51170476199E+02  0.00000000000E+00 0.  1.
<mgrwt>
<rscale>  0 0.59488353E+02</rscale>
<asrwt>0</asrwt>
<pdfrwt beam="1">  1        1 0.45784383E-01 0.92197068E+02</pdfrwt>
<pdfrwt beam="2">  1       -1 0.15167011E-02 0.92197068E+02</pdfrwt>
<totfact> 0.78644897E+04</totfact>
</mgrwt>
</event>
<event>
 6    1  0.1723639E-002  0.9168697E+02  0.7546771E-02  0.1396812E+00
         -2   -1    0    0    0  501 -0.00000000000E+00  0.00000000000E+00  0.16525110868E+02  0.16525110868E+02  0.00000000000E+00 0.  1.
          2   -1    0    0  501    0  0.00000000000E+00 -0.00000000000E+00 -0.23619354040E+03  0.23619354040E+03  0.00000000000E+00 0. -1.
         23    2    1    2    0    0  0.84926917883E+01 -0.14829509378E+02 -0.11703947508E+03  0.14867662873E+03  0.90080303292E+02 0.  0.
         13    1    3    3    0    0 -0.33976043347E+02 -0.26642646324E+02 -0.80795619550E+02  0.91608592736E+02  0.00000000000E+00 0.  1.
        -13    1    3    3    0    0  0.42468735135E+02  0.11813136946E+02 -0.36243855534E+02  0.57068035996E+02  0.00000000000E+00 0. -1.
         22    1    1    2    0    0 -0.84926917883E+01  0.14829509378E+02 -0.10262895445E+03  0.10404202253E+03  0.00000000000E+00 0.  1.
<mgrwt>
<rscale>  0 0.60243619E+02</rscale>
<asrwt>0</asrwt>
<pdfrwt beam="1">  1        2 0.36337468E-01 0.91686974E+02</pdfrwt>
<pdfrwt beam="2">  1       -2 0.25423247E-02 0.91686974E+02</pdfrwt>
<totfact> 0.66626704E+04</totfact>
</mgrwt>
</event>
<event>
 6    1  0.1723639E-002  0.7543643E+02  0.7546771E-02  0.1436543E+00
          2   -1    0    0  501    0  0.00000000000E+00  0.00000000000E+00  0.12204726652E+03  0.12204726652E+03  0.00000000000E+00 0. -1.
         -2   -1    0    0    0  501 -0.00000000000E+00 -0.00000000000E+00 -0.25649635174E+02  0.25649635174E+02  0.00000000000E+00 0.  1.
         23    2    1    2    0    0  0.15598930870E+02 -0.56839631469E+01  0.33313716835E+02  0.82464897651E+02  0.73586829894E+02 0.  0.
         11    1    3    3    0    0 -0.17335393926E+02 -0.18849476363E+01  0.44244434594E+02  0.47556691461E+02  0.00000000000E+00 0. -1.
        -11    1    3    3    0    0  0.32934324796E+02 -0.37990155106E+01 -0.10930717759E+02  0.34908206190E+02  0.00000000000E+00 0.  1.
         22    1    1    2    0    0 -0.15598930870E+02  0.56839631469E+01  0.63083914514E+02  0.65232004045E+02  0.00000000000E+00 0. -1.
<mgrwt>
<rscale>  0 0.51668693E+02</rscale>
<asrwt>0</asrwt>
<pdfrwt beam="1">  1        2 0.18776502E-01 0.75436434E+02</pdfrwt>
<pdfrwt beam="2">  1       -2 0.39460978E-02 0.75436434E+02</pdfrwt>
<totfact> 0.69841358E+04</totfact>
</mgrwt>
</event>
<event>
 6    1  0.1723639E-002  0.9506406E+02  0.7546771E-02  0.1379830E+00
         -2   -1    0    0    0  501 -0.00000000000E+00  0.00000000000E+00  0.95613089006E+02  0.95613089006E+02  0.00000000000E+00 0.  1.
          2   -1    0    0  501    0  0.00000000000E+00 -0.00000000000E+00 -0.36485111177E+02  0.36485111177E+02  0.00000000000E+00 0. -1.
         23    2    1    2    0    0 -0.14737359843E+02 -0.13751143659E+02  0.59108128678E+02  0.11194170939E+03  0.92902592528E+02 0.  0.
         11    1    3    3    0    0 -0.68593030529E+01  0.40057077957E+02  0.23636531987E+02  0.47013882813E+02  0.00000000000E+00 0. -1.
        -11    1    3    3    0    0 -0.78780567902E+01 -0.53808221616E+02  0.35471596691E+02  0.64927826577E+02  0.00000000000E+00 0.  1.
         22    1    1    2    0    0  0.14737359843E+02  0.13751143659E+02  0.19849150871E-01  0.20156490792E+02  0.00000000000E+00 0. -1.
<mgrwt>
<rscale>  0 0.64508352E+02</rscale>
<asrwt>0</asrwt>
<pdfrwt beam="1">  1        2 0.56130941E-02 0.95064060E+02</pdfrwt>
<pdfrwt beam="2">  1       -2 0.14709706E-01 0.95064060E+02</pdfrwt>
<totfact> 0.41453141E+04</totfact>
</mgrwt>
</event>
<event>
 6    1  0.1723639E-002  0.9187653E+02  0.7546771E-02  0.1406177E+00
          1   -1    0    0  501    0  0.00000000000E+00  0.00000000000E+00  0.47753784311E+03  0.47753784311E+03  0.00000000000E+00 0. -1.
         -1   -1    0    0    0  501 -0.00000000000E+00 -0.00000000000E+00 -0.59614956118E+01  0.59614956118E+01  0.00000000000E+00 0.  1.
         23    2    1    2    0    0 -0.10339755244E+02 -0.10375136839E+02  0.39624997415E+03  0.40676201714E+03  0.90701392298E+02 0.  0.
         11    1    3    3    0    0  0.15069759192E+02 -0.44906401965E+02  0.24581513146E+03  0.25033729533E+03  0.00000000000E+00 0. -1.
        -11    1    3    3    0    0 -0.25409514436E+02  0.34531265127E+02  0.15043484269E+03  0.15642472180E+03  0.00000000000E+00 0.  1.
         22    1    1    2    0    0  0.10339755244E+02  0.10375136839E+02  0.75326373345E+02  0.76737321587E+02  0.00000000000E+00 0.  1.
<mgrwt>
<rscale>  0 0.58055786E+02</rscale>
<asrwt>0</asrwt>
<pdfrwt beam="1">  1        1 0.73467330E-01 0.91876529E+02</pdfrwt>
<pdfrwt beam="2">  1       -1 0.91715355E-03 0.91876529E+02</pdfrwt>
<totfact> 0.89058582E+04</totfact>
</mgrwt>
</event>
<event>
 6    1  0.1723639E-002  0.9380179E+02  0.7546771E-02  0.1374209E+00
          2   -1    0    0  501    0  0.00000000000E+00  0.00000000000E+00  0.19388144740E+02  0.19388144740E+02  0.00000000000E+00 0. -1.
         -2   -1    0    0    0  501 -0.00000000000E+00 -0.00000000000E+00 -0.31286728674E+03  0.31286728674E+03  0.00000000000E+00 0.  1.
         23    2    1    2    0    0 -0.20158483158E+02 -0.11085411206E+02 -0.29464957536E+03  0.30922022584E+03  0.90936928808E+02 0.  0.
         11    1    3    3    0    0 -0.30494661788E+02 -0.82723421705E+00 -0.25733587374E+02  0.39910227175E+02  0.00000000000E+00 0. -1.
        -11    1    3    3    0    0  0.10336178631E+02 -0.10258176989E+02 -0.26891598799E+03  0.26930999866E+03  0.00000000000E+00 0.  1.
         22    1    1    2    0    0  0.20158483158E+02  0.11085411206E+02  0.11704333599E+01  0.23035205645E+02  0.00000000000E+00 0. -1.
<mgrwt>
<rscale>  0 0.66010958E+02</rscale>
<asrwt>0</asrwt>
<pdfrwt beam="1">  1        2 0.29827916E-02 0.93801790E+02</pdfrwt>
<pdfrwt beam="2">  1       -2 0.48133428E-01 0.93801790E+02</pdfrwt>
<totfact> 0.11738497E+04</totfact>
</mgrwt>
</event>
<event>
 6    1  0.1723639E-002  0.1084255E+03  0.7546771E-02  0.1305544E+00
         -2   -1    0    0    0  501 -0.00000000000E+00  0.00000000000E+00  0.39141484799E+02  0.39141484799E+02  0.00000000000E+00 0. -1.
          2   -1    0    0  501    0  0.00000000000E+00 -0.00000000000E+00 -0.18368338839E+03  0.18368338839E+03  0.00000000000E+00 0.  1.
         23    2    1    2    0    0  0.45121620001E+02 -0.19097183459E+02 -0.56978133513E+02  0.12248506634E+03  0.96723424108E+02 0.  0.
         11    1    3    3    0    0 -0.72323694583E+01  0.29038248283E+02 -0.38945961711E+02  0.49115323118E+02  0.00000000000E+00 0.  1.
        -11    1    3    3    0    0  0.52353989459E+02 -0.48135431742E+02 -0.18032171802E+02  0.73369743226E+02  0.00000000000E+00 0. -1.
         22    1    1    2    0    0 -0.45121620001E+02  0.19097183459E+02 -0.87563770076E+02  0.10033980684E+03  0.00000000000E+00 0.  1.
<mgrwt>
<rscale>  0 0.88897573E+02</rscale>
<asrwt>0</asrwt>
<pdfrwt beam="1">  1        2 0.28258983E-01 0.10842548E+03</pdfrwt>
<pdfrwt beam="2">  1       -2 0.60217669E-02 0.10842548E+03</pdfrwt>
<totfact> 0.24956308E+04</totfact>
</mgrwt>
</event>
<event>
 6    1  0.1723639E-002  0.8950713E+02  0.7546771E-02  0.1433199E+00
         -2   -1    0    0    0  501 -0.00000000000E+00  0.00000000000E+00  0.52400064389E+02  0.52400064389E+02  0.00000000000E+00 0.  1.
          2   -1    0    0  501    0  0.00000000000E+00 -0.00000000000E+00 -0.48025182417E+02  0.48025182417E+02  0.00000000000E+00 0. -1.
         23    2    1    2    0    0  0.77693178691E+01  0.69916278510E+01  0.65601287646E+01  0.89747210296E+02  0.88894776597E+02 0.  0.
         13    1    3    3    0    0  0.35137818849E+02  0.19123920314E+02  0.31392486678E+02  0.50851537454E+02  0.00000000000E+00 0.  1.
        -13    1    3    3    0    0 -0.27368500979E+02 -0.12132292463E+02 -0.24832357913E+02  0.38895672842E+02  0.00000000000E+00 0. -1.
         22    1    1    2    0    0 -0.77693178691E+01 -0.69916278510E+01 -0.21852467930E+01  0.10678036510E+02  0.00000000000E+00 0.  1.
<mgrwt>
<rscale>  0 0.52323104E+02</rscale>
<asrwt>0</asrwt>
<pdfrwt beam="1">  1        2 0.73884896E-02 0.89507131E+02</pdfrwt>
<pdfrwt beam="2">  1       -2 0.80615483E-02 0.89507131E+02</pdfrwt>
<totfact> 0.74575742E+04</totfact>
</mgrwt>
</event>
<event>
 6    1  0.1723639E-002  0.9242253E+02  0.7546771E-02  0.1402681E+00
          1   -1    0    0  501    0  0.00000000000E+00  0.00000000000E+00  0.19530455311E+02  0.19530455311E+02  0.00000000000E+00 0. -1.
         -1   -1    0    0    0  501 -0.00000000000E+00 -0.00000000000E+00 -0.19865678565E+03  0.19865678565E+03  0.00000000000E+00 0.  1.
         23    2    1    2    0    0 -0.13884299492E+02 -0.61935480778E+01 -0.18063831625E+03  0.20290915497E+03  0.91163534720E+02 0.  0.
         11    1    3    3    0    0 -0.50793372298E+02 -0.12779534278E+02 -0.81085711786E+02  0.96530698856E+02  0.00000000000E+00 0. -1.
        -11    1    3    3    0    0  0.36909072806E+02  0.65859862006E+01 -0.99552604460E+02  0.10637845611E+03  0.00000000000E+00 0.  1.
         22    1    1    2    0    0  0.13884299492E+02  0.61935480778E+01  0.15119859108E+01  0.15278085991E+02  0.00000000000E+00 0. -1.
<mgrwt>
<rscale>  0 0.58859466E+02</rscale>
<asrwt>0</asrwt>
<pdfrwt beam="1">  1        1 0.30046856E-02 0.92422529E+02</pdfrwt>
<pdfrwt beam="2">  1       -1 0.30562581E-01 0.92422529E+02</pdfrwt>
<totfact> 0.29513763E+04</totfact>
</mgrwt>
</event>
<event>
 6    1  0.1723639E-002  0.1095890E+03  0.7546771E-02  0.1291790E+00
         -2   -1    0    0    0  501 -0.00000000000E+00  0.00000000000E+00  0.19931398823E+02  0.19931398823E+02  0.00000000000E+00 0.  1.
          2   -1    0    0  501    0  0.00000000000E+00 -0.00000000000E+00 -0.43478174981E+03  0.43478174981E+03  0.00000000000E+00 0. -1.
         23    2    1    2    0    0  0.15693773507E+01 -0.61160379825E+02 -0.16943634875E+03  0.20178808563E+03  0.90921395809E+02 0.  0.
         13    1    3    3    0    0 -0.35465164095E+02 -0.27539083754E+02 -0.30922590337E+02  0.54519589061E+02  0.00000000000E+00 0.  1.
        -13    1    3    3    0    0  0.37034541445E+02 -0.33621296071E+02 -0.13851375842E+03  0.14726849657E+03  0.00000000000E+00 0. -1.
         22    1    1    2    0    0 -0.15693773507E+01  0.61160379825E+02 -0.24541400224E+03  0.25292506301E+03  0.00000000000E+00 0.  1.
<mgrwt>
<rscale>  0 0.94728047E+02</rscale>
<asrwt>0</asrwt>
<pdfrwt beam="1">  1        2 0.66889501E-01 0.10958903E+03</pdfrwt>
<pdfrwt beam="2">  1       -2 0.30663690E-02 0.10958903E+03</pdfrwt>
<totfact> 0.27270587E+04</totfact>
</mgrwt>
</event>
<event>
 6    1  0.1723639E-002  0.1058233E+03  0.7546771E-02  0.1307810E+00
          2   -1    0    0  501    0  0.00000000000E+00  0.00000000000E+00  0.34179456032E+03  0.34179456032E+03  0.00000000000E+00 0. -1.
         -2   -1    0    0    0  501 -0.00000000000E+00 -0.00000000000E+00 -0.20478300025E+02  0.20478300025E+02  0.00000000000E+00 0.  1.
         23    2    1    2    0    0  0.12121552343E+02 -0.49091652601E+02  0.14945187429E+03  0.18312406866E+03  0.92960418496E+02 0.  0.
         11    1    3    3    0    0  0.24705862936E+02 -0.61961742052E+01  0.13311363329E+03  0.13552863759E+03  0.00000000000E+00 0. -1.
        -11    1    3    3    0    0 -0.12584310594E+02 -0.42895478396E+02  0.16338240999E+02  0.47595431071E+02  0.00000000000E+00 0.  1.
         22    1    1    2    0    0 -0.12121552343E+02  0.49091652601E+02  0.17186438601E+03  0.17914879169E+03  0.00000000000E+00 0. -1.
<mgrwt>
<rscale>  0 0.87983359E+02</rscale>
<asrwt>0</asrwt>
<pdfrwt beam="1">  1        2 0.52583774E-01 0.10582326E+03</pdfrwt>
<pdfrwt beam="2">  1       -2 0.31505079E-02 0.10582326E+03</pdfrwt>
<totfact> 0.33686657E+04</totfact>
</mgrwt>
</event>
<event>
 6    1  0.1723639E-002  0.1018420E+03  0.7546771E-02  0.1322807E+00
         -2   -1    0    0    0  501 -0.00000000000E+00  0.00000000000E+00  0.44897470377E+02  0.44897470377E+02  0.00000000000E+00 0.  1.
          2   -1    0    0  501    0  0.00000000000E+00 -0.00000000000E+00 -0.11880673561E+03  0.11880673561E+03  0.00000000000E+00 0. -1.
         23    2    1    2    0    0 -0.15132425093E+02  0.40580542122E+02 -0.43275151078E+02  0.11065498697E+03  0.92173839849E+02 0.  0.
         13    1    3    3    0    0  0.40364585316E+01 -0.89826908504E+01 -0.55300410442E+02  0.56170429297E+02  0.00000000000E+00 0. -1.
        -13    1    3    3    0    0 -0.19168883624E+02  0.49563232973E+02  0.12025259364E+02  0.54484557674E+02  0.00000000000E+00 0.  1.
         22    1    1    2    0    0  0.15132425093E+02 -0.40580542122E+02 -0.30634114155E+02  0.53049219016E+02  0.00000000000E+00 0.  1.
<mgrwt>
<rscale>  0 0.82241793E+02</rscale>
<asrwt>0</asrwt>
<pdfrwt beam="1">  1        2 0.18277959E-01 0.10184197E+03</pdfrwt>
<pdfrwt beam="2">  1       -2 0.69073032E-02 0.10184197E+03</pdfrwt>
<totfact> 0.32600347E+04</totfact>
</mgrwt>
</event>
<event>
 6    1  0.1723639E-002  0.9173501E+02  0.7546771E-02  0.1422979E+00
         -2   -1    0    0    0  501 -0.00000000000E+00  0.00000000000E+00  0.19388404355E+03  0.19388404355E+03  0.00000000000E+00 0.  1.
          2   -1    0    0  501    0  0.00000000000E+00 -0.00000000000E+00 -0.17930703898E+02  0.17930703898E+02  0.00000000000E+00 0. -1.
         23    2    1    2    0    0  0.11054365956E+01 -0.11286886966E+02  0.17803981538E+03  0.20028352078E+03  0.91031296971E+02 0.  0.
         13    1    3    3    0    0  0.45128703330E+02 -0.19823425515E+01  0.10761845959E+03  0.11671444808E+03  0.00000000000E+00 0.  1.
        -13    1    3    3    0    0 -0.44023266734E+02 -0.93045444146E+01  0.70421355795E+02  0.83569072704E+02  0.00000000000E+00 0. -1.
         22    1    1    2    0    0 -0.11054365956E+01  0.11286886966E+02 -0.20864757301E+01  0.11531226666E+02  0.00000000000E+00 0. -1.
<mgrwt>
<rscale>  0 0.54395521E+02</rscale>
<asrwt>0</asrwt>
<pdfrwt beam="1">  1        2 0.27585700E-02 0.91735014E+02</pdfrwt>
<pdfrwt beam="2">  1       -2 0.29828313E-01 0.91735014E+02</pdfrwt>
<totfact> 0.31636325E+04</totfact>
</mgrwt>
</event>
<event>
 6    1  0.1723639E-002  0.9245027E+02  0.7546771E-02  0.1406865E+00
         -2   -1    0    0    0  501 -0.00000000000E+00  0.00000000000E+00  0.18581416626E+03  0.18581416626E+03  0.00000000000E+00 0.  1.
          2   -1    0    0  501    0  0.00000000000E+00 -0.00000000000E+00 -0.16782270314E+02  0.16782270314E+02  0.00000000000E+00 0. -1.
         23    2    1    2    0    0 -0.31177485259E+01  0.13876357716E+02  0.16247312405E+03  0.18693466311E+03  0.91349759576E+02 0.  0.
         13    1    3    3    0    0 -0.38108927663E+02  0.29032959386E+02  0.12323430475E+03  0.13221912481E+03  0.00000000000E+00 0.  1.
        -13    1    3    3    0    0  0.34991179137E+02 -0.15156601670E+02  0.39238819299E+02  0.54715538301E+02  0.00000000000E+00 0. -1.
         22    1    1    2    0    0  0.31177485259E+01 -0.13876357716E+02  0.65587719042E+01  0.15661773470E+02  0.00000000000E+00 0. -1.
<mgrwt>
<rscale>  0 0.57899332E+02</rscale>
<asrwt>0</asrwt>
<pdfrwt beam="1">  1        2 0.25818879E-02 0.92450269E+02</pdfrwt>
<pdfrwt beam="2">  1       -2 0.28586794E-01 0.92450269E+02</pdfrwt>
<totfact> 0.37307764E+04</totfact>
</mgrwt>
</event>
<event>
 6    1  0.1723639E-002  0.9359229E+02  0.7546771E-02  0.1394516E+00
          1   -1    0    0  501    0  0.00000000000E+00  0.00000000000E+00  0.58404097493E+01  0.58404097493E+01  0.00000000000E+00 0. -1.
         -1   -1    0    0    0  501 -0.00000000000E+00 -0.00000000000E+00 -0.52106051285E+03  0.52106051285E+03  0.00000000000E+00 0.  1.
         23    2    1    2    0    0  0.10876728495E+02 -0.12626578917E+02 -0.44397155492E+03  0.45372927963E+03  0.92096600870E+02 0.  0.
         11    1    3    3    0    0 -0.18664838564E+02 -0.45593376422E+02 -0.24194434516E+03  0.24690929170E+03  0.00000000000E+00 0. -1.
        -11    1    3    3    0    0  0.29541567059E+02  0.32966797504E+02 -0.20202720976E+03  0.20681998792E+03  0.00000000000E+00 0.  1.
         22    1    1    2    0    0 -0.10876728495E+02  0.12626578917E+02 -0.71248548178E+02  0.73171642973E+02  0.00000000000E+00 0.  1.
<mgrwt>
<rscale>  0 0.60797210E+02</rscale>
<asrwt>0</asrwt>
<pdfrwt beam="1">  1        1 0.89852464E-03 0.93592295E+02</pdfrwt>
<pdfrwt beam="2">  1       -1 0.80163151E-01 0.93592295E+02</pdfrwt>
<totfact> 0.27109150E+04</totfact>
</mgrwt>
</event>
<event>
 6    1  0.1723639E-002  0.8988406E+02  0.7546771E-02  0.1350335E+00
         -2   -1    0    0    0  501 -0.00000000000E+00  0.00000000000E+00  0.47244916074E+02  0.47244916074E+02  0.00000000000E+00 0.  1.
          2   -1    0    0  501    0  0.00000000000E+00 -0.00000000000E+00 -0.98103615923E+02  0.98103615923E+02  0.00000000000E+00 0. -1.
         23    2    1    2    0    0 -0.37327652120E+01 -0.38822538136E+02 -0.12685915734E+02  0.90774871221E+02  0.80981613862E+02 0.  0.
         13    1    3    3    0    0 -0.40667483916E+02 -0.23053023381E+02  0.47602824601E+01  0.46988790410E+02  0.00000000000E+00 0.  1.
        -13    1    3    3    0    0  0.36934718704E+02 -0.15769514755E+02 -0.17446198194E+02  0.43786080811E+02  0.00000000000E+00 0. -1.
         22    1    1    2    0    0  0.37327652120E+01  0.38822538136E+02 -0.38172784115E+02  0.54573660777E+02  0.00000000000E+00 0. -1.
<mgrwt>
<rscale>  0 0.72951221E+02</rscale>
<asrwt>0</asrwt>
<pdfrwt beam="1">  1        2 0.15092864E-01 0.89884063E+02</pdfrwt>
<pdfrwt beam="2">  1       -2 0.72684487E-02 0.89884063E+02</pdfrwt>
<totfact> 0.36986423E+04</totfact>
</mgrwt>
</event>
<event>
 6    1  0.1723639E-002  0.9651801E+02  0.7546771E-02  0.1374525E+00
         -2   -1    0    0    0  501 -0.00000000000E+00  0.00000000000E+00  0.27701453951E+03  0.27701453951E+03  0.00000000000E+00 0.  1.
          2   -1    0    0  501    0  0.00000000000E+00 -0.00000000000E+00 -0.12481377096E+02  0.12481377096E+02  0.00000000000E+00 0. -1.
         23    2    1    2    0    0 -0.16484450463E+02 -0.13022314615E+02  0.21315417999E+03  0.23398810076E+03  0.94204082000E+02 0.  0.
         11    1    3    3    0    0 -0.30831349391E+02 -0.43122058564E+02  0.17716809632E+03  0.18492868462E+03  0.00000000000E+00 0. -1.
        -11    1    3    3    0    0  0.14346898928E+02  0.30099743948E+02  0.35986083670E+02  0.49059416145E+02  0.00000000000E+00 0.  1.
         22    1    1    2    0    0  0.16484450463E+02  0.13022314615E+02  0.51378982418E+02  0.55507815840E+02  0.00000000000E+00 0.  1.
<mgrwt>
<rscale>  0 0.65925011E+02</rscale>
<asrwt>0</asrwt>
<pdfrwt beam="1">  1        2 0.19202121E-02 0.96518013E+02</pdfrwt>
<pdfrwt beam="2">  1       -2 0.42617617E-01 0.96518013E+02</pdfrwt>
<totfact> 0.26887196E+04</totfact>
</mgrwt>
</event>
<event>
 6    1  0.1723639E-002  0.9897310E+02  0.7546771E-02  0.1341005E+00
          4   -1    0    0  501    0  0.00000000000E+00  0.00000000000E+00  0.31266456878E+02  0.31266456878E+02  0.00000000000E+00 0. -1.
         -4   -1    0    0    0  501 -0.00000000000E+00 -0.00000000000E+00 -0.16177037200E+03  0.16177037200E+03  0.00000000000E+00 0.  1.
         23    2    1    2    0    0 -0.28756393348E+02  0.18679791186E+02 -0.12310407780E+03  0.15795660155E+03  0.92842927812E+02 0.  0.
         13    1    3    3    0    0 -0.24187057701E+02  0.29166335153E+02 -0.37722692258E+01  0.38077800377E+02  0.00000000000E+00 0. -1.
        -13    1    3    3    0    0 -0.45693356476E+01 -0.10486543967E+02 -0.11933180858E+03  0.11987880117E+03  0.00000000000E+00 0.  1.
         22    1    1    2    0    0  0.28756393348E+02 -0.18679791186E+02 -0.73998373231E+01  0.35080227331E+02  0.00000000000E+00 0.  1.
<mgrwt>
<rscale>  0 0.75933347E+02</rscale>
<asrwt>0</asrwt>
<pdfrwt beam="1">  1        4 0.48102241E-02 0.98973097E+02</pdfrwt>
<pdfrwt beam="2">  1       -4 0.24887750E-01 0.98973097E+02</pdfrwt>
<totfact> 0.57670778E+03</totfact>
</mgrwt>
</event>
<event>
 6    1  0.1723639E-002  0.7968607E+02  0.7546771E-02  0.1397510E+00
          2   -1    0    0  501    0  0.00000000000E+00  0.00000000000E+00  0.27048077474E+02  0.27048077474E+02  0.00000000000E+00 0. -1.
         -2   -1    0    0    0  501 -0.00000000000E+00 -0.00000000000E+00 -0.12121904408E+03  0.12121904408E+03  0.00000000000E+00 0.  1.
         23    2    1    2    0    0 -0.43303505607E+01 -0.25377339551E+02 -0.93037053331E+02  0.12249801102E+03  0.75412917407E+02 0.  0.
         11    1    3    3    0    0 -0.25116872501E+02 -0.27303452376E+02 -0.94549788958E+02  0.10156770347E+03  0.00000000000E+00 0.  1.
        -11    1    3    3    0    0  0.20786521940E+02  0.19261128258E+01  0.15127356267E+01  0.20930307548E+02  0.00000000000E+00 0. -1.
         22    1    1    2    0    0  0.43303505607E+01  0.25377339551E+02 -0.11339132766E+01  0.25769110539E+02  0.00000000000E+00 0. -1.
<mgrwt>
<rscale>  0 0.60076751E+02</rscale>
<asrwt>0</asrwt>
<pdfrwt beam="1">  1        2 0.41612427E-02 0.79686068E+02</pdfrwt>
<pdfrwt beam="2">  1       -2 0.18649084E-01 0.79686068E+02</pdfrwt>
<totfact> 0.40363931E+04</totfact>
</mgrwt>
</event>
<event>
 6    1  0.1723639E-002  0.9330570E+02  0.7546771E-02  0.1376271E+00
          1   -1    0    0  501    0  0.00000000000E+00  0.00000000000E+00  0.12847583512E+03  0.12847583512E+03  0.00000000000E+00 0. -1.
         -1   -1    0    0    0  501 -0.00000000000E+00 -0.00000000000E+00 -0.44443044163E+02  0.44443044163E+02  0.00000000000E+00 0.  1.
         23    2    1    2    0    0  0.22501687853E+02 -0.20595068689E+01  0.80555205516E+01  0.93652788531E+02  0.90528370489E+02 0.  0.
         13    1    3    3    0    0  0.18797898031E+02 -0.20084471280E+02  0.44792188722E+02  0.52565075169E+02  0.00000000000E+00 0. -1.
        -13    1    3    3    0    0  0.37037898225E+01  0.18024964412E+02 -0.36736668170E+02  0.41087713362E+02  0.00000000000E+00 0.  1.
         22    1    1    2    0    0 -0.22501687853E+02  0.20595068689E+01  0.75977270406E+02  0.79266090752E+02  0.00000000000E+00 0. -1.
<mgrwt>
<rscale>  0 0.65454239E+02</rscale>
<asrwt>0</asrwt>
<pdfrwt beam="1">  1        1 0.19765513E-01 0.93305699E+02</pdfrwt>
<pdfrwt beam="2">  1       -1 0.68373914E-02 0.93305699E+02</pdfrwt>
<totfact> 0.25121566E+04</totfact>
</mgrwt>
</event>
<event>
 6    1  0.1723639E-002  0.8484052E+02  0.7546771E-02  0.1438496E+00
         -2   -1    0    0    0  501 -0.00000000000E+00  0.00000000000E+00  0.19058461391E+03  0.19058461391E+03  0.00000000000E+00 0.  1.
          2   -1    0    0  501    0  0.00000000000E+00 -0.00000000000E+00 -0.16604406136E+02  0.16604406136E+02  0.00000000000E+00 0. -1.
         23    2    1    2    0    0  0.11333662802E+02  0.76480451273E-01  0.17627127510E+03  0.19562585650E+03  0.84080054381E+02 0.  0.
         11    1    3    3    0    0 -0.28004002726E+01 -0.65484358749E+01  0.17953703284E+03  0.17967824135E+03  0.00000000000E+00 0.  1.
        -11    1    3    3    0    0  0.14134063075E+02  0.66249163262E+01 -0.32657577408E+01  0.15947615149E+02  0.00000000000E+00 0. -1.
         22    1    1    2    0    0 -0.11333662802E+02 -0.76480451273E-01 -0.22910673212E+01  0.11563163548E+02  0.00000000000E+00 0. -1.
<mgrwt>
<rscale>  0 0.51291751E+02</rscale>
<asrwt>0</asrwt>
<pdfrwt beam="1">  1        2 0.25545242E-02 0.84840517E+02</pdfrwt>
<pdfrwt beam="2">  1       -2 0.29320708E-01 0.84840517E+02</pdfrwt>
<totfact> 0.35733728E+04</totfact>
</mgrwt>
</event>
<event>
 6    1  0.1723639E-002  0.9162413E+02  0.7546771E-02  0.1427887E+00
          4   -1    0    0  501    0  0.00000000000E+00  0.00000000000E+00  0.74634782561E+02  0.74634782561E+02  0.00000000000E+00 0. -1.
         -4   -1    0    0    0  501 -0.00000000000E+00 -0.00000000000E+00 -0.12093428430E+03  0.12093428430E+03  0.00000000000E+00 0.  1.
         23    2    1    2    0    0 -0.68610110416E+01  0.80283965349E+01 -0.10302227055E+03  0.13787157015E+03  0.91013477041E+02 0.  0.
         13    1    3    3    0    0  0.23126995887E+02  0.26586231200E+02 -0.95525868210E+02  0.10181786251E+03  0.00000000000E+00 0.  1.
        -13    1    3    3    0    0 -0.29988006929E+02 -0.18557834665E+02 -0.74964023444E+01  0.36053707647E+02  0.00000000000E+00 0. -1.
         22    1    1    2    0    0  0.68610110416E+01 -0.80283965349E+01  0.56722768819E+02  0.57697496704E+02  0.00000000000E+00 0.  1.
<mgrwt>
<rscale>  0 0.53386408E+02</rscale>
<asrwt>0</asrwt>
<pdfrwt beam="1">  1        4 0.11482274E-01 0.91624132E+02</pdfrwt>
<pdfrwt beam="2">  1       -4 0.18605274E-01 0.91624132E+02</pdfrwt>
<totfact> 0.22946715E+03</totfact>
</mgrwt>
</event>
<event>
 6    1  0.1723639E-002  0.9407924E+02  0.7546771E-02  0.1378131E+00
          4   -1    0    0  501    0  0.00000000000E+00  0.00000000000E+00  0.12466202537E+03  0.12466202537E+03  0.00000000000E+00 0. -1.
         -4   -1    0    0    0  501 -0.00000000000E+00 -0.00000000000E+00 -0.31135200407E+02  0.31135200407E+02  0.00000000000E+00 0.  1.
         23    2    1    2    0    0  0.29291307522E+01 -0.21179861470E+02  0.48260996779E+02  0.10573564829E+03  0.91617340997E+02 0.  0.
         13    1    3    3    0    0  0.26467775976E+02  0.24103351602E+02  0.40599815535E+02  0.54128178844E+02  0.00000000000E+00 0. -1.
        -13    1    3    3    0    0 -0.23538645223E+02 -0.45283213071E+02  0.76611812445E+01  0.51607469451E+02  0.00000000000E+00 0.  1.
         22    1    1    2    0    0 -0.29291307522E+01  0.21179861470E+02  0.45265828186E+02  0.50061577484E+02  0.00000000000E+00 0.  1.
<mgrwt>
<rscale>  0 0.64957550E+02</rscale>
<asrwt>0</asrwt>
<pdfrwt beam="1">  1        4 0.19178773E-01 0.94079241E+02</pdfrwt>
<pdfrwt beam="2">  1       -4 0.47900309E-02 0.94079241E+02</pdfrwt>
<totfact> 0.91568448E+03</totfact>
</mgrwt>
</event>
<event>
 6    1  0.1723639E-002  0.9952117E+02  0.7546771E-02  0.1379420E+00
          2   -1    0    0  501    0  0.00000000000E+00  0.00000000000E+00  0.21679867150E+03  0.21679867150E+03  0.00000000000E+00 0. -1.
         -2   -1    0    0    0  501 -0.00000000000E+00 -0.00000000000E+00 -0.15845435466E+02  0.15845435466E+02  0.00000000000E+00 0.  1.
         23    2    1    2    0    0  0.39667002236E+01 -0.17235387791E+02  0.16927048568E+03  0.19635926202E+03  0.97937067317E+02 0.  0.
         11    1    3    3    0    0 -0.30031819783E+02 -0.43914607428E+02  0.68659452159E+02  0.86859215492E+02  0.00000000000E+00 0. -1.
        -11    1    3    3    0    0  0.33998520006E+02  0.26679219637E+02  0.10061103352E+03  0.10950004653E+03  0.00000000000E+00 0.  1.
         22    1    1    2    0    0 -0.39667002236E+01  0.17235387791E+02  0.31682750353E+02  0.36284844948E+02  0.00000000000E+00 0.  1.
<mgrwt>
<rscale>  0 0.64616551E+02</rscale>
<asrwt>0</asrwt>
<pdfrwt beam="1">  1        2 0.33353640E-01 0.99521166E+02</pdfrwt>
<pdfrwt beam="2">  1       -2 0.24377594E-02 0.99521166E+02</pdfrwt>
<totfact> 0.78422904E+04</totfact>
</mgrwt>
</event>
<event>
 6    1  0.1723639E-002  0.9202152E+02  0.7546771E-02  0.1407605E+00
          1   -1    0    0  501    0  0.00000000000E+00  0.00000000000E+00  0.42280708682E+02  0.42280708682E+02  0.00000000000E+00 0. -1.
         -1   -1    0    0    0  501 -0.00000000000E+00 -0.00000000000E+00 -0.43449260937E+03  0.43449260937E+03  0.00000000000E+00 0.  1.
         23    2    1    2    0    0  0.14037120266E+02  0.24874951040E+01 -0.42824626835E+03  0.43802149191E+03  0.90910574952E+02 0.  0.
         11    1    3    3    0    0  0.19750355191E+02  0.42695961257E+02 -0.29487601772E+03  0.29860490195E+03  0.00000000000E+00 0.  1.
        -11    1    3    3    0    0 -0.57132349243E+01 -0.40208466153E+02 -0.13337025063E+03  0.13941658996E+03  0.00000000000E+00 0. -1.
         22    1    1    2    0    0 -0.14037120266E+02 -0.24874951040E+01  0.36034367659E+02  0.38751826149E+02  0.00000000000E+00 0. -1.
<mgrwt>
<rscale>  0 0.57731802E+02</rscale>
<asrwt>0</asrwt>
<pdfrwt beam="1">  1        1 0.65047247E-02 0.92021525E+02</pdfrwt>
<pdfrwt beam="2">  1       -1 0.66845014E-01 0.92021525E+02</pdfrwt>
<totfact> 0.25691767E+03</totfact>
</mgrwt>
</event>
<event>
 6    1  0.1723639E-002  0.9611473E+02  0.7546771E-02  0.1390562E+00
          2   -1    0    0  501    0  0.00000000000E+00  0.00000000000E+00  0.51356016860E+02  0.51356016860E+02  0.00000000000E+00 0. -1.
         -2   -1    0    0    0  501 -0.00000000000E+00 -0.00000000000E+00 -0.61716361567E+02  0.61716361567E+02  0.00000000000E+00 0.  1.
         23    2    1    2    0    0  0.93705816118E+01 -0.13450893517E+02 -0.72588630872E+01  0.96388448302E+02  0.94706428170E+02 0.  0.
         13    1    3    3    0    0 -0.34841726339E+02  0.31946041001E+01  0.21514899593E+02  0.41073620417E+02  0.00000000000E+00 0. -1.
        -13    1    3    3    0    0  0.44212307951E+02 -0.16645497618E+02 -0.28773762680E+02  0.55314827886E+02  0.00000000000E+00 0.  1.
         22    1    1    2    0    0 -0.93705816118E+01  0.13450893517E+02 -0.31014816202E+01  0.16683930125E+02  0.00000000000E+00 0. -1.
<mgrwt>
<rscale>  0 0.61767193E+02</rscale>
<asrwt>0</asrwt>
<pdfrwt beam="1">  1        2 0.79009257E-02 0.96114733E+02</pdfrwt>
<pdfrwt beam="2">  1       -2 0.94948248E-02 0.96114733E+02</pdfrwt>
<totfact> 0.53878251E+04</totfact>
</mgrwt>
</event>
<event>
 6    1  0.1723639E-002  0.1119559E+03  0.7546771E-02  0.1327969E+00
          3   -1    0    0  501    0  0.00000000000E+00  0.00000000000E+00  0.40383676154E+02  0.40383676154E+02  0.00000000000E+00 0. -1.
         -3   -1    0    0    0  501 -0.00000000000E+00 -0.00000000000E+00 -0.13840698340E+03  0.13840698340E+03  0.00000000000E+00 0.  1.
         23    2    1    2    0    0  0.49980424933E+01 -0.29328558061E+02 -0.98376635832E+02  0.14903717929E+03  0.10793041085E+03 0.  0.
         13    1    3    3    0    0 -0.19689347848E+02 -0.29286799716E+02  0.10956287880E+02  0.36951688736E+02  0.00000000000E+00 0. -1.
        -13    1    3    3    0    0  0.24687390342E+02 -0.41758345421E-01 -0.10933292371E+03  0.11208549056E+03  0.00000000000E+00 0.  1.
         22    1    1    2    0    0 -0.49980424933E+01  0.29328558061E+02  0.35332858570E+00  0.29753480264E+02  0.00000000000E+00 0.  1.
<mgrwt>
<rscale>  0 0.80382583E+02</rscale>
<asrwt>0</asrwt>
<pdfrwt beam="1">  1        3 0.62128733E-02 0.11195588E+03</pdfrwt>
<pdfrwt beam="2">  1       -3 0.21293382E-01 0.11195588E+03</pdfrwt>
<totfact> 0.70376640E+03</totfact>
</mgrwt>
</event>
<event>
 6    1  0.1723639E-002  0.9620557E+02  0.7546771E-02  0.1391303E+00
          4   -1    0    0  501    0  0.00000000000E+00  0.00000000000E+00  0.22914492572E+02  0.22914492572E+02  0.00000000000E+00 0. -1.
         -4   -1    0    0    0  501 -0.00000000000E+00 -0.00000000000E+00 -0.14796413535E+03  0.14796413535E+03  0.00000000000E+00 0.  1.
         23    2    1    2    0    0  0.10794213460E+02  0.12017360810E+02 -0.87676868083E+02  0.13016430251E+03  0.94839761951E+02 0.  0.
         11    1    3    3    0    0 -0.13226173508E+02  0.24274735632E+02 -0.97592392505E+02  0.10143209320E+03  0.00000000000E+00 0.  1.
        -11    1    3    3    0    0  0.24020386968E+02 -0.12257374822E+02  0.99155244214E+01  0.28732209316E+02  0.00000000000E+00 0. -1.
         22    1    1    2    0    0 -0.10794213460E+02 -0.12017360810E+02 -0.37372774692E+02  0.40714325405E+02  0.00000000000E+00 0.  1.
<mgrwt>
<rscale>  0 0.61583745E+02</rscale>
<asrwt>0</asrwt>
<pdfrwt beam="1">  1        4 0.35253063E-02 0.96205574E+02</pdfrwt>
<pdfrwt beam="2">  1       -4 0.22763715E-01 0.96205574E+02</pdfrwt>
<totfact> 0.10995773E+04</totfact>
</mgrwt>
</event>
<event>
 6    1  0.1723639E-002  0.1077156E+03  0.7546771E-02  0.1319597E+00
          2   -1    0    0  501    0  0.00000000000E+00  0.00000000000E+00  0.27967048840E+02  0.27967048840E+02  0.00000000000E+00 0. -1.
         -2   -1    0    0    0  501 -0.00000000000E+00 -0.00000000000E+00 -0.20315613198E+03  0.20315613198E+03  0.00000000000E+00 0.  1.
         23    2    1    2    0    0 -0.51671212168E+01  0.38415266673E+02 -0.10221875297E+03  0.14849690812E+03  0.10049988262E+03 0.  0.
         11    1    3    3    0    0 -0.37698934752E+02 -0.11301082619E+02 -0.13276452572E+02  0.41535386632E+02  0.00000000000E+00 0. -1.
        -11    1    3    3    0    0  0.32531813535E+02  0.49716349293E+02 -0.88942300397E+02  0.10696152149E+03  0.00000000000E+00 0.  1.
         22    1    1    2    0    0  0.51671212168E+01 -0.38415266673E+02 -0.72970330172E+02  0.82626272702E+02  0.00000000000E+00 0. -1.
<mgrwt>
<rscale>  0 0.83427343E+02</rscale>
<asrwt>0</asrwt>
<pdfrwt beam="1">  1        2 0.43026228E-02 0.10771564E+03</pdfrwt>
<pdfrwt beam="2">  1       -2 0.31254790E-01 0.10771564E+03</pdfrwt>
<totfact> 0.16493246E+04</totfact>
</mgrwt>
</event>
<event>
 6    1  0.1723639E-002  0.9160692E+02  0.7546771E-02  0.1400381E+00
          2   -1    0    0  501    0  0.00000000000E+00  0.00000000000E+00  0.30830923282E+03  0.30830923282E+03  0.00000000000E+00 0. -1.
         -2   -1    0    0    0  501 -0.00000000000E+00 -0.00000000000E+00 -0.95157787745E+01  0.95157787745E+01  0.00000000000E+00 0.  1.
         23    2    1    2    0    0 -0.16126038489E+02 -0.14450177064E+01  0.24160515161E+03  0.25838900290E+03  0.90164795480E+02 0.  0.
         13    1    3    3    0    0 -0.44847466734E+02 -0.10712286745E+02  0.20872891386E+03  0.21376109992E+03  0.00000000000E+00 0. -1.
        -13    1    3    3    0    0  0.28721428244E+02  0.92672690387E+01  0.32876237751E+02  0.44627902981E+02  0.00000000000E+00 0.  1.
         22    1    1    2    0    0  0.16126038489E+02  0.14450177064E+01  0.57188302435E+02  0.59436008689E+02  0.00000000000E+00 0. -1.
<mgrwt>
<rscale>  0 0.59396696E+02</rscale>
<asrwt>0</asrwt>
<pdfrwt beam="1">  1        2 0.47432182E-01 0.91606919E+02</pdfrwt>
<pdfrwt beam="2">  1       -2 0.14639662E-02 0.91606919E+02</pdfrwt>
<totfact> 0.11128038E+05</totfact>
</mgrwt>
</event>
<event>
 6    1  0.1723639E-002  0.9100008E+02  0.7546771E-02  0.1426462E+00
          2   -1    0    0  501    0  0.00000000000E+00  0.00000000000E+00  0.97299280851E+01  0.97299280851E+01  0.00000000000E+00 0. -1.
         -2   -1    0    0    0  501 -0.00000000000E+00 -0.00000000000E+00 -0.59059202408E+03  0.59059202408E+03  0.00000000000E+00 0.  1.
         23    2    1    2    0    0  0.48708846835E+01  0.98805899763E+01 -0.58216035450E+03  0.58922974540E+03  0.90330852631E+02 0.  0.
         11    1    3    3    0    0  0.27731280480E+02 -0.20827603307E+02 -0.10592508484E+03  0.11145822794E+03  0.00000000000E+00 0. -1.
        -11    1    3    3    0    0 -0.22860395797E+02  0.30708193283E+02 -0.47623526966E+03  0.47777151746E+03  0.00000000000E+00 0.  1.
         22    1    1    2    0    0 -0.48708846835E+01 -0.98805899763E+01  0.12982585005E+01  0.11092206769E+02  0.00000000000E+00 0. -1.
<mgrwt>
<rscale>  0 0.53676848E+02</rscale>
<asrwt>0</asrwt>
<pdfrwt beam="1">  1        2 0.14969122E-02 0.91000080E+02</pdfrwt>
<pdfrwt beam="2">  1       -2 0.90860302E-01 0.91000080E+02</pdfrwt>
<totfact> 0.78653447E+03</totfact>
</mgrwt>
</event>
<event>
 6    1  0.1723639E-002  0.9800292E+02  0.7546771E-02  0.1389304E+00
         -2   -1    0    0    0  501 -0.00000000000E+00  0.00000000000E+00  0.12838098736E+02  0.12838098736E+02  0.00000000000E+00 0.  1.
          2   -1    0    0  501    0  0.00000000000E+00 -0.00000000000E+00 -0.27331286692E+03  0.27331286692E+03  0.00000000000E+00 0. -1.
         23    2    1    2    0    0 -0.15494461393E+02  0.29855344537E+01 -0.18836062003E+03  0.21233062893E+03  0.96724252673E+02 0.  0.
         13    1    3    3    0    0  0.31646286195E+02 -0.17400567542E+02 -0.33815665654E+02  0.49474907017E+02  0.00000000000E+00 0.  1.
        -13    1    3    3    0    0 -0.47140747588E+02  0.20386101996E+02 -0.15454495437E+03  0.16285572191E+03  0.00000000000E+00 0. -1.
         22    1    1    2    0    0  0.15494461393E+02 -0.29855344537E+01 -0.72114148157E+02  0.73820336725E+02  0.00000000000E+00 0. -1.
<mgrwt>
<rscale>  0 0.62080097E+02</rscale>
<asrwt>0</asrwt>
<pdfrwt beam="1">  1        2 0.42048131E-01 0.98002922E+02</pdfrwt>
<pdfrwt beam="2">  1       -2 0.19750922E-02 0.98002922E+02</pdfrwt>
<totfact> 0.83021777E+04</totfact>
</mgrwt>
</event>
<event>
 6    1  0.1723639E-002  0.9849223E+02  0.7546771E-02  0.1393027E+00
         -1   -1    0    0    0  501 -0.00000000000E+00  0.00000000000E+00  0.84780199928E+01  0.84780199928E+01  0.00000000000E+00 0.  1.
          1   -1    0    0  501    0  0.00000000000E+00 -0.00000000000E+00 -0.39161734468E+03  0.39161734468E+03  0.00000000000E+00 0. -1.
         23    2    1    2    0    0  0.11376552211E+02 -0.92211083613E+01 -0.30229818938E+03  0.31793853941E+03  0.97397457665E+02 0.  0.
         13    1    3    3    0    0  0.46726001150E+02 -0.17201381079E+02 -0.92655354170E+02  0.10518660253E+03  0.00000000000E+00 0.  1.
        -13    1    3    3    0    0 -0.35349448939E+02  0.79802727177E+01 -0.20964283521E+03  0.21275193688E+03  0.00000000000E+00 0. -1.
         22    1    1    2    0    0 -0.11376552211E+02  0.92211083613E+01 -0.80841135307E+02  0.82156825263E+02  0.00000000000E+00 0.  1.
<mgrwt>
<rscale>  0 0.61160137E+02</rscale>
<asrwt>0</asrwt>
<pdfrwt beam="1">  1        1 0.60248820E-01 0.98492231E+02</pdfrwt>
<pdfrwt beam="2">  1       -1 0.13043108E-02 0.98492231E+02</pdfrwt>
<totfact> 0.70133041E+04</totfact>
</mgrwt>
</event>
<event>
 6    1  0.1723639E-002  0.1010935E+03  0.7546771E-02  0.1403477E+00
         -2   -1    0    0    0  501 -0.00000000000E+00  0.00000000000E+00  0.43491845166E+02  0.43491845166E+02  0.00000000000E+00 0.  1.
          2   -1    0    0  501    0  0.00000000000E+00 -0.00000000000E+00 -0.98038017879E+02  0.98038017879E+02  0.00000000000E+00 0. -1.
         23    2    1    2    0    0  0.82739552766E+01  0.79468368904E+01 -0.17307840876E+02  0.10256444363E+03  0.10044049576E+03 0.  0.
         11    1    3    3    0    0  0.83850687526E+00 -0.56500285634E+01  0.41427320449E+02  0.41819239545E+02  0.00000000000E+00 0.  1.
        -11    1    3    3    0    0  0.74354484014E+01  0.13596865454E+02 -0.58735161324E+02  0.60745204081E+02  0.00000000000E+00 0. -1.
         22    1    1    2    0    0 -0.82739552766E+01 -0.79468368904E+01 -0.37238331838E+02  0.38965419419E+02  0.00000000000E+00 0. -1.
<mgrwt>
<rscale>  0 0.58675107E+02</rscale>
<asrwt>0</asrwt>
<pdfrwt beam="1">  1        2 0.15082772E-01 0.10109354E+03</pdfrwt>
<pdfrwt beam="2">  1       -2 0.66910532E-02 0.10109354E+03</pdfrwt>
<totfact> 0.42602298E+04</totfact>
</mgrwt>
</event>
<event>
 6    1  0.1723639E-002  0.9205462E+02  0.7546771E-02  0.1415769E+00
         -2   -1    0    0    0  501 -0.00000000000E+00  0.00000000000E+00  0.28532268736E+03  0.28532268736E+03  0.00000000000E+00 0.  1.
          2   -1    0    0  501    0  0.00000000000E+00 -0.00000000000E+00 -0.96039076032E+01  0.96039076032E+01  0.00000000000E+00 0. -1.
         23    2    1    2    0    0 -0.46609027281E+00  0.12532159443E+02  0.24662623233E+03  0.26324618183E+03  0.91196389813E+02 0.  0.
         11    1    3    3    0    0 -0.36142462131E+02 -0.24424558866E+01  0.19708362036E+03  0.20038512064E+03  0.00000000000E+00 0.  1.
        -11    1    3    3    0    0  0.35676371858E+02  0.14974615329E+02  0.49542611970E+02  0.62861061191E+02  0.00000000000E+00 0. -1.
         22    1    1    2    0    0  0.46609027281E+00 -0.12532159443E+02  0.29092547423E+02  0.31680413129E+02  0.00000000000E+00 0. -1.
<mgrwt>
<rscale>  0 0.55926253E+02</rscale>
<asrwt>0</asrwt>
<pdfrwt beam="1">  1        2 0.14775245E-02 0.92054624E+02</pdfrwt>
<pdfrwt beam="2">  1       -2 0.43895792E-01 0.92054624E+02</pdfrwt>
<totfact> 0.36020409E+04</totfact>
</mgrwt>
</event>
<event>
 6    1  0.1723639E-002  0.9538750E+02  0.7546771E-02  0.1361857E+00
         -4   -1    0    0    0  501 -0.00000000000E+00  0.00000000000E+00  0.62698384211E+02  0.62698384211E+02  0.00000000000E+00 0.  1.
          4   -1    0    0  501    0  0.00000000000E+00 -0.00000000000E+00 -0.75711668081E+02  0.75711668081E+02  0.00000000000E+00 0. -1.
         23    2    1    2    0    0 -0.20967508873E+02 -0.16783518768E+02  0.18331204450E+02  0.97132941459E+02  0.91528423615E+02 0.  0.
         11    1    3    3    0    0 -0.33450076935E+02  0.14316808394E+02 -0.23665480975E+02  0.43404304387E+02  0.00000000000E+00 0. -1.
        -11    1    3    3    0    0  0.12482568062E+02 -0.31100327162E+02  0.41996685425E+02  0.53728637073E+02  0.00000000000E+00 0.  1.
         22    1    1    2    0    0  0.20967508873E+02  0.16783518768E+02 -0.31344488320E+02  0.41277110832E+02  0.00000000000E+00 0. -1.
<mgrwt>
<rscale>  0 0.69484001E+02</rscale>
<asrwt>0</asrwt>
<pdfrwt beam="1">  1        4 0.11647949E-01 0.95387501E+02</pdfrwt>
<pdfrwt beam="2">  1       -4 0.96459053E-02 0.95387501E+02</pdfrwt>
<totfact> 0.69855055E+03</totfact>
</mgrwt>
</event>
<event>
 6    1  0.1723639E-002  0.9213021E+02  0.7546771E-02  0.1406017E+00
          2   -1    0    0  501    0  0.00000000000E+00  0.00000000000E+00  0.78859353000E+03  0.78859353000E+03  0.00000000000E+00 0. -1.
         -2   -1    0    0    0  501 -0.00000000000E+00 -0.00000000000E+00 -0.37370582812E+01  0.37370582812E+01  0.00000000000E+00 0.  1.
         23    2    1    2    0    0 -0.14405489260E+02  0.21391105402E+01  0.71928680171E+03  0.72516306979E+03  0.90971867977E+02 0.  0.
         13    1    3    3    0    0 -0.31643808616E+02 -0.32791467519E+02  0.52724443206E+03  0.52921007370E+03  0.00000000000E+00 0. -1.
        -13    1    3    3    0    0  0.17238319356E+02  0.34930578059E+02  0.19204236965E+03  0.19595299609E+03  0.00000000000E+00 0.  1.
         22    1    1    2    0    0  0.14405489260E+02 -0.21391105402E+01  0.65569670008E+02  0.67167518487E+02  0.00000000000E+00 0.  1.
<mgrwt>
<rscale>  0 0.58092164E+02</rscale>
<asrwt>0</asrwt>
<pdfrwt beam="1">  1        2 0.12132195E+00 0.92130205E+02</pdfrwt>
<pdfrwt beam="2">  1       -2 0.57493267E-03 0.92130205E+02</pdfrwt>
<totfact> 0.14928278E+05</totfact>
</mgrwt>
</event>
<event>
 6    1  0.1723639E-002  0.9249991E+02  0.7546771E-02  0.1423694E+00
         -4   -1    0    0    0  501 -0.00000000000E+00  0.00000000000E+00  0.28969289823E+03  0.28969289823E+03  0.00000000000E+00 0.  1.
          4   -1    0    0  501    0  0.00000000000E+00 -0.00000000000E+00 -0.10992650763E+02  0.10992650763E+02  0.00000000000E+00 0. -1.
         23    2    1    2    0    0 -0.82837151559E+01 -0.71481304862E+01  0.27320976605E+03  0.28844377248E+03  0.91850519361E+02 0.  0.
         11    1    3    3    0    0  0.11148524336E+02 -0.45568226032E+02  0.17563555426E+03  0.18179274116E+03  0.00000000000E+00 0.  1.
        -11    1    3    3    0    0 -0.19432239492E+02  0.38420095546E+02  0.97574211794E+02  0.10665103132E+03  0.00000000000E+00 0. -1.
         22    1    1    2    0    0  0.82837151559E+01  0.71481304862E+01  0.54904814186E+01  0.12241776523E+02  0.00000000000E+00 0. -1.
<mgrwt>
<rscale>  0 0.54246894E+02</rscale>
<asrwt>0</asrwt>
<pdfrwt beam="1">  1        4 0.16911773E-02 0.92499911E+02</pdfrwt>
<pdfrwt beam="2">  1       -4 0.44568133E-01 0.92499911E+02</pdfrwt>
<totfact> 0.94556228E+03</totfact>
</mgrwt>
</event>
<event>
 6    1  0.1723639E-002  0.9210054E+02  0.7546771E-02  0.1402212E+00
         -1   -1    0    0    0  501 -0.00000000000E+00  0.00000000000E+00  0.15777832074E+02  0.15777832074E+02  0.00000000000E+00 0.  1.
          1   -1    0    0  501    0  0.00000000000E+00 -0.00000000000E+00 -0.18394993789E+03  0.18394993789E+03  0.00000000000E+00 0. -1.
         23    2    1    2    0    0 -0.15475701986E+02  0.21650899335E+00 -0.13986099217E+03  0.16746225611E+03  0.90790780723E+02 0.  0.
         13    1    3    3    0    0 -0.33392456576E+02 -0.23606850576E+02 -0.12966041471E+03  0.13595647352E+03  0.00000000000E+00 0. -1.
        -13    1    3    3    0    0  0.17916754590E+02  0.23823359569E+02 -0.10200577461E+02  0.31505782592E+02  0.00000000000E+00 0.  1.
         22    1    1    2    0    0  0.15475701986E+02 -0.21650899335E+00 -0.28311113649E+02  0.32265513852E+02  0.00000000000E+00 0. -1.
<mgrwt>
<rscale>  0 0.58968470E+02</rscale>
<asrwt>0</asrwt>
<pdfrwt beam="1">  1        1 0.28299989E-01 0.92100543E+02</pdfrwt>
<pdfrwt beam="2">  1       -1 0.24273589E-02 0.92100543E+02</pdfrwt>
<totfact> 0.72427357E+04</totfact>
</mgrwt>
</event>
<event>
 6    1  0.1723639E-002  0.9919505E+02  0.7546771E-02  0.1373762E+00
         -2   -1    0    0    0  501 -0.00000000000E+00  0.00000000000E+00  0.36265950389E+02  0.36265950389E+02  0.00000000000E+00 0.  1.
          2   -1    0    0  501    0  0.00000000000E+00 -0.00000000000E+00 -0.97797801573E+02  0.97797801573E+02  0.00000000000E+00 0. -1.
         23    2    1    2    0    0 -0.19043016837E+02 -0.46259537001E+01 -0.47635941499E+02  0.11004017513E+03  0.97240018933E+02 0.  0.
         11    1    3    3    0    0 -0.19064261984E+02 -0.20784434431E+02  0.23735729366E+02  0.36862225220E+02  0.00000000000E+00 0.  1.
        -11    1    3    3    0    0  0.21245147346E-01  0.16158480731E+02 -0.71371670865E+02  0.73177949909E+02  0.00000000000E+00 0. -1.
         22    1    1    2    0    0  0.19043016837E+02  0.46259537001E+01 -0.13895909685E+02  0.24023576833E+02  0.00000000000E+00 0. -1.
<mgrwt>
<rscale>  0 0.66132352E+02</rscale>
<asrwt>0</asrwt>
<pdfrwt beam="1">  1        2 0.15045815E-01 0.99195046E+02</pdfrwt>
<pdfrwt beam="2">  1       -2 0.55793771E-02 0.99195046E+02</pdfrwt>
<totfact> 0.56028348E+04</totfact>
</mgrwt>
</event>
<event>
 6    1  0.1723639E-002  0.6565176E+02  0.7546771E-02  0.1489689E+00
         -3   -1    0    0    0  501 -0.00000000000E+00  0.00000000000E+00  0.13098727192E+03  0.13098727192E+03  0.00000000000E+00 0.  1.
          3   -1    0    0  501    0  0.00000000000E+00 -0.00000000000E+00 -0.11800647071E+02  0.11800647071E+02  0.00000000000E+00 0. -1.
         23    2    1    2    0    0  0.32486187300E+01 -0.11212624651E+02  0.10924570192E+03  0.12745499938E+03  0.64605549316E+02 0.  0.
         11    1    3    3    0    0 -0.35683991026E+01  0.22207557789E+02  0.14510914717E+02  0.26767064483E+02  0.00000000000E+00 0. -1.
        -11    1    3    3    0    0  0.68170178326E+01 -0.33420182439E+02  0.94734787206E+02  0.10068793489E+03  0.00000000000E+00 0.  1.
         22    1    1    2    0    0 -0.32486187300E+01  0.11212624651E+02  0.99409229231E+01  0.15332919610E+02  0.00000000000E+00 0.  1.
<mgrwt>
<rscale>  0 0.42632165E+02</rscale>
<asrwt>0</asrwt>
<pdfrwt beam="1">  1        3 0.18154843E-02 0.65651759E+02</pdfrwt>
<pdfrwt beam="2">  1       -3 0.20151887E-01 0.65651759E+02</pdfrwt>
<totfact> 0.44736440E+04</totfact>
</mgrwt>
</event>
<event>
 6    1  0.1723639E-002  0.9176302E+02  0.7546771E-02  0.1399632E+00
         -2   -1    0    0    0  501 -0.00000000000E+00  0.00000000000E+00  0.58883017803E+03  0.58883017803E+03  0.00000000000E+00 0.  1.
          2   -1    0    0  501    0  0.00000000000E+00 -0.00000000000E+00 -0.51309811848E+01  0.51309811848E+01  0.00000000000E+00 0. -1.
         23    2    1    2    0    0  0.13898649307E+02 -0.85163356013E+01  0.52843507058E+03  0.53634324467E+03  0.90303664707E+02 0.  0.
         11    1    3    3    0    0  0.32926705049E+02  0.18838686651E+02  0.44328614132E+03  0.44490635768E+03  0.00000000000E+00 0.  1.
        -11    1    3    3    0    0 -0.19028055742E+02 -0.27355022253E+02  0.85148929261E+02  0.91436886988E+02  0.00000000000E+00 0. -1.
         22    1    1    2    0    0 -0.13898649307E+02  0.85163356013E+01  0.55264126262E+02  0.57617914542E+02  0.00000000000E+00 0. -1.
<mgrwt>
<rscale>  0 0.59573047E+02</rscale>
<asrwt>0</asrwt>
<pdfrwt beam="1">  1        2 0.78938219E-03 0.91763022E+02</pdfrwt>
<pdfrwt beam="2">  1       -2 0.90589205E-01 0.91763022E+02</pdfrwt>
<totfact> 0.19010906E+04</totfact>
</mgrwt>
</event>
<event>
 6    1  0.1723639E-002  0.9722832E+02  0.7546771E-02  0.1348178E+00
          1   -1    0    0  501    0  0.00000000000E+00  0.00000000000E+00  0.42101364072E+02  0.42101364072E+02  0.00000000000E+00 0. -1.
         -1   -1    0    0    0  501 -0.00000000000E+00 -0.00000000000E+00 -0.10545421502E+03  0.10545421502E+03  0.00000000000E+00 0.  1.
         23    2    1    2    0    0 -0.16808916548E+02 -0.27195544253E+02 -0.62479770424E+02  0.11557277790E+03  0.91821609526E+02 0.  0.
         11    1    3    3    0    0 -0.79978154022E+01 -0.27456454078E+02 -0.85907068734E+02  0.90541959225E+02  0.00000000000E+00 0.  1.
        -11    1    3    3    0    0 -0.88111011455E+01  0.26090982542E+00  0.23427298310E+02  0.25030818673E+02  0.00000000000E+00 0. -1.
         22    1    1    2    0    0  0.16808916548E+02  0.27195544253E+02 -0.87308052437E+00  0.31982801195E+02  0.00000000000E+00 0. -1.
<mgrwt>
<rscale>  0 0.73626342E+02</rscale>
<asrwt>0</asrwt>
<pdfrwt beam="1">  1        1 0.64771330E-02 0.97228315E+02</pdfrwt>
<pdfrwt beam="2">  1       -1 0.16223725E-01 0.97228315E+02</pdfrwt>
<totfact> 0.29035286E+04</totfact>
</mgrwt>
</event>
<event>
 6    1  0.1723639E-002  0.9411970E+02  0.7546771E-02  0.1367264E+00
         -1   -1    0    0    0  501 -0.00000000000E+00  0.00000000000E+00  0.35561548574E+03  0.35561548574E+03  0.00000000000E+00 0.  1.
          1   -1    0    0  501    0  0.00000000000E+00 -0.00000000000E+00 -0.11085983337E+02  0.11085983337E+02  0.00000000000E+00 0. -1.
         23    2    1    2    0    0 -0.21308863267E+02 -0.14087387587E+02  0.30848098733E+03  0.32251982604E+03  0.90586955460E+02 0.  0.
         11    1    3    3    0    0 -0.75153321390E+01  0.28218231901E+02  0.23357884769E+03  0.23539716846E+03  0.00000000000E+00 0.  1.
        -11    1    3    3    0    0 -0.13793531128E+02 -0.42305619488E+02  0.74902139641E+02  0.87122657581E+02  0.00000000000E+00 0. -1.
         22    1    1    2    0    0  0.21308863267E+02  0.14087387587E+02  0.36048515068E+02  0.44181643036E+02  0.00000000000E+00 0. -1.
<mgrwt>
<rscale>  0 0.67933630E+02</rscale>
<asrwt>0</asrwt>
<pdfrwt beam="1">  1        1 0.17055362E-02 0.94119704E+02</pdfrwt>
<pdfrwt beam="2">  1       -1 0.54710066E-01 0.94119704E+02</pdfrwt>
<totfact> 0.23337800E+04</totfact>
</mgrwt>
</event>
<event>
 6    1  0.1723639E-002  0.9222241E+02  0.7546771E-02  0.1410465E+00
         -1   -1    0    0    0  501 -0.00000000000E+00  0.00000000000E+00  0.21896998709E+02  0.21896998709E+02  0.00000000000E+00 0.  1.
          1   -1    0    0  501    0  0.00000000000E+00 -0.00000000000E+00 -0.14135307750E+03  0.14135307750E+03  0.00000000000E+00 0. -1.
         23    2    1    2    0    0  0.12632768725E+02 -0.48833711196E+01 -0.81946361559E+02  0.12337009319E+03  0.91222472892E+02 0.  0.
         13    1    3    3    0    0  0.31372650441E+02  0.17973670676E+02 -0.86230548146E+02  0.93504029148E+02  0.00000000000E+00 0. -1.
        -13    1    3    3    0    0 -0.18739881716E+02 -0.22857041796E+02  0.42841865871E+01  0.29866064037E+02  0.00000000000E+00 0.  1.
         22    1    1    2    0    0 -0.12632768725E+02  0.48833711196E+01 -0.37509717230E+02  0.39879983022E+02  0.00000000000E+00 0. -1.
<mgrwt>
<rscale>  0 0.57090309E+02</rscale>
<asrwt>0</asrwt>
<pdfrwt beam="1">  1        1 0.21746627E-01 0.92222414E+02</pdfrwt>
<pdfrwt beam="2">  1       -1 0.33687690E-02 0.92222414E+02</pdfrwt>
<totfact> 0.62669364E+04</totfact>
</mgrwt>
</event>
<event>
 6    1  0.1723639E-002  0.1128739E+03  0.7546771E-02  0.1283552E+00
          4   -1    0    0  501    0  0.00000000000E+00  0.00000000000E+00  0.73037826502E+02  0.73037826502E+02  0.00000000000E+00 0.  1.
         -4   -1    0    0    0  501 -0.00000000000E+00 -0.00000000000E+00 -0.22954106336E+03  0.22954106336E+03  0.00000000000E+00 0. -1.
         23    2    1    2    0    0  0.14438714734E+02  0.63757132620E+02 -0.19601723621E+03  0.22619299727E+03  0.92016665240E+02 0.  0.
         13    1    3    3    0    0  0.39430751705E+02  0.16265719412E+02 -0.14853113654E+03  0.15453432088E+03  0.00000000000E+00 0. -1.
        -13    1    3    3    0    0 -0.24992036971E+02  0.47491413208E+02 -0.47486099660E+02  0.71658676386E+02  0.00000000000E+00 0.  1.
         22    1    1    2    0    0 -0.14438714734E+02 -0.63757132620E+02  0.39513999345E+02  0.76385892594E+02  0.00000000000E+00 0.  1.
<mgrwt>
<rscale>  0 0.98467391E+02</rscale>
<asrwt>0</asrwt>
<pdfrwt beam="1">  1        4 0.11236589E-01 0.11287389E+03</pdfrwt>
<pdfrwt beam="2">  1       -4 0.35314009E-01 0.11287389E+03</pdfrwt>
<totfact> 0.76853060E+02</totfact>
</mgrwt>
</event>
<event>
 6    1  0.1723639E-002  0.9146203E+02  0.7546771E-02  0.1425070E+00
          2   -1    0    0  501    0  0.00000000000E+00  0.00000000000E+00  0.47307051883E+02  0.47307051883E+02  0.00000000000E+00 0. -1.
         -2   -1    0    0    0  501 -0.00000000000E+00 -0.00000000000E+00 -0.56419189176E+02  0.56419189176E+02  0.00000000000E+00 0.  1.
         23    2    1    2    0    0  0.59578256505E+01  0.93451239617E+01 -0.12071475026E+02  0.92255203261E+02  0.90788077361E+02 0.  0.
         11    1    3    3    0    0 -0.25623322620E+02  0.35593732837E+02  0.10913659322E+02  0.45194871823E+02  0.00000000000E+00 0. -1.
        -11    1    3    3    0    0  0.31581148271E+02 -0.26248608875E+02 -0.22985134348E+02  0.47060331437E+02  0.00000000000E+00 0.  1.
         22    1    1    2    0    0 -0.59578256505E+01 -0.93451239617E+01  0.29593377335E+01  0.11471037798E+02  0.00000000000E+00 0.  1.
<mgrwt>
<rscale>  0 0.53962536E+02</rscale>
<asrwt>0</asrwt>
<pdfrwt beam="1">  1        2 0.72780080E-02 0.91462025E+02</pdfrwt>
<pdfrwt beam="2">  1       -2 0.86798752E-02 0.91462025E+02</pdfrwt>
<totfact> 0.68078195E+04</totfact>
</mgrwt>
</event>
<event>
 6    1  0.1723639E-002  0.1082993E+03  0.7546771E-02  0.1295833E+00
          2   -1    0    0  501    0  0.00000000000E+00  0.00000000000E+00  0.25990497031E+03  0.25990497031E+03  0.00000000000E+00 0. -1.
         -2   -1    0    0    0  501 -0.00000000000E+00 -0.00000000000E+00 -0.26968786057E+02  0.26968786057E+02  0.00000000000E+00 0.  1.
         23    2    1    2    0    0 -0.23398600663E+02  0.53939799299E+02  0.14200135527E+03  0.17858645525E+03  0.90949110158E+02 0.  0.
         11    1    3    3    0    0 -0.12525937039E+02  0.15592402740E+02 -0.93474263770E+01  0.22077058268E+02  0.00000000000E+00 0. -1.
        -11    1    3    3    0    0 -0.10872663624E+02  0.38347396559E+02  0.15134878165E+03  0.15650939698E+03  0.00000000000E+00 0.  1.
         22    1    1    2    0    0  0.23398600663E+02 -0.53939799299E+02  0.90934828984E+02  0.10828730112E+03  0.00000000000E+00 0. -1.
<mgrwt>
<rscale>  0 0.92962241E+02</rscale>
<asrwt>0</asrwt>
<pdfrwt beam="1">  1        2 0.39985378E-01 0.10829929E+03</pdfrwt>
<pdfrwt beam="2">  1       -2 0.41490442E-02 0.10829929E+03</pdfrwt>
<totfact> 0.30048687E+04</totfact>
</mgrwt>
</event>
<event>
 6    1  0.1723639E-002  0.1247761E+03  0.7546771E-02  0.1277717E+00
          2   -1    0    0  501    0  0.00000000000E+00  0.00000000000E+00  0.34077053018E+02  0.34077053018E+02  0.00000000000E+00 0. -1.
         -2   -1    0    0    0  501 -0.00000000000E+00 -0.00000000000E+00 -0.40004773479E+03  0.40004773479E+03  0.00000000000E+00 0.  1.
         23    2    1    2    0    0 -0.48779152468E+02  0.23326144491E+02 -0.92404459734E+02  0.15526641413E+03  0.11245248083E+03 0.  0.
         11    1    3    3    0    0  0.22585833778E+02 -0.28382856599E+01  0.12305489131E+02  0.25876646144E+02  0.00000000000E+00 0. -1.
        -11    1    3    3    0    0 -0.71364986246E+02  0.26164430151E+02 -0.10470994886E+03  0.12938976798E+03  0.00000000000E+00 0.  1.
         22    1    1    2    0    0  0.48779152468E+02 -0.23326144491E+02 -0.27356622204E+03  0.27885837368E+03  0.00000000000E+00 0.  1.
<mgrwt>
<rscale>  0 0.10123641E+03</rscale>
<asrwt>0</asrwt>
<pdfrwt beam="1">  1        2 0.52426234E-02 0.12477610E+03</pdfrwt>
<pdfrwt beam="2">  1       -2 0.61545807E-01 0.12477610E+03</pdfrwt>
<totfact> 0.35083239E+03</totfact>
</mgrwt>
</event>
<event>
 6    1  0.1723639E-002  0.9342497E+02  0.7546771E-02  0.1377738E+00
          2   -1    0    0  501    0  0.00000000000E+00  0.00000000000E+00  0.24691902679E+03  0.24691902679E+03  0.00000000000E+00 0. -1.
         -2   -1    0    0    0  501 -0.00000000000E+00 -0.00000000000E+00 -0.16576724352E+02  0.16576724352E+02  0.00000000000E+00 0.  1.
         23    2    1    2    0    0 -0.36378490434E+01 -0.21671396530E+02  0.12595849775E+03  0.15682400205E+03  0.90803860545E+02 0.  0.
         11    1    3    3    0    0  0.35967573874E+02 -0.34942012398E+02  0.54552715927E+02  0.74098646518E+02  0.00000000000E+00 0. -1.
        -11    1    3    3    0    0 -0.39605422918E+02  0.13270615867E+02  0.71405781820E+02  0.82725355529E+02  0.00000000000E+00 0.  1.
         22    1    1    2    0    0  0.36378490434E+01  0.21671396530E+02  0.10438380469E+03  0.10667174909E+03  0.00000000000E+00 0. -1.
<mgrwt>
<rscale>  0 0.65062013E+02</rscale>
<asrwt>0</asrwt>
<pdfrwt beam="1">  1        2 0.37987540E-01 0.93424967E+02</pdfrwt>
<pdfrwt beam="2">  1       -2 0.25502655E-02 0.93424967E+02</pdfrwt>
<totfact> 0.63456279E+04</totfact>
</mgrwt>
</event>
<event>
 6    1  0.1723639E-002  0.9207216E+02  0.7546771E-02  0.1409982E+00
         -2   -1    0    0    0  501 -0.00000000000E+00  0.00000000000E+00  0.16762094776E+02  0.16762094776E+02  0.00000000000E+00 0.  1.
          2   -1    0    0  501    0  0.00000000000E+00 -0.00000000000E+00 -0.21192556497E+03  0.21192556497E+03  0.00000000000E+00 0. -1.
         23    2    1    2    0    0  0.13699667490E+02 -0.60568314647E+00 -0.11479158663E+03  0.14715430823E+03  0.91045232323E+02 0.  0.
         11    1    3    3    0    0 -0.13454439776E+02 -0.13037936905E+02 -0.11576735361E+03  0.11727356868E+03  0.00000000000E+00 0. -1.
        -11    1    3    3    0    0  0.27154107266E+02  0.12432253759E+02  0.97576698399E+00  0.29880739551E+02  0.00000000000E+00 0.  1.
         22    1    1    2    0    0 -0.13699667490E+02  0.60568314647E+00 -0.80371883567E+02  0.81533351517E+02  0.00000000000E+00 0. -1.
<mgrwt>
<rscale>  0 0.57197856E+02</rscale>
<asrwt>0</asrwt>
<pdfrwt beam="1">  1        2 0.32603932E-01 0.92072157E+02</pdfrwt>
<pdfrwt beam="2">  1       -2 0.25787839E-02 0.92072157E+02</pdfrwt>
<totfact> 0.73249568E+04</totfact>
</mgrwt>
</event>
<event>
 6    1  0.1723639E-002  0.9351412E+02  0.7546771E-02  0.1372664E+00
          1   -1    0    0  501    0  0.00000000000E+00  0.00000000000E+00  0.62927012073E+02  0.62927012073E+02  0.00000000000E+00 0. -1.
         -1   -1    0    0    0  501 -0.00000000000E+00 -0.00000000000E+00 -0.80481320274E+02  0.80481320274E+02  0.00000000000E+00 0.  1.
         23    2    1    2    0    0  0.12883812518E+02 -0.20030885927E+02 -0.47710206678E+02  0.10498168497E+03  0.90430422651E+02 0.  0.
         13    1    3    3    0    0  0.32011520428E+02 -0.88438885270E+01 -0.67528473917E+02  0.75253216503E+02  0.00000000000E+00 0.  1.
        -13    1    3    3    0    0 -0.19127707910E+02 -0.11186997400E+02  0.19818267240E+02  0.29728468462E+02  0.00000000000E+00 0. -1.
         22    1    1    2    0    0 -0.12883812518E+02  0.20030885927E+02  0.30155898477E+02  0.38426647381E+02  0.00000000000E+00 0. -1.
<mgrwt>
<rscale>  0 0.66432056E+02</rscale>
<asrwt>0</asrwt>
<pdfrwt beam="1">  1        1 0.96810787E-02 0.93514118E+02</pdfrwt>
<pdfrwt beam="2">  1       -1 0.12381742E-01 0.93514118E+02</pdfrwt>
<totfact> 0.25743713E+04</totfact>
</mgrwt>
</event>
<event>
 6    1  0.1723639E-002  0.9676900E+02  0.7546771E-02  0.1369074E+00
         -1   -1    0    0    0  501 -0.00000000000E+00  0.00000000000E+00  0.11752674671E+03  0.11752674671E+03  0.00000000000E+00 0.  1.
          1   -1    0    0  501    0  0.00000000000E+00 -0.00000000000E+00 -0.43916271417E+02  0.43916271417E+02  0.00000000000E+00 0. -1.
         23    2    1    2    0    0 -0.20766549038E+02  0.94312810690E+01  0.90943228803E+02  0.13279650062E+03  0.94042762028E+02 0.  0.
         13    1    3    3    0    0  0.11811746518E+02 -0.36378284295E+02  0.23065311143E+02  0.44664365015E+02  0.00000000000E+00 0. -1.
        -13    1    3    3    0    0 -0.32578295556E+02  0.45809565364E+02  0.67877917660E+02  0.88132135604E+02  0.00000000000E+00 0.  1.
         22    1    1    2    0    0  0.20766549038E+02 -0.94312810690E+01 -0.17332753505E+02  0.28646517513E+02  0.00000000000E+00 0. -1.
<mgrwt>
<rscale>  0 0.67425371E+02</rscale>
<asrwt>0</asrwt>
<pdfrwt beam="1">  1        1 0.67563495E-02 0.96769002E+02</pdfrwt>
<pdfrwt beam="2">  1       -1 0.18081038E-01 0.96769002E+02</pdfrwt>
<totfact> 0.23134256E+04</totfact>
</mgrwt>
</event>
<event>
 6    1  0.1723639E-002  0.9235262E+02  0.7546771E-02  0.1422913E+00
         -2   -1    0    0    0  501 -0.00000000000E+00  0.00000000000E+00  0.36108828359E+03  0.36108828359E+03  0.00000000000E+00 0.  1.
          2   -1    0    0  501    0  0.00000000000E+00 -0.00000000000E+00 -0.74544673297E+01  0.74544673297E+01  0.00000000000E+00 0. -1.
         23    2    1    2    0    0 -0.68452681861E+01 -0.87712041391E+01  0.30635986441E+03  0.31997714332E+03  0.91679954207E+02 0.  0.
         13    1    3    3    0    0  0.19178220161E+02 -0.32478643350E+01  0.90050121724E+01  0.21434621422E+02  0.00000000000E+00 0. -1.
        -13    1    3    3    0    0 -0.26023488347E+02 -0.55233398042E+01  0.29735485224E+03  0.29854252189E+03  0.00000000000E+00 0.  1.
         22    1    1    2    0    0  0.68452681861E+01  0.87712041391E+01  0.47273951849E+02  0.48565607604E+02  0.00000000000E+00 0. -1.
<mgrwt>
<rscale>  0 0.54409327E+02</rscale>
<asrwt>0</asrwt>
<pdfrwt beam="1">  1        2 0.11468414E-02 0.92352616E+02</pdfrwt>
<pdfrwt beam="2">  1       -2 0.55552030E-01 0.92352616E+02</pdfrwt>
<totfact> 0.32102083E+04</totfact>
</mgrwt>
</event>
<event>
 6    1  0.1723639E-002  0.1038164E+03  0.7546771E-02  0.1309922E+00
         -2   -1    0    0    0  501 -0.00000000000E+00  0.00000000000E+00  0.45940047224E+02  0.45940047224E+02  0.00000000000E+00 0. -1.
          2   -1    0    0  501    0  0.00000000000E+00 -0.00000000000E+00 -0.13530331066E+03  0.13530331066E+03  0.00000000000E+00 0.  1.
         23    2    1    2    0    0 -0.34434948627E+02 -0.38346436610E+02 -0.44645064834E+02  0.11300896646E+03  0.90120085428E+02 0.  0.
         11    1    3    3    0    0 -0.16067564182E+02 -0.44751879139E+01  0.26955975655E+02  0.31698872994E+02  0.00000000000E+00 0. -1.
        -11    1    3    3    0    0 -0.18367384445E+02 -0.33871248696E+02 -0.71601040489E+02  0.81310093461E+02  0.00000000000E+00 0.  1.
         22    1    1    2    0    0  0.34434948627E+02  0.38346436610E+02 -0.44718198607E+02  0.68234391433E+02  0.00000000000E+00 0. -1.
<mgrwt>
<rscale>  0 0.87142973E+02</rscale>
<asrwt>0</asrwt>
<pdfrwt beam="1">  1        2 0.20815894E-01 0.10381640E+03</pdfrwt>
<pdfrwt beam="2">  1       -2 0.70676995E-02 0.10381640E+03</pdfrwt>
<totfact> 0.27262215E+04</totfact>
</mgrwt>
</event>
<event>
 6    1  0.1723639E-002  0.1009616E+03  0.7546771E-02  0.1323629E+00
         -2   -1    0    0    0  501 -0.00000000000E+00  0.00000000000E+00  0.17688804765E+03  0.17688804765E+03  0.00000000000E+00 0.  1.
          2   -1    0    0  501    0  0.00000000000E+00 -0.00000000000E+00 -0.52384556369E+02  0.52384556369E+02  0.00000000000E+00 0. -1.
         23    2    1    2    0    0 -0.24234311895E+02 -0.36495131091E+02  0.14831007713E+03  0.17941330202E+03  0.90961846380E+02 0.  0.
         13    1    3    3    0    0 -0.38454314370E+02 -0.59752421717E+02  0.87101935645E+02  0.11240922288E+03  0.00000000000E+00 0. -1.
        -13    1    3    3    0    0  0.14220002475E+02  0.23257290626E+02  0.61208141486E+02  0.67004079143E+02  0.00000000000E+00 0.  1.
         22    1    1    2    0    0  0.24234311895E+02  0.36495131091E+02 -0.23806585848E+02  0.49859302002E+02  0.00000000000E+00 0. -1.
<mgrwt>
<rscale>  0 0.81942130E+02</rscale>
<asrwt>0</asrwt>
<pdfrwt beam="1">  1        2 0.80591626E-02 0.10096165E+03</pdfrwt>
<pdfrwt beam="2">  1       -2 0.27213545E-01 0.10096165E+03</pdfrwt>
<totfact> 0.93961360E+03</totfact>
</mgrwt>
</event>
<event>
 6    1  0.1723639E-002  0.1054518E+03  0.7546771E-02  0.1297882E+00
          2   -1    0    0  501    0  0.00000000000E+00  0.00000000000E+00  0.39159491787E+03  0.39159491787E+03  0.00000000000E+00 0. -1.
         -2   -1    0    0    0  501 -0.00000000000E+00 -0.00000000000E+00 -0.17861295333E+02  0.17861295333E+02  0.00000000000E+00 0.  1.
         23    2    1    2    0    0 -0.57428054144E+02 -0.21488242318E+02  0.25123220768E+03  0.27246598507E+03  0.85792568945E+02 0.  0.
         13    1    3    3    0    0  0.20953783969E+02 -0.85631215676E+01  0.88923606558E+02  0.91759445927E+02  0.00000000000E+00 0. -1.
        -13    1    3    3    0    0 -0.78381838113E+02 -0.12925120750E+02  0.16230860112E+03  0.18070653914E+03  0.00000000000E+00 0.  1.
         22    1    1    2    0    0  0.57428054144E+02  0.21488242318E+02  0.12250141486E+03  0.13699022813E+03  0.00000000000E+00 0. -1.
<mgrwt>
<rscale>  0 0.92084206E+02</rscale>
<asrwt>0</asrwt>
<pdfrwt beam="1">  1        2 0.60245365E-01 0.10545184E+03</pdfrwt>
<pdfrwt beam="2">  1       -2 0.27478919E-02 0.10545184E+03</pdfrwt>
<totfact> 0.35615139E+04</totfact>
</mgrwt>
</event>
<event>
 6    1  0.1723639E-002  0.9102778E+02  0.7546771E-02  0.1401193E+00
         -2   -1    0    0    0  501 -0.00000000000E+00  0.00000000000E+00  0.13511990694E+03  0.13511990694E+03  0.00000000000E+00 0. -1.
          2   -1    0    0  501    0  0.00000000000E+00 -0.00000000000E+00 -0.23486794836E+02  0.23486794836E+02  0.00000000000E+00 0.  1.
         23    2    1    2    0    0 -0.15064229437E+02  0.62022140847E+01  0.10915253358E+03  0.14212787482E+03  0.89558130538E+02 0.  0.
         11    1    3    3    0    0 -0.19006769552E+02  0.10148598191E+02 -0.93545674511E+01  0.23489556536E+02  0.00000000000E+00 0.  1.
        -11    1    3    3    0    0  0.39425401148E+01 -0.39463841065E+01  0.11850710103E+03  0.11863831829E+03  0.00000000000E+00 0. -1.
         22    1    1    2    0    0  0.15064229437E+02 -0.62022140847E+01  0.24805785248E+01  0.16478826958E+02  0.00000000000E+00 0.  1.
<mgrwt>
<rscale>  0 0.59206280E+02</rscale>
<asrwt>0</asrwt>
<pdfrwt beam="1">  1        2 0.36133531E-02 0.91027783E+02</pdfrwt>
<pdfrwt beam="2">  1       -2 0.20787678E-01 0.91027783E+02</pdfrwt>
<totfact> 0.41287903E+04</totfact>
</mgrwt>
</event>
<event>
 6    1  0.1723639E-002  0.9167500E+02  0.7546771E-02  0.1412164E+00
          2   -1    0    0  501    0  0.00000000000E+00  0.00000000000E+00  0.64568534996E+03  0.64568534996E+03  0.00000000000E+00 0. -1.
         -2   -1    0    0    0  501 -0.00000000000E+00 -0.00000000000E+00 -0.43210038158E+01  0.43210038158E+01  0.00000000000E+00 0.  1.
         23    2    1    2    0    0  0.90823366171E+01  0.98899466094E+01  0.57901648541E+03  0.58622896263E+03  0.90686307541E+02 0.  0.
         11    1    3    3    0    0 -0.24520623727E+02 -0.28664439083E+02  0.17717619229E+03  0.18114721684E+03  0.00000000000E+00 0.  1.
        -11    1    3    3    0    0  0.33602960344E+02  0.38554385693E+02  0.40184029312E+03  0.40508174579E+03  0.00000000000E+00 0. -1.
         22    1    1    2    0    0 -0.90823366171E+01 -0.98899466094E+01  0.62347860740E+02  0.63777391145E+02  0.00000000000E+00 0.  1.
<mgrwt>
<rscale>  0 0.56713654E+02</rscale>
<asrwt>0</asrwt>
<pdfrwt beam="1">  1        2 0.99336131E-01 0.91675003E+02</pdfrwt>
<pdfrwt beam="2">  1       -2 0.66477033E-03 0.91675003E+02</pdfrwt>
<totfact> 0.15386428E+05</totfact>
</mgrwt>
</event>
<event>
 6    1  0.1723639E-002  0.9591306E+02  0.7546771E-02  0.1367955E+00
         -1   -1    0    0    0  501 -0.00000000000E+00  0.00000000000E+00  0.13776338278E+02  0.13776338278E+02  0.00000000000E+00 0.  1.
          1   -1    0    0  501    0  0.00000000000E+00 -0.00000000000E+00 -0.35354757072E+03  0.35354757072E+03  0.00000000000E+00 0. -1.
         23    2    1    2    0    0 -0.19788103273E+02 -0.13336600067E+02 -0.32590374729E+03  0.33972425181E+03  0.92897151941E+02 0.  0.
         13    1    3    3    0    0 -0.23944878000E+02 -0.24846701705E+02 -0.37120500523E+02  0.50681824426E+02  0.00000000000E+00 0.  1.
        -13    1    3    3    0    0  0.41567747268E+01  0.11510101638E+02 -0.28878324676E+03  0.28904242738E+03  0.00000000000E+00 0. -1.
         22    1    1    2    0    0  0.19788103273E+02  0.13336600067E+02 -0.13867485158E+02  0.27599657192E+02  0.00000000000E+00 0. -1.
<mgrwt>
<rscale>  0 0.67738991E+02</rscale>
<asrwt>0</asrwt>
<pdfrwt beam="1">  1        1 0.54391932E-01 0.95913058E+02</pdfrwt>
<pdfrwt beam="2">  1       -1 0.21194367E-02 0.95913058E+02</pdfrwt>
<totfact> 0.39724245E+04</totfact>
</mgrwt>
</event>
<event>
 6    1  0.1723639E-002  0.9480120E+02  0.7546771E-02  0.1401275E+00
          2   -1    0    0  501    0  0.00000000000E+00  0.00000000000E+00  0.24430555787E+02  0.24430555787E+02  0.00000000000E+00 0. -1.
         -2   -1    0    0    0  501 -0.00000000000E+00 -0.00000000000E+00 -0.14864024898E+03  0.14864024898E+03  0.00000000000E+00 0.  1.
         23    2    1    2    0    0 -0.13962418033E+02 -0.35373689270E+01 -0.12691741605E+03  0.15841495749E+03  0.93700619861E+02 0.  0.
         13    1    3    3    0    0 -0.53502828484E+02 -0.67925997330E+01 -0.85275398862E+02  0.10089888859E+03  0.00000000000E+00 0.  1.
        -13    1    3    3    0    0  0.39540410451E+02  0.32552308060E+01 -0.41642017190E+02  0.57516068901E+02  0.00000000000E+00 0. -1.
         22    1    1    2    0    0  0.13962418033E+02  0.35373689270E+01  0.27077228627E+01  0.14655847276E+02  0.00000000000E+00 0. -1.
<mgrwt>
<rscale>  0 0.59187192E+02</rscale>
<asrwt>0</asrwt>
<pdfrwt beam="1">  1        2 0.37585472E-02 0.94801204E+02</pdfrwt>
<pdfrwt beam="2">  1       -2 0.22867730E-01 0.94801204E+02</pdfrwt>
<totfact> 0.33530893E+04</totfact>
</mgrwt>
</event>
<event>
 6    1  0.1723639E-002  0.9899394E+02  0.7546771E-02  0.1346540E+00
          1   -1    0    0  501    0  0.00000000000E+00  0.00000000000E+00  0.42475392023E+02  0.42475392023E+02  0.00000000000E+00 0. -1.
         -1   -1    0    0    0  501 -0.00000000000E+00 -0.00000000000E+00 -0.12770460331E+03  0.12770460331E+03  0.00000000000E+00 0.  1.
         23    2    1    2    0    0  0.14762855940E+02  0.27432754165E+02 -0.95328390221E+02  0.13743108189E+03  0.93964367562E+02 0.  0.
         11    1    3    3    0    0 -0.15884691028E+02  0.27013525757E+02  0.57032462630E+01  0.31852488142E+02  0.00000000000E+00 0. -1.
        -11    1    3    3    0    0  0.30647546968E+02  0.41922840752E+00 -0.10103163648E+03  0.10557859375E+03  0.00000000000E+00 0.  1.
         22    1    1    2    0    0 -0.14762855940E+02 -0.27432754165E+02  0.10099178932E+02  0.32748913443E+02  0.00000000000E+00 0. -1.
<mgrwt>
<rscale>  0 0.74144815E+02</rscale>
<asrwt>0</asrwt>
<pdfrwt beam="1">  1        1 0.65346757E-02 0.98993941E+02</pdfrwt>
<pdfrwt beam="2">  1       -1 0.19646862E-01 0.98993941E+02</pdfrwt>
<totfact> 0.21267237E+04</totfact>
</mgrwt>
</event>
<event>
 6    1  0.1723639E-002  0.9337307E+02  0.7546771E-02  0.1381738E+00
          3   -1    0    0  501    0  0.00000000000E+00  0.00000000000E+00  0.11716062484E+03  0.11716062484E+03  0.00000000000E+00 0. -1.
         -3   -1    0    0    0  501 -0.00000000000E+00 -0.00000000000E+00 -0.28013662779E+02  0.28013662779E+02  0.00000000000E+00 0.  1.
         23    2    1    2    0    0 -0.91648244242E+01 -0.18472242528E+02  0.78391863588E+02  0.12191724796E+03  0.91067630485E+02 0.  0.
         11    1    3    3    0    0 -0.23516048088E+02  0.19687736692E+02 -0.30702597301E+01  0.30822686264E+02  0.00000000000E+00 0.  1.
        -11    1    3    3    0    0  0.14351223664E+02 -0.38159979220E+02  0.81462123318E+02  0.91094561694E+02  0.00000000000E+00 0. -1.
         22    1    1    2    0    0  0.91648244242E+01  0.18472242528E+02  0.10755098477E+02  0.23257039665E+02  0.00000000000E+00 0.  1.
<mgrwt>
<rscale>  0 0.64009240E+02</rscale>
<asrwt>0</asrwt>
<pdfrwt beam="1">  1        3 0.18024711E-01 0.93373075E+02</pdfrwt>
<pdfrwt beam="2">  1       -3 0.43097943E-02 0.93373075E+02</pdfrwt>
<totfact> 0.16051609E+04</totfact>
</mgrwt>
</event>
<event>
 6    1  0.1723639E-002  0.9157262E+02  0.7546771E-02  0.1380268E+00
         -2   -1    0    0    0  501 -0.00000000000E+00  0.00000000000E+00  0.39402123822E+01  0.39402123822E+01  0.00000000000E+00 0. -1.
          2   -1    0    0  501    0  0.00000000000E+00 -0.00000000000E+00 -0.87568078136E+03  0.87568078136E+03  0.00000000000E+00 0.  1.
         23    2    1    2    0    0 -0.70193205656E+01 -0.21262083264E+02 -0.77118116103E+03  0.77659894963E+03  0.88793008710E+02 0.  0.
         11    1    3    3    0    0 -0.85276666349E+01 -0.15644059714E+02 -0.26723599912E+02  0.32118662719E+02  0.00000000000E+00 0. -1.
        -11    1    3    3    0    0  0.15083460692E+01 -0.56180235493E+01 -0.74445756111E+03  0.74448028691E+03  0.00000000000E+00 0.  1.
         22    1    1    2    0    0  0.70193205656E+01  0.21262083264E+02 -0.10055940795E+03  0.10302204412E+03  0.00000000000E+00 0.  1.
<mgrwt>
<rscale>  0 0.64393429E+02</rscale>
<asrwt>0</asrwt>
<pdfrwt beam="1">  1        2 0.13472009E+00 0.91572624E+02</pdfrwt>
<pdfrwt beam="2">  1       -2 0.60618665E-03 0.91572624E+02</pdfrwt>
<totfact> 0.12158745E+05</totfact>
</mgrwt>
</event>
<event>
 6    1  0.1723639E-002  0.8976091E+02  0.7546771E-02  0.1427015E+00
          1   -1    0    0  501    0  0.00000000000E+00  0.00000000000E+00  0.14854916248E+03  0.14854916248E+03  0.00000000000E+00 0. -1.
         -1   -1    0    0    0  501 -0.00000000000E+00 -0.00000000000E+00 -0.19070808169E+02  0.19070808169E+02  0.00000000000E+00 0.  1.
         23    2    1    2    0    0  0.46481399749E+01  0.10389817376E+02  0.92344786230E+02  0.12878113199E+03  0.89036323494E+02 0.  0.
         11    1    3    3    0    0 -0.96408914284E+01 -0.27362417720E+02  0.11293767987E+01  0.29033156614E+02  0.00000000000E+00 0.  1.
        -11    1    3    3    0    0  0.14289031403E+02  0.37752235095E+02  0.91215409431E+02  0.99747975372E+02  0.00000000000E+00 0. -1.
         22    1    1    2    0    0 -0.46481399749E+01 -0.10389817376E+02  0.37133568079E+02  0.38838838662E+02  0.00000000000E+00 0. -1.
<mgrwt>
<rscale>  0 0.53563824E+02</rscale>
<asrwt>0</asrwt>
<pdfrwt beam="1">  1        1 0.22853717E-01 0.89760907E+02</pdfrwt>
<pdfrwt beam="2">  1       -1 0.29339706E-02 0.89760907E+02</pdfrwt>
<totfact> 0.71614426E+04</totfact>
</mgrwt>
</event>
<event>
 6    1  0.1723639E-002  0.9266368E+02  0.7546771E-02  0.1418904E+00
         -1   -1    0    0    0  501 -0.00000000000E+00  0.00000000000E+00  0.68556750889E+01  0.68556750889E+01  0.00000000000E+00 0.  1.
          1   -1    0    0  501    0  0.00000000000E+00 -0.00000000000E+00 -0.39732326327E+03  0.39732326327E+03  0.00000000000E+00 0. -1.
         23    2    1    2    0    0 -0.11642244961E+02  0.12954335985E+01 -0.34543697645E+03  0.35764963567E+03  0.91920276215E+02 0.  0.
         13    1    3    3    0    0  0.22015275312E+02  0.15825080288E+02 -0.28951988153E+03  0.29078663537E+03  0.00000000000E+00 0. -1.
        -13    1    3    3    0    0 -0.33657520272E+02 -0.14529646690E+02 -0.55917094928E+02  0.66863000299E+02  0.00000000000E+00 0.  1.
         22    1    1    2    0    0  0.11642244961E+02 -0.12954335985E+01 -0.45030611731E+02  0.46529302690E+02  0.00000000000E+00 0. -1.
<mgrwt>
<rscale>  0 0.55253441E+02</rscale>
<asrwt>0</asrwt>
<pdfrwt beam="1">  1        1 0.61126658E-01 0.92663678E+02</pdfrwt>
<pdfrwt beam="2">  1       -1 0.10547192E-02 0.92663678E+02</pdfrwt>
<totfact> 0.92252472E+04</totfact>
</mgrwt>
</event>
<event>
 6    1  0.1723639E-002  0.9422636E+02  0.7546771E-02  0.1408908E+00
         -2   -1    0    0    0  501 -0.00000000000E+00  0.00000000000E+00  0.40384391446E+01  0.40384391446E+01  0.00000000000E+00 0.  1.
          2   -1    0    0  501    0  0.00000000000E+00 -0.00000000000E+00 -0.72439504354E+03  0.72439504354E+03  0.00000000000E+00 0. -1.
         23    2    1    2    0    0 -0.53209918988E+01  0.11872513749E+02 -0.65985980097E+03  0.66655349592E+03  0.93323825722E+02 0.  0.
         13    1    3    3    0    0 -0.30691578612E+01  0.44867350604E+02 -0.54969791117E+03  0.55153448888E+03  0.00000000000E+00 0. -1.
        -13    1    3    3    0    0 -0.22518340376E+01 -0.32994836855E+02 -0.11016188980E+03  0.11501900704E+03  0.00000000000E+00 0.  1.
         22    1    1    2    0    0  0.53209918988E+01 -0.11872513749E+02 -0.60496803426E+02  0.61879986767E+02  0.00000000000E+00 0.  1.
<mgrwt>
<rscale>  0 0.57438309E+02</rscale>
<asrwt>0</asrwt>
<pdfrwt beam="1">  1        2 0.11144540E+00 0.94226355E+02</pdfrwt>
<pdfrwt beam="2">  1       -2 0.62129828E-03 0.94226355E+02</pdfrwt>
<totfact> 0.14868753E+05</totfact>
</mgrwt>
</event>
<event>
 6    1  0.1723639E-002  0.9518022E+02  0.7546771E-02  0.1361105E+00
         -2   -1    0    0    0  501 -0.00000000000E+00  0.00000000000E+00  0.30543803559E+03  0.30543803559E+03  0.00000000000E+00 0.  1.
          2   -1    0    0  501    0  0.00000000000E+00 -0.00000000000E+00 -0.12666558599E+02  0.12666558599E+02  0.00000000000E+00 0. -1.
         23    2    1    2    0    0 -0.27374675405E+02 -0.29316633457E+00  0.20211730922E+03  0.22340698633E+03  0.91158192471E+02 0.  0.
         11    1    3    3    0    0 -0.23463793056E+02 -0.44481565875E+02  0.11905014953E+03  0.12923659463E+03  0.00000000000E+00 0. -1.
        -11    1    3    3    0    0 -0.39108823490E+01  0.44188399541E+02  0.83067159693E+02  0.94170391707E+02  0.00000000000E+00 0.  1.
         22    1    1    2    0    0  0.27374675405E+02  0.29316633457E+00  0.90654167767E+02  0.94697607856E+02  0.00000000000E+00 0. -1.
<mgrwt>
<rscale>  0 0.69703327E+02</rscale>
<asrwt>0</asrwt>
<pdfrwt beam="1">  1        2 0.19487016E-02 0.95180223E+02</pdfrwt>
<pdfrwt beam="2">  1       -2 0.46990461E-01 0.95180223E+02</pdfrwt>
<totfact> 0.21808368E+04</totfact>
</mgrwt>
</event>
<event>
 6    1  0.1723639E-002  0.9419708E+02  0.7546771E-02  0.1365225E+00
          1   -1    0    0  501    0  0.00000000000E+00  0.00000000000E+00  0.73598495887E+02  0.73598495887E+02  0.00000000000E+00 0. -1.
         -1   -1    0    0    0  501 -0.00000000000E+00 -0.00000000000E+00 -0.53608651274E+02  0.53608651274E+02  0.00000000000E+00 0.  1.
         23    2    1    2    0    0  0.23949481392E+01 -0.26252788522E+02  0.12242519386E+00  0.94197163275E+02  0.90433101790E+02 0.  0.
         11    1    3    3    0    0 -0.23117213275E+02 -0.17131486769E+02 -0.37853073138E+02  0.47547329415E+02  0.00000000000E+00 0. -1.
        -11    1    3    3    0    0  0.25512161414E+02 -0.91213017524E+01  0.37975498331E+02  0.46649833860E+02  0.00000000000E+00 0.  1.
         22    1    1    2    0    0 -0.23949481392E+01  0.26252788522E+02  0.19867419419E+02  0.33009983885E+02  0.00000000000E+00 0. -1.
<mgrwt>
<rscale>  0 0.68512825E+02</rscale>
<asrwt>0</asrwt>
<pdfrwt beam="1">  1        1 0.11322846E-01 0.94197084E+02</pdfrwt>
<pdfrwt beam="2">  1       -1 0.82474848E-02 0.94197084E+02</pdfrwt>
<totfact> 0.38814121E+04</totfact>
</mgrwt>
</event>
<event>
 6    1  0.1723639E-002  0.9251925E+02  0.7546771E-02  0.1421890E+00
          2   -1    0    0  501    0  0.00000000000E+00  0.00000000000E+00  0.39962035232E+02  0.39962035232E+02  0.00000000000E+00 0. -1.
         -2   -1    0    0    0  501 -0.00000000000E+00 -0.00000000000E+00 -0.68906989561E+02  0.68906989561E+02  0.00000000000E+00 0.  1.
         23    2    1    2    0    0  0.11142795963E+02  0.14835363020E+01 -0.30725459849E+02  0.97487769075E+02  0.91833808886E+02 0.  0.
         11    1    3    3    0    0 -0.24903399752E+01 -0.35406147874E+02  0.13798638655E+02  0.38081485386E+02  0.00000000000E+00 0. -1.
        -11    1    3    3    0    0  0.13633135938E+02  0.36889684176E+02 -0.44524098504E+02  0.59406283689E+02  0.00000000000E+00 0.  1.
         22    1    1    2    0    0 -0.11142795963E+02 -0.14835363020E+01  0.17805055201E+01  0.11381255719E+02  0.00000000000E+00 0.  1.
<mgrwt>
<rscale>  0 0.54623116E+02</rscale>
<asrwt>0</asrwt>
<pdfrwt beam="1">  1        2 0.61480054E-02 0.92519248E+02</pdfrwt>
<pdfrwt beam="2">  1       -2 0.10601075E-01 0.92519248E+02</pdfrwt>
<totfact> 0.61871678E+04</totfact>
</mgrwt>
</event>
<event>
 6    1  0.1723639E-002  0.9252827E+02  0.7546771E-02  0.1406918E+00
          2   -1    0    0  501    0  0.00000000000E+00  0.00000000000E+00  0.43665724572E+01  0.43665724572E+01  0.00000000000E+00 0. -1.
         -2   -1    0    0    0  501 -0.00000000000E+00 -0.00000000000E+00 -0.81443884960E+03  0.81443884960E+03  0.00000000000E+00 0.  1.
         23    2    1    2    0    0  0.36372355747E+00 -0.14169918164E+02 -0.78099681774E+03  0.78645884241E+03  0.91436112143E+02 0.  0.
         11    1    3    3    0    0 -0.26790340952E+01 -0.24180796843E+02 -0.52244106586E+02  0.57631023178E+02  0.00000000000E+00 0. -1.
        -11    1    3    3    0    0  0.30427576526E+01  0.10010878679E+02 -0.72875271116E+03  0.72882781923E+03  0.00000000000E+00 0.  1.
         22    1    1    2    0    0 -0.36372355747E+00  0.14169918164E+02 -0.29075459400E+02  0.32346579648E+02  0.00000000000E+00 0. -1.
<mgrwt>
<rscale>  0 0.57887319E+02</rscale>
<asrwt>0</asrwt>
<pdfrwt beam="1">  1        2 0.67177981E-03 0.92528274E+02</pdfrwt>
<pdfrwt beam="2">  1       -2 0.12529839E+00 0.92528274E+02</pdfrwt>
<totfact> 0.11195096E+04</totfact>
</mgrwt>
</event>
<event>
 6    1  0.1723639E-002  0.8817048E+02  0.7546771E-02  0.1383583E+00
         -3   -1    0    0    0  501 -0.00000000000E+00  0.00000000000E+00  0.67541150421E+02  0.67541150421E+02  0.00000000000E+00 0.  1.
          3   -1    0    0  501    0  0.00000000000E+00 -0.00000000000E+00 -0.70857304085E+02  0.70857304085E+02  0.00000000000E+00 0. -1.
         23    2    1    2    0    0  0.23435132191E+02 -0.39607408123E+01  0.33714581041E+02  0.94396543167E+02  0.84906663452E+02 0.  0.
         11    1    3    3    0    0 -0.72356124176E+01  0.17300025686E+02 -0.21008070745E+02  0.28159971808E+02  0.00000000000E+00 0. -1.
        -11    1    3    3    0    0  0.30670744609E+02 -0.21260766498E+02  0.54722651786E+02  0.66236571359E+02  0.00000000000E+00 0.  1.
         22    1    1    2    0    0 -0.23435132191E+02  0.39607408123E+01 -0.37030734705E+02  0.44001911338E+02  0.00000000000E+00 0. -1.
<mgrwt>
<rscale>  0 0.63531365E+02</rscale>
<asrwt>0</asrwt>
<pdfrwt beam="1">  1        3 0.10901124E-01 0.88170485E+02</pdfrwt>
<pdfrwt beam="2">  1       -3 0.10390946E-01 0.88170485E+02</pdfrwt>
<totfact> 0.90715943E+03</totfact>
</mgrwt>
</event>
<event>
 6    1  0.1723639E-002  0.9191433E+02  0.7546771E-02  0.1404493E+00
          2   -1    0    0  501    0  0.00000000000E+00  0.00000000000E+00  0.15138182192E+03  0.15138182192E+03  0.00000000000E+00 0. -1.
         -2   -1    0    0    0  501 -0.00000000000E+00 -0.00000000000E+00 -0.18977452818E+02  0.18977452818E+02  0.00000000000E+00 0.  1.
         23    2    1    2    0    0  0.92606533627E+01  0.11827753446E+02  0.10942883527E+03  0.14290876277E+03  0.90678492691E+02 0.  0.
         13    1    3    3    0    0 -0.98359024147E+01 -0.25054346242E+02  0.11530191026E+01  0.26940577109E+02  0.00000000000E+00 0. -1.
        -13    1    3    3    0    0  0.19096555777E+02  0.36882099687E+02  0.10827581616E+03  0.11596818566E+03  0.00000000000E+00 0.  1.
         22    1    1    2    0    0 -0.92606533627E+01 -0.11827753446E+02  0.22975533838E+02  0.27450511970E+02  0.00000000000E+00 0. -1.
<mgrwt>
<rscale>  0 0.58441070E+02</rscale>
<asrwt>0</asrwt>
<pdfrwt beam="1">  1        2 0.23289510E-01 0.91914332E+02</pdfrwt>
<pdfrwt beam="2">  1       -2 0.29196082E-02 0.91914332E+02</pdfrwt>
<totfact> 0.87940489E+04</totfact>
</mgrwt>
</event>
<event>
 6    1  0.1723639E-002  0.8780287E+02  0.7546771E-02  0.1423097E+00
          2   -1    0    0  501    0  0.00000000000E+00  0.00000000000E+00  0.26951532892E+03  0.26951532892E+03  0.00000000000E+00 0. -1.
         -2   -1    0    0    0  501 -0.00000000000E+00 -0.00000000000E+00 -0.10052368369E+02  0.10052368369E+02  0.00000000000E+00 0.  1.
         23    2    1    2    0    0  0.68087459201E+01  0.10969096109E+02  0.19545749773E+03  0.21427313885E+03  0.86848514806E+02 0.  0.
         11    1    3    3    0    0  0.84738887481E+01  0.44808494199E+02  0.15465384931E+03  0.16123715778E+03  0.00000000000E+00 0.  1.
        -11    1    3    3    0    0 -0.16651428280E+01 -0.33839398090E+02  0.40803648418E+02  0.53035981069E+02  0.00000000000E+00 0. -1.
         22    1    1    2    0    0 -0.68087459201E+01 -0.10969096109E+02  0.64005462821E+02  0.65294558436E+02  0.00000000000E+00 0. -1.
<mgrwt>
<rscale>  0 0.54370962E+02</rscale>
<asrwt>0</asrwt>
<pdfrwt beam="1">  1        2 0.41463891E-01 0.87802874E+02</pdfrwt>
<pdfrwt beam="2">  1       -2 0.15465184E-02 0.87802874E+02</pdfrwt>
<totfact> 0.11764896E+05</totfact>
</mgrwt>
</event>
<event>
 6    1  0.1723639E-002  0.9196652E+02  0.7546771E-02  0.1425506E+00
          1   -1    0    0  501    0  0.00000000000E+00  0.00000000000E+00  0.40688569171E+02  0.40688569171E+02  0.00000000000E+00 0. -1.
         -1   -1    0    0    0  501 -0.00000000000E+00 -0.00000000000E+00 -0.88561979960E+02  0.88561979960E+02  0.00000000000E+00 0.  1.
         23    2    1    2    0    0 -0.88255557849E+01  0.62749713394E+01 -0.62395664919E+02  0.11113531893E+03  0.91326745331E+02 0.  0.
         11    1    3    3    0    0  0.35904986225E+01 -0.16656924189E+02 -0.78605036654E+02  0.80430694335E+02  0.00000000000E+00 0.  1.
        -11    1    3    3    0    0 -0.12416054407E+02  0.22931895528E+02  0.16209371734E+02  0.30704624596E+02  0.00000000000E+00 0. -1.
         22    1    1    2    0    0  0.88255557849E+01 -0.62749713394E+01  0.14522254130E+02  0.18115230201E+02  0.00000000000E+00 0. -1.
<mgrwt>
<rscale>  0 0.53872692E+02</rscale>
<asrwt>0</asrwt>
<pdfrwt beam="1">  1        1 0.62597799E-02 0.91966516E+02</pdfrwt>
<pdfrwt beam="2">  1       -1 0.13624920E-01 0.91966516E+02</pdfrwt>
<totfact> 0.39561329E+04</totfact>
</mgrwt>
</event>
<event>
 6    1  0.1723639E-002  0.9233185E+02  0.7546771E-02  0.1394864E+00
         -2   -1    0    0    0  501 -0.00000000000E+00  0.00000000000E+00  0.66234409395E+02  0.66234409395E+02  0.00000000000E+00 0.  1.
          2   -1    0    0  501    0  0.00000000000E+00 -0.00000000000E+00 -0.72455570467E+02  0.72455570467E+02  0.00000000000E+00 0. -1.
         23    2    1    2    0    0  0.88502049450E+01 -0.14819724177E+02  0.31215313610E+02  0.97465715298E+02  0.90704021424E+02 0.  0.
         13    1    3    3    0    0 -0.19950158678E+02 -0.18129171700E+02  0.54157825393E+02  0.60495832493E+02  0.00000000000E+00 0.  1.
        -13    1    3    3    0    0  0.28800363623E+02  0.33094475238E+01 -0.22942511782E+02  0.36969882805E+02  0.00000000000E+00 0. -1.
         22    1    1    2    0    0 -0.88502049450E+01  0.14819724177E+02 -0.37436474682E+02  0.41224264565E+02  0.00000000000E+00 0. -1.
<mgrwt>
<rscale>  0 0.60712991E+02</rscale>
<asrwt>0</asrwt>
<pdfrwt beam="1">  1        2 0.11147011E-01 0.92331846E+02</pdfrwt>
<pdfrwt beam="2">  1       -2 0.10189909E-01 0.92331846E+02</pdfrwt>
<totfact> 0.31539913E+04</totfact>
</mgrwt>
</event>
<event>
 6    1  0.1723639E-002  0.9276863E+02  0.7546771E-02  0.1387214E+00
         -1   -1    0    0    0  501 -0.00000000000E+00  0.00000000000E+00  0.87539607130E+03  0.87539607130E+03  0.00000000000E+00 0.  1.
          1   -1    0    0  501    0  0.00000000000E+00 -0.00000000000E+00 -0.40521092892E+01  0.40521092892E+01  0.00000000000E+00 0. -1.
         23    2    1    2    0    0  0.17215946321E+02  0.85923793787E+01  0.80626521421E+03  0.81158463215E+03  0.90751317952E+02 0.  0.
         13    1    3    3    0    0 -0.22855325164E+02  0.36291061728E+02  0.31408680305E+03  0.31700146199E+03  0.00000000000E+00 0. -1.
        -13    1    3    3    0    0  0.40071271485E+02 -0.27698682349E+02  0.49217841116E+03  0.49458317017E+03  0.00000000000E+00 0.  1.
         22    1    1    2    0    0 -0.17215946321E+02 -0.85923793787E+01  0.65078747805E+02  0.67863548440E+02  0.00000000000E+00 0. -1.
<mgrwt>
<rscale>  0 0.62604858E+02</rscale>
<asrwt>0</asrwt>
<pdfrwt beam="1">  1        1 0.62340213E-03 0.92768634E+02</pdfrwt>
<pdfrwt beam="2">  1       -1 0.13467617E+00 0.92768634E+02</pdfrwt>
<totfact> 0.14241453E+04</totfact>
</mgrwt>
</event>
<event>
 6    1  0.1723639E-002  0.8913260E+02  0.7546771E-02  0.1430787E+00
          2   -1    0    0  501    0  0.00000000000E+00  0.00000000000E+00  0.62415982921E+02  0.62415982921E+02  0.00000000000E+00 0. -1.
         -2   -1    0    0    0  501 -0.00000000000E+00 -0.00000000000E+00 -0.40841316451E+02  0.40841316451E+02  0.00000000000E+00 0.  1.
         23    2    1    2    0    0 -0.99885471108E+01  0.45536821169E+01  0.23342129550E+02  0.92138350683E+02  0.88454019471E+02 0.  0.
         11    1    3    3    0    0  0.99775488140E+00 -0.16616758652E+02  0.52147473168E+02  0.54740032342E+02  0.00000000000E+00 0. -1.
        -11    1    3    3    0    0 -0.10986301992E+02  0.21170440769E+02 -0.28805343619E+02  0.37398318342E+02  0.00000000000E+00 0.  1.
         22    1    1    2    0    0  0.99885471108E+01 -0.45536821169E+01 -0.17674630795E+01  0.11118948689E+02  0.00000000000E+00 0.  1.
<mgrwt>
<rscale>  0 0.52802443E+02</rscale>
<asrwt>0</asrwt>
<pdfrwt beam="1">  1        2 0.96024589E-02 0.89132602E+02</pdfrwt>
<pdfrwt beam="2">  1       -2 0.62832794E-02 0.89132602E+02</pdfrwt>
<totfact> 0.78709787E+04</totfact>
</mgrwt>
</event>
<event>
 6    1  0.1723639E-002  0.1025102E+03  0.7546771E-02  0.1314840E+00
          1   -1    0    0  501    0  0.00000000000E+00  0.00000000000E+00  0.51830999426E+02  0.51830999426E+02  0.00000000000E+00 0.  1.
         -1   -1    0    0    0  501 -0.00000000000E+00 -0.00000000000E+00 -0.11180857332E+03  0.11180857332E+03  0.00000000000E+00 0. -1.
         23    2    1    2    0    0  0.58196801082E+01 -0.48631699080E+02 -0.48138283311E+02  0.11325029181E+03  0.90052337238E+02 0.  0.
         13    1    3    3    0    0 -0.71298372094E+01  0.61796014738E+01 -0.55638512691E+02  0.56432846352E+02  0.00000000000E+00 0. -1.
        -13    1    3    3    0    0  0.12949517318E+02 -0.54811300554E+02  0.75002293795E+01  0.56817445454E+02  0.00000000000E+00 0.  1.
         22    1    1    2    0    0 -0.58196801082E+01  0.48631699080E+02 -0.11839290581E+02  0.50389280938E+02  0.00000000000E+00 0. -1.
<mgrwt>
<rscale>  0 0.85226954E+02</rscale>
<asrwt>0</asrwt>
<pdfrwt beam="1">  1        1 0.79739999E-02 0.10251017E+03</pdfrwt>
<pdfrwt beam="2">  1       -1 0.17201319E-01 0.10251017E+03</pdfrwt>
<totfact> 0.20195354E+04</totfact>
</mgrwt>
</event>
<event>
 6    1  0.1723639E-002  0.9306346E+02  0.7546771E-02  0.1380625E+00
         -2   -1    0    0    0  501 -0.00000000000E+00  0.00000000000E+00  0.76480041370E+01  0.76480041370E+01  0.00000000000E+00 0.  1.
          2   -1    0    0  501    0  0.00000000000E+00 -0.00000000000E+00 -0.42971454333E+03  0.42971454333E+03  0.00000000000E+00 0. -1.
         23    2    1    2    0    0  0.44787272540E+01 -0.20729579376E+02 -0.32891306494E+03  0.34182541215E+03  0.90614754016E+02 0.  0.
         13    1    3    3    0    0  0.15257504160E+02 -0.45418773179E+02 -0.29321077638E+03  0.29709967314E+03  0.00000000000E+00 0. -1.
        -13    1    3    3    0    0 -0.10778776906E+02  0.24689193803E+02 -0.35702288554E+02  0.44725739013E+02  0.00000000000E+00 0.  1.
         22    1    1    2    0    0 -0.44787272540E+01  0.20729579376E+02 -0.93153474259E+02  0.95537135322E+02  0.00000000000E+00 0.  1.
<mgrwt>
<rscale>  0 0.64299672E+02</rscale>
<asrwt>0</asrwt>
<pdfrwt beam="1">  1        2 0.66109940E-01 0.93063463E+02</pdfrwt>
<pdfrwt beam="2">  1       -2 0.11766158E-02 0.93063463E+02</pdfrwt>
<totfact> 0.10741858E+05</totfact>
</mgrwt>
</event>
<event>
 6    1  0.1723639E-002  0.9084008E+02  0.7546771E-02  0.1429179E+00
          2   -1    0    0  501    0  0.00000000000E+00  0.00000000000E+00  0.22113639758E+03  0.22113639758E+03  0.00000000000E+00 0. -1.
         -2   -1    0    0    0  501 -0.00000000000E+00 -0.00000000000E+00 -0.12038535518E+02  0.12038535518E+02  0.00000000000E+00 0.  1.
         23    2    1    2    0    0  0.61948569353E+00 -0.10607949248E+02  0.17109928227E+03  0.19371857219E+03  0.90216453426E+02 0.  0.
         11    1    3    3    0    0  0.16286545936E+02 -0.44633176666E+02  0.60364128683E+02  0.76819268868E+02  0.00000000000E+00 0. -1.
        -11    1    3    3    0    0 -0.15667060242E+02  0.34025227418E+02  0.11073515359E+03  0.11689930332E+03  0.00000000000E+00 0.  1.
         22    1    1    2    0    0 -0.61948569353E+00  0.10607949248E+02  0.37998579793E+02  0.39456360908E+02  0.00000000000E+00 0.  1.
<mgrwt>
<rscale>  0 0.53125230E+02</rscale>
<asrwt>0</asrwt>
<pdfrwt beam="1">  1        2 0.34020981E-01 0.90840084E+02</pdfrwt>
<pdfrwt beam="2">  1       -2 0.18520826E-02 0.90840084E+02</pdfrwt>
<totfact> 0.11255533E+05</totfact>
</mgrwt>
</event>
<event>
 6    1  0.1723639E-002  0.9050096E+02  0.7546771E-02  0.1423229E+00
          1   -1    0    0  501    0  0.00000000000E+00  0.00000000000E+00  0.22318593688E+03  0.22318593688E+03  0.00000000000E+00 0. -1.
         -1   -1    0    0    0  501 -0.00000000000E+00 -0.00000000000E+00 -0.11946005798E+02  0.11946005798E+02  0.00000000000E+00 0.  1.
         23    2    1    2    0    0  0.11370899213E+02 -0.30241109669E+01  0.17478703082E+03  0.19682715794E+03  0.89732833263E+02 0.  0.
         11    1    3    3    0    0 -0.24922823362E+02  0.28406099229E+02  0.46933157010E+02  0.60255911119E+02  0.00000000000E+00 0.  1.
        -11    1    3    3    0    0  0.36293722575E+02 -0.31430210196E+02  0.12785387381E+03  0.13657124682E+03  0.00000000000E+00 0. -1.
         22    1    1    2    0    0 -0.11370899213E+02  0.30241109669E+01  0.36452900268E+02  0.38304784740E+02  0.00000000000E+00 0.  1.
<mgrwt>
<rscale>  0 0.54343626E+02</rscale>
<asrwt>0</asrwt>
<pdfrwt beam="1">  1        1 0.34336295E-01 0.90500961E+02</pdfrwt>
<pdfrwt beam="2">  1       -1 0.18378472E-02 0.90500961E+02</pdfrwt>
<totfact> 0.84800639E+04</totfact>
</mgrwt>
</event>
<event>
 6    1  0.1723639E-002  0.9188648E+02  0.7546771E-02  0.1400847E+00
          1   -1    0    0  501    0  0.00000000000E+00  0.00000000000E+00  0.13863825104E+04  0.13863825104E+04  0.00000000000E+00 0. -1.
         -1   -1    0    0    0  501 -0.00000000000E+00 -0.00000000000E+00 -0.23806520886E+01  0.23806520886E+01  0.00000000000E+00 0.  1.
         23    2    1    2    0    0 -0.11086549183E+02 -0.11432804613E+02  0.13014180874E+04  0.13046578724E+04  0.90495885792E+02 0.  0.
         11    1    3    3    0    0 -0.11416116564E+02  0.37553921681E+02  0.40353781203E+03  0.40544221597E+03  0.00000000000E+00 0.  1.
        -11    1    3    3    0    0  0.32956738144E+00 -0.48986726294E+02  0.89788027537E+03  0.89921565648E+03  0.00000000000E+00 0. -1.
         22    1    1    2    0    0  0.11086549183E+02  0.11432804613E+02  0.82583770886E+02  0.84105290011E+02  0.00000000000E+00 0.  1.
<mgrwt>
<rscale>  0 0.59287316E+02</rscale>
<asrwt>0</asrwt>
<pdfrwt beam="1">  1        1 0.21328897E+00 0.91886484E+02</pdfrwt>
<pdfrwt beam="2">  1       -1 0.36625527E-03 0.91886484E+02</pdfrwt>
<totfact> 0.61660645E+04</totfact>
</mgrwt>
</event>
<event>
 6    1  0.1723639E-002  0.1034484E+03  0.7546771E-02  0.1311268E+00
          1   -1    0    0  501    0  0.00000000000E+00  0.00000000000E+00  0.67050264666E+02  0.67050264666E+02  0.00000000000E+00 0. -1.
         -1   -1    0    0    0  501 -0.00000000000E+00 -0.00000000000E+00 -0.10169232995E+03  0.10169232995E+03  0.00000000000E+00 0.  1.
         23    2    1    2    0    0 -0.35853111094E+02  0.36036903997E+02 -0.51006171430E+02  0.11533952360E+03  0.90097015240E+02 0.  0.
         11    1    3    3    0    0 -0.34393483666E+01  0.42704174451E+02  0.11722360638E+02  0.44417219315E+02  0.00000000000E+00 0. -1.
        -11    1    3    3    0    0 -0.32413762727E+02 -0.66672704544E+01 -0.62728532068E+02  0.70922304283E+02  0.00000000000E+00 0.  1.
         22    1    1    2    0    0  0.35853111094E+02 -0.36036903997E+02  0.16364106142E+02  0.53403071022E+02  0.00000000000E+00 0. -1.
<mgrwt>
<rscale>  0 0.86612715E+02</rscale>
<asrwt>0</asrwt>
<pdfrwt beam="1">  1        1 0.10315425E-01 0.10344842E+03</pdfrwt>
<pdfrwt beam="2">  1       -1 0.15644974E-01 0.10344842E+03</pdfrwt>
<totfact> 0.16689109E+04</totfact>
</mgrwt>
</event>
<event>
 6    1  0.1723639E-002  0.9941046E+02  0.7546771E-02  0.1337353E+00
          2   -1    0    0  501    0  0.00000000000E+00  0.00000000000E+00  0.36718873297E+03  0.36718873297E+03  0.00000000000E+00 0. -1.
         -2   -1    0    0    0  501 -0.00000000000E+00 -0.00000000000E+00 -0.18056871706E+02  0.18056871706E+02  0.00000000000E+00 0.  1.
         23    2    1    2    0    0 -0.13490443029E+02 -0.33434162485E+02  0.13256512937E+03  0.16569837823E+03  0.92642343184E+02 0.  0.
         13    1    3    3    0    0 -0.41536592990E+02 -0.45363482080E+02  0.55577544243E+02  0.82897511952E+02  0.00000000000E+00 0.  1.
        -13    1    3    3    0    0  0.28046149961E+02  0.11929319595E+02  0.76987585124E+02  0.82800866281E+02  0.00000000000E+00 0. -1.
         22    1    1    2    0    0  0.13490443029E+02  0.33434162485E+02  0.21656673190E+03  0.21954722644E+03  0.00000000000E+00 0.  1.
<mgrwt>
<rscale>  0 0.77145410E+02</rscale>
<asrwt>0</asrwt>
<pdfrwt beam="1">  1        2 0.56490569E-01 0.99410457E+02</pdfrwt>
<pdfrwt beam="2">  1       -2 0.27779805E-02 0.99410457E+02</pdfrwt>
<totfact> 0.37261599E+04</totfact>
</mgrwt>
</event>
<event>
 6    1  0.1723639E-002  0.9424052E+02  0.7546771E-02  0.1368121E+00
          3   -1    0    0  501    0  0.00000000000E+00  0.00000000000E+00  0.14065708835E+02  0.14065708835E+02  0.00000000000E+00 0. -1.
         -3   -1    0    0    0  501 -0.00000000000E+00 -0.00000000000E+00 -0.29104568181E+03  0.29104568181E+03  0.00000000000E+00 0.  1.
         23    2    1    2    0    0  0.26024258202E+01  0.24951215941E+02 -0.25464049110E+03  0.27151989995E+03  0.90840192437E+02 0.  0.
         13    1    3    3    0    0  0.19805620557E+02  0.78371224649E+01 -0.66052929941E+01  0.22300515459E+02  0.00000000000E+00 0. -1.
        -13    1    3    3    0    0 -0.17203194737E+02  0.17114093476E+02 -0.24803519811E+03  0.24921938449E+03  0.00000000000E+00 0.  1.
         22    1    1    2    0    0 -0.26024258202E+01 -0.24951215941E+02 -0.22339481879E+02  0.33591490704E+02  0.00000000000E+00 0. -1.
<mgrwt>
<rscale>  0 0.67692191E+02</rscale>
<asrwt>0</asrwt>
<pdfrwt beam="1">  1        3 0.21639552E-02 0.94240524E+02</pdfrwt>
<pdfrwt beam="2">  1       -3 0.44776259E-01 0.94240524E+02</pdfrwt>
<totfact> 0.87951704E+03</totfact>
</mgrwt>
</event>
<event>
 6    1  0.1723639E-002  0.8173666E+02  0.7546771E-02  0.1440184E+00
         -2   -1    0    0    0  501 -0.00000000000E+00  0.00000000000E+00  0.15458903144E+03  0.15458903144E+03  0.00000000000E+00 0.  1.
          2   -1    0    0  501    0  0.00000000000E+00 -0.00000000000E+00 -0.17289000211E+02  0.17289000211E+02  0.00000000000E+00 0. -1.
         23    2    1    2    0    0  0.88167896331E+01 -0.86603425619E+01  0.13698261741E+03  0.15951526238E+03  0.80796931535E+02 0.  0.
         11    1    3    3    0    0  0.24627866134E+02 -0.21106227977E+02  0.13551219125E+03  0.13933972380E+03  0.00000000000E+00 0.  1.
        -11    1    3    3    0    0 -0.15811076501E+02  0.12445885415E+02  0.14704261588E+01  0.20175538580E+02  0.00000000000E+00 0. -1.
         22    1    1    2    0    0 -0.88167896331E+01  0.86603425619E+01  0.31741382303E+00  0.12362769280E+02  0.00000000000E+00 0. -1.
<mgrwt>
<rscale>  0 0.50968964E+02</rscale>
<asrwt>0</asrwt>
<pdfrwt beam="1">  1        2 0.26598463E-02 0.81736659E+02</pdfrwt>
<pdfrwt beam="2">  1       -2 0.23782927E-01 0.81736659E+02</pdfrwt>
<totfact> 0.48486781E+04</totfact>
</mgrwt>
</event>
<event>
 6    1  0.1723639E-002  0.9550074E+02  0.7546771E-02  0.1355952E+00
          2   -1    0    0  501    0  0.00000000000E+00  0.00000000000E+00  0.61350670387E+03  0.61350670387E+03  0.00000000000E+00 0. -1.
         -2   -1    0    0    0  501 -0.00000000000E+00 -0.00000000000E+00 -0.64021466962E+01  0.64021466962E+01  0.00000000000E+00 0.  1.
         23    2    1    2    0    0 -0.28208510219E+02  0.88314576147E+01  0.44514301879E+03  0.45527211527E+03  0.90811216682E+02 0.  0.
         13    1    3    3    0    0  0.58255695948E+00  0.21880406975E+02  0.22292557551E+02  0.31241794189E+02  0.00000000000E+00 0.  1.
        -13    1    3    3    0    0 -0.28791067178E+02 -0.13048949360E+02  0.42285046123E+03  0.42403032108E+03  0.00000000000E+00 0. -1.
         22    1    1    2    0    0  0.28208510219E+02 -0.88314576147E+01  0.16196153839E+03  0.16463673530E+03  0.00000000000E+00 0. -1.
<mgrwt>
<rscale>  0 0.71232185E+02</rscale>
<asrwt>0</asrwt>
<pdfrwt beam="1">  1        2 0.94385601E-01 0.95500742E+02</pdfrwt>
<pdfrwt beam="2">  1       -2 0.98494613E-03 0.95500742E+02</pdfrwt>
<totfact> 0.94144881E+04</totfact>
</mgrwt>
</event>
<event>
 6    1  0.1723639E-002  0.9155613E+02  0.7546771E-02  0.1427726E+00
          4   -1    0    0  501    0  0.00000000000E+00  0.00000000000E+00  0.15186361692E+03  0.15186361692E+03  0.00000000000E+00 0. -1.
         -4   -1    0    0    0  501 -0.00000000000E+00 -0.00000000000E+00 -0.17183232993E+02  0.17183232993E+02  0.00000000000E+00 0.  1.
         23    2    1    2    0    0  0.55093043827E+01  0.90679253575E+01  0.12059186527E+03  0.15140978488E+03  0.90939239510E+02 0.  0.
         13    1    3    3    0    0 -0.82854988657E+01 -0.20349678538E+02  0.11662552225E+03  0.11867717281E+03  0.00000000000E+00 0. -1.
        -13    1    3    3    0    0  0.13794803248E+02  0.29417603895E+02  0.39663430245E+01  0.32732612065E+02  0.00000000000E+00 0.  1.
         22    1    1    2    0    0 -0.55093043827E+01 -0.90679253575E+01  0.14088518657E+02  0.17637065034E+02  0.00000000000E+00 0. -1.
<mgrwt>
<rscale>  0 0.53419287E+02</rscale>
<asrwt>0</asrwt>
<pdfrwt beam="1">  1        4 0.23363632E-01 0.91556130E+02</pdfrwt>
<pdfrwt beam="2">  1       -4 0.26435744E-02 0.91556130E+02</pdfrwt>
<totfact> 0.16170868E+04</totfact>
</mgrwt>
</event>
<event>
 6    1  0.1723639E-002  0.9312458E+02  0.7546771E-02  0.1425195E+00
          2   -1    0    0  501    0  0.00000000000E+00  0.00000000000E+00  0.14087469773E+02  0.14087469773E+02  0.00000000000E+00 0. -1.
         -2   -1    0    0    0  501 -0.00000000000E+00 -0.00000000000E+00 -0.19716902938E+03  0.19716902938E+03  0.00000000000E+00 0.  1.
         23    2    1    2    0    0 -0.25005438133E+01 -0.10176867423E+02 -0.17415842644E+03  0.19749264593E+03  0.92533055436E+02 0.  0.
         11    1    3    3    0    0 -0.11491622679E+02 -0.49204685834E+02 -0.73824665258E+02  0.89460827742E+02  0.00000000000E+00 0. -1.
        -11    1    3    3    0    0  0.89910788657E+01  0.39027818411E+02 -0.10033376118E+03  0.10803181819E+03  0.00000000000E+00 0.  1.
         22    1    1    2    0    0  0.25005438133E+01  0.10176867423E+02 -0.89231331715E+01  0.13763853222E+02  0.00000000000E+00 0. -1.
<mgrwt>
<rscale>  0 0.53936666E+02</rscale>
<asrwt>0</asrwt>
<pdfrwt beam="1">  1        2 0.21673030E-02 0.93124582E+02</pdfrwt>
<pdfrwt beam="2">  1       -2 0.30333698E-01 0.93124582E+02</pdfrwt>
<totfact> 0.42505911E+04</totfact>
</mgrwt>
</event>
<event>
 6    1  0.1723639E-002  0.9704712E+02  0.7546771E-02  0.1344834E+00
          1   -1    0    0  501    0  0.00000000000E+00  0.00000000000E+00  0.27882007257E+03  0.27882007257E+03  0.00000000000E+00 0. -1.
         -1   -1    0    0    0  501 -0.00000000000E+00 -0.00000000000E+00 -0.18657957678E+02  0.18657957678E+02  0.00000000000E+00 0.  1.
         23    2    1    2    0    0 -0.30542592020E+02  0.15048947227E+02  0.12587918056E+03  0.15894562540E+03  0.90878066638E+02 0.  0.
         13    1    3    3    0    0 -0.32893691228E+02  0.31902306904E+02  0.17203878238E+02  0.48946149336E+02  0.00000000000E+00 0.  1.
        -13    1    3    3    0    0  0.23510992080E+01 -0.16853359678E+02  0.10867530232E+03  0.10999947606E+03  0.00000000000E+00 0. -1.
         22    1    1    2    0    0  0.30542592020E+02 -0.15048947227E+02  0.13428293433E+03  0.13853240485E+03  0.00000000000E+00 0. -1.
<mgrwt>
<rscale>  0 0.74689997E+02</rscale>
<asrwt>0</asrwt>
<pdfrwt beam="1">  1        1 0.42895393E-01 0.97047121E+02</pdfrwt>
<pdfrwt beam="2">  1       -1 0.28704552E-02 0.97047121E+02</pdfrwt>
<totfact> 0.34434143E+04</totfact>
</mgrwt>
</event>
<event>
 6    1  0.1723639E-002  0.8625459E+02  0.7546771E-02  0.1425821E+00
          1   -1    0    0  501    0  0.00000000000E+00  0.00000000000E+00  0.93071557625E+02  0.93071557625E+02  0.00000000000E+00 0. -1.
         -1   -1    0    0    0  501 -0.00000000000E+00 -0.00000000000E+00 -0.31867076023E+02  0.31867076023E+02  0.00000000000E+00 0.  1.
         23    2    1    2    0    0  0.65357342910E+01 -0.11310377975E+02  0.30359434873E+02  0.91441508692E+02  0.85259684220E+02 0.  0.
         11    1    3    3    0    0 -0.37467198824E+02  0.52796916846E+01  0.21719306618E+02  0.43627908636E+02  0.00000000000E+00 0.  1.
        -11    1    3    3    0    0  0.44002933115E+02 -0.16590069659E+02  0.86401282544E+01  0.47813600055E+02  0.00000000000E+00 0. -1.
         22    1    1    2    0    0 -0.65357342910E+01  0.11310377975E+02  0.30845046729E+02  0.33497124957E+02  0.00000000000E+00 0. -1.
<mgrwt>
<rscale>  0 0.53808008E+02</rscale>
<asrwt>0</asrwt>
<pdfrwt beam="1">  1        1 0.14318701E-01 0.86254590E+02</pdfrwt>
<pdfrwt beam="2">  1       -1 0.49026271E-02 0.86254590E+02</pdfrwt>
<totfact> 0.61047086E+04</totfact>
</mgrwt>
</event>
<event>
 6    1  0.1723639E-002  0.9336715E+02  0.7546771E-02  0.1388423E+00
          1   -1    0    0  501    0  0.00000000000E+00  0.00000000000E+00  0.52072517335E+02  0.52072517335E+02  0.00000000000E+00 0. -1.
         -1   -1    0    0    0  501 -0.00000000000E+00 -0.00000000000E+00 -0.92270874975E+02  0.92270874975E+02  0.00000000000E+00 0.  1.
         23    2    1    2    0    0  0.18111565497E+02 -0.38153245441E+01 -0.64731303031E+02  0.11361147217E+03  0.91514149233E+02 0.  0.
         13    1    3    3    0    0  0.51171762629E+02  0.45784938023E+01 -0.15396681304E+02  0.53633661922E+02  0.00000000000E+00 0. -1.
        -13    1    3    3    0    0 -0.33060197132E+02 -0.83938183464E+01 -0.49334621727E+02  0.59977810245E+02  0.00000000000E+00 0.  1.
         22    1    1    2    0    0 -0.18111565497E+02  0.38153245441E+01  0.24532945391E+02  0.30731920143E+02  0.00000000000E+00 0. -1.
<mgrwt>
<rscale>  0 0.62300525E+02</rscale>
<asrwt>0</asrwt>
<pdfrwt beam="1">  1        1 0.80111565E-02 0.93367152E+02</pdfrwt>
<pdfrwt beam="2">  1       -1 0.14195519E-01 0.93367152E+02</pdfrwt>
<totfact> 0.26779583E+04</totfact>
</mgrwt>
</event>
<event>
 6    1  0.1723639E-002  0.9113750E+02  0.7546771E-02  0.1408380E+00
         -3   -1    0    0    0  501 -0.00000000000E+00  0.00000000000E+00  0.93545486426E+01  0.93545486426E+01  0.00000000000E+00 0.  1.
          3   -1    0    0  501    0  0.00000000000E+00 -0.00000000000E+00 -0.31846199502E+03  0.31846199502E+03  0.00000000000E+00 0. -1.
         23    2    1    2    0    0  0.11986911552E+02 -0.81543391395E+01 -0.23012851546E+03  0.24751803294E+03  0.89977017662E+02 0.  0.
         13    1    3    3    0    0  0.34194811591E+02  0.25697821400E+02 -0.67390558376E+02  0.79819487112E+02  0.00000000000E+00 0. -1.
        -13    1    3    3    0    0 -0.22207900040E+02 -0.33852160539E+02 -0.16273795708E+03  0.16769854582E+03  0.00000000000E+00 0.  1.
         22    1    1    2    0    0 -0.11986911552E+02  0.81543391395E+01 -0.78978930926E+02  0.80298510731E+02  0.00000000000E+00 0.  1.
<mgrwt>
<rscale>  0 0.57556789E+02</rscale>
<asrwt>0</asrwt>
<pdfrwt beam="1">  1        3 0.48994150E-01 0.91137495E+02</pdfrwt>
<pdfrwt beam="2">  1       -3 0.14391614E-02 0.91137495E+02</pdfrwt>
<totfact> 0.13517740E+04</totfact>
</mgrwt>
</event>
<event>
 6    1  0.1723639E-002  0.9594956E+02  0.7546771E-02  0.1372901E+00
         -1   -1    0    0    0  501 -0.00000000000E+00  0.00000000000E+00  0.11349137138E+02  0.11349137138E+02  0.00000000000E+00 0.  1.
          1   -1    0    0  501    0  0.00000000000E+00 -0.00000000000E+00 -0.34747681575E+03  0.34747681575E+03  0.00000000000E+00 0. -1.
         23    2    1    2    0    0 -0.11844018382E+02 -0.18495449409E+02 -0.31094114258E+03  0.32540853202E+03  0.93402120648E+02 0.  0.
         11    1    3    3    0    0 -0.31261427344E+02  0.26213136973E+02 -0.85187832835E+02  0.94453016112E+02  0.00000000000E+00 0.  1.
        -11    1    3    3    0    0  0.19417408962E+02 -0.44708586382E+02 -0.22575330974E+03  0.23095551591E+03  0.00000000000E+00 0. -1.
         22    1    1    2    0    0  0.11844018382E+02  0.18495449409E+02 -0.25186536038E+02  0.33417420874E+02  0.00000000000E+00 0.  1.
<mgrwt>
<rscale>  0 0.66367267E+02</rscale>
<asrwt>0</asrwt>
<pdfrwt beam="1">  1        1 0.53457970E-01 0.95949563E+02</pdfrwt>
<pdfrwt beam="2">  1       -1 0.17460211E-02 0.95949563E+02</pdfrwt>
<totfact> 0.53522647E+04</totfact>
</mgrwt>
</event>
<event>
 6    1  0.1723639E-002  0.1071190E+03  0.7546771E-02  0.1300191E+00
          2   -1    0    0  501    0  0.00000000000E+00  0.00000000000E+00  0.32293184392E+03  0.32293184392E+03  0.00000000000E+00 0. -1.
         -2   -1    0    0    0  501 -0.00000000000E+00 -0.00000000000E+00 -0.21751009852E+02  0.21751009852E+02  0.00000000000E+00 0.  1.
         23    2    1    2    0    0  0.19392111003E+02  0.52595005675E+02  0.15769910468E+03  0.19063969340E+03  0.91280865956E+02 0.  0.
         11    1    3    3    0    0 -0.28076969660E+01  0.72542722350E+02  0.13448749357E+03  0.15283067642E+03  0.00000000000E+00 0. -1.
        -11    1    3    3    0    0  0.22199807969E+02 -0.19947716675E+02  0.23211611116E+02  0.37809016980E+02  0.00000000000E+00 0.  1.
         22    1    1    2    0    0 -0.19392111003E+02 -0.52595005675E+02  0.14348172938E+03  0.15404316037E+03  0.00000000000E+00 0. -1.
<mgrwt>
<rscale>  0 0.91107832E+02</rscale>
<asrwt>0</asrwt>
<pdfrwt beam="1">  1        2 0.49681819E-01 0.10711902E+03</pdfrwt>
<pdfrwt beam="2">  1       -2 0.33463094E-02 0.10711902E+03</pdfrwt>
<totfact> 0.32782255E+04</totfact>
</mgrwt>
</event>
<event>
 6    1  0.1723639E-002  0.1041277E+03  0.7546771E-02  0.1310691E+00
          2   -1    0    0  501    0  0.00000000000E+00  0.00000000000E+00  0.46410491626E+03  0.46410491626E+03  0.00000000000E+00 0. -1.
         -2   -1    0    0    0  501 -0.00000000000E+00 -0.00000000000E+00 -0.13695659940E+02  0.13695659940E+02  0.00000000000E+00 0.  1.
         23    2    1    2    0    0  0.34749108156E+02 -0.36464298813E+02  0.35439984335E+03  0.36938031525E+03  0.91134091992E+02 0.  0.
         13    1    3    3    0    0  0.17366335153E+02 -0.64338245079E+02  0.18059215316E+03  0.19249551984E+03  0.00000000000E+00 0.  1.
        -13    1    3    3    0    0  0.17382773003E+02  0.27873946265E+02  0.17380769019E+03  0.17688479541E+03  0.00000000000E+00 0. -1.
         22    1    1    2    0    0 -0.34749108156E+02  0.36464298813E+02  0.96009412973E+02  0.10842026095E+03  0.00000000000E+00 0. -1.
<mgrwt>
<rscale>  0 0.86839585E+02</rscale>
<asrwt>0</asrwt>
<pdfrwt beam="1">  1        2 0.71400744E-01 0.10412765E+03</pdfrwt>
<pdfrwt beam="2">  1       -2 0.21070250E-02 0.10412765E+03</pdfrwt>
<totfact> 0.43609738E+04</totfact>
</mgrwt>
</event>
<event>
 6    1  0.1723639E-002  0.9878621E+02  0.7546771E-02  0.1335682E+00
          3   -1    0    0  501    0  0.00000000000E+00  0.00000000000E+00  0.32491728302E+02  0.32491728302E+02  0.00000000000E+00 0. -1.
         -3   -1    0    0    0  501 -0.00000000000E+00 -0.00000000000E+00 -0.14405720366E+03  0.14405720366E+03  0.00000000000E+00 0.  1.
         23    2    1    2    0    0 -0.37715154493E+02  0.28983187343E+01 -0.85056852882E+02  0.13035867113E+03  0.91257228685E+02 0.  0.
         13    1    3    3    0    0 -0.11251895152E+02 -0.35920581323E+02 -0.56061135800E+01  0.38056823522E+02  0.00000000000E+00 0. -1.
        -13    1    3    3    0    0 -0.26463259341E+02  0.38818900058E+02 -0.79450739302E+02  0.92301847611E+02  0.00000000000E+00 0.  1.
         22    1    1    2    0    0  0.37715154493E+02 -0.28983187343E+01 -0.26508622473E+02  0.46190260827E+02  0.00000000000E+00 0. -1.
<mgrwt>
<rscale>  0 0.77708918E+02</rscale>
<asrwt>0</asrwt>
<pdfrwt beam="1">  1        3 0.49987275E-02 0.98786208E+02</pdfrwt>
<pdfrwt beam="2">  1       -3 0.22162647E-01 0.98786208E+02</pdfrwt>
<totfact> 0.89927913E+03</totfact>
</mgrwt>
</event>
<event>
 6    1  0.1723639E-002  0.8958726E+02  0.7546771E-02  0.1359041E+00
          2   -1    0    0  501    0  0.00000000000E+00  0.00000000000E+00  0.16336817823E+03  0.16336817823E+03  0.00000000000E+00 0. -1.
         -2   -1    0    0    0  501 -0.00000000000E+00 -0.00000000000E+00 -0.28832895526E+02  0.28832895526E+02  0.00000000000E+00 0.  1.
         23    2    1    2    0    0 -0.19906370296E+02  0.27549785649E+02  0.53548537022E+02  0.10437108318E+03  0.82889220772E+02 0.  0.
         11    1    3    3    0    0 -0.44056952672E+02  0.27427322164E+02  0.60042539032E+02  0.79362330946E+02  0.00000000000E+00 0.  1.
        -11    1    3    3    0    0  0.24150582376E+02  0.12246348557E+00 -0.64940020096E+01  0.25008752238E+02  0.00000000000E+00 0. -1.
         22    1    1    2    0    0  0.19906370296E+02 -0.27549785649E+02  0.80986745684E+02  0.87829990573E+02  0.00000000000E+00 0. -1.
<mgrwt>
<rscale>  0 0.70310371E+02</rscale>
<asrwt>0</asrwt>
<pdfrwt beam="1">  1        2 0.25133565E-01 0.89587260E+02</pdfrwt>
<pdfrwt beam="2">  1       -2 0.44358302E-02 0.89587260E+02</pdfrwt>
<totfact> 0.43699339E+04</totfact>
</mgrwt>
</event>
<event>
 6    1  0.1723639E-002  0.1032172E+03  0.7546771E-02  0.1319026E+00
          1   -1    0    0  501    0  0.00000000000E+00  0.00000000000E+00  0.35809071892E+03  0.35809071892E+03  0.00000000000E+00 0. -1.
         -1   -1    0    0    0  501 -0.00000000000E+00 -0.00000000000E+00 -0.29100230426E+02  0.29100230426E+02  0.00000000000E+00 0.  1.
         23    2    1    2    0    0  0.41540070078E+02 -0.15972980286E+02  0.70735283172E+02  0.12512900133E+03  0.93129335696E+02 0.  0.
         11    1    3    3    0    0 -0.55636915484E+00 -0.42009488749E+01  0.80276567249E+02  0.80388337260E+02  0.00000000000E+00 0. -1.
        -11    1    3    3    0    0  0.42096439233E+02 -0.11772031411E+02 -0.95412840772E+01  0.44740664071E+02  0.00000000000E+00 0.  1.
         22    1    1    2    0    0 -0.41540070078E+02  0.15972980286E+02  0.25825520532E+03  0.26206194802E+03  0.00000000000E+00 0. -1.
<mgrwt>
<rscale>  0 0.83640517E+02</rscale>
<asrwt>0</asrwt>
<pdfrwt beam="1">  1        1 0.55090877E-01 0.10321718E+03</pdfrwt>
<pdfrwt beam="2">  1       -1 0.44769588E-02 0.10321718E+03</pdfrwt>
<totfact> 0.13369045E+04</totfact>
</mgrwt>
</event>
<event>
 6    1  0.1723639E-002  0.9092711E+02  0.7546771E-02  0.1424325E+00
          2   -1    0    0  501    0  0.00000000000E+00  0.00000000000E+00  0.94070039940E+01  0.94070039940E+01  0.00000000000E+00 0. -1.
         -2   -1    0    0    0  501 -0.00000000000E+00 -0.00000000000E+00 -0.78654258403E+03  0.78654258403E+03  0.00000000000E+00 0.  1.
         23    2    1    2    0    0  0.11403268398E+02 -0.34895056011E+00 -0.77908716740E+03  0.78437526343E+03  0.90208553801E+02 0.  0.
         11    1    3    3    0    0  0.22702794700E+01 -0.29247452465E+02 -0.90801136536E+02  0.95422293206E+02  0.00000000000E+00 0. -1.
        -11    1    3    3    0    0  0.91329889282E+01  0.28898501905E+02 -0.68828603086E+03  0.68895297022E+03  0.00000000000E+00 0.  1.
         22    1    1    2    0    0 -0.11403268398E+02  0.34895056011E+00  0.19515873597E+01  0.11574324597E+02  0.00000000000E+00 0. -1.
<mgrwt>
<rscale>  0 0.54116312E+02</rscale>
<asrwt>0</asrwt>
<pdfrwt beam="1">  1        2 0.14472312E-02 0.90927111E+02</pdfrwt>
<pdfrwt beam="2">  1       -2 0.12100656E+00 0.90927111E+02</pdfrwt>
<totfact> 0.42479471E+03</totfact>
</mgrwt>
</event>
<event>
 6    1  0.1723639E-002  0.9164919E+02  0.7546771E-02  0.1418958E+00
          2   -1    0    0  501    0  0.00000000000E+00  0.00000000000E+00  0.79192403169E+02  0.79192403169E+02  0.00000000000E+00 0. -1.
         -2   -1    0    0    0  501 -0.00000000000E+00 -0.00000000000E+00 -0.34379973878E+02  0.34379973878E+02  0.00000000000E+00 0.  1.
         23    2    1    2    0    0  0.11999948152E+02 -0.15316333830E+01  0.35414427303E+02  0.98253529250E+02  0.90847287755E+02 0.  0.
         13    1    3    3    0    0  0.43686183729E+02 -0.26661559410E+02  0.20991145958E+02  0.55316811257E+02  0.00000000000E+00 0. -1.
        -13    1    3    3    0    0 -0.31686235577E+02  0.25129926027E+02  0.14423281344E+02  0.42936717992E+02  0.00000000000E+00 0.  1.
         22    1    1    2    0    0 -0.11999948152E+02  0.15316333830E+01  0.93980019881E+01  0.15318847797E+02  0.00000000000E+00 0.  1.
<mgrwt>
<rscale>  0 0.55241898E+02</rscale>
<asrwt>0</asrwt>
<pdfrwt beam="1">  1        2 0.12183447E-01 0.91649192E+02</pdfrwt>
<pdfrwt beam="2">  1       -2 0.52892268E-02 0.91649192E+02</pdfrwt>
<totfact> 0.76846891E+04</totfact>
</mgrwt>
</event>
<event>
 6    1  0.1723639E-002  0.1098386E+03  0.7546771E-02  0.1290177E+00
          2   -1    0    0  501    0  0.00000000000E+00  0.00000000000E+00  0.40362811906E+03  0.40362811906E+03  0.00000000000E+00 0. -1.
         -2   -1    0    0    0  501 -0.00000000000E+00 -0.00000000000E+00 -0.92540472478E+02  0.92540472478E+02  0.00000000000E+00 0.  1.
         23    2    1    2    0    0  0.61876738996E+02  0.96542991312E+01 -0.56337896639E+02  0.12344420794E+03  0.90236231941E+02 0.  0.
         11    1    3    3    0    0 -0.15573323024E+02  0.14580949032E+02  0.78501485790E+01  0.22732296351E+02  0.00000000000E+00 0. -1.
        -11    1    3    3    0    0  0.77450062021E+02 -0.49266499004E+01 -0.64188045218E+02  0.10071191159E+03  0.00000000000E+00 0.  1.
         22    1    1    2    0    0 -0.61876738996E+02 -0.96542991312E+01  0.36742554322E+03  0.37272438361E+03  0.00000000000E+00 0. -1.
<mgrwt>
<rscale>  0 0.95445125E+02</rscale>
<asrwt>0</asrwt>
<pdfrwt beam="1">  1        2 0.62096633E-01 0.10983858E+03</pdfrwt>
<pdfrwt beam="2">  1       -2 0.14236996E-01 0.10983858E+03</pdfrwt>
<totfact> 0.28435346E+03</totfact>
</mgrwt>
</event>
<event>
 6    1  0.1723639E-002  0.1043202E+03  0.7546771E-02  0.1309197E+00
          2   -1    0    0  501    0  0.00000000000E+00  0.00000000000E+00  0.16042836560E+03  0.16042836560E+03  0.00000000000E+00 0. -1.
         -2   -1    0    0    0  501 -0.00000000000E+00 -0.00000000000E+00 -0.37933077802E+02  0.37933077802E+02  0.00000000000E+00 0.  1.
         23    2    1    2    0    0  0.24726357240E+02  0.45139817341E+02  0.76887147230E+02  0.12959300342E+03  0.90739832895E+02 0.  0.
         13    1    3    3    0    0  0.35573903943E+01  0.66428288302E+02  0.27898148599E+02  0.72136531719E+02  0.00000000000E+00 0. -1.
        -13    1    3    3    0    0  0.21168966845E+02 -0.21288470962E+02  0.48988998631E+02  0.57456471699E+02  0.00000000000E+00 0.  1.
         22    1    1    2    0    0 -0.24726357240E+02 -0.45139817341E+02  0.45608140570E+02  0.68768439986E+02  0.00000000000E+00 0.  1.
<mgrwt>
<rscale>  0 0.87430226E+02</rscale>
<asrwt>0</asrwt>
<pdfrwt beam="1">  1        2 0.24681287E-01 0.10432024E+03</pdfrwt>
<pdfrwt beam="2">  1       -2 0.58358582E-02 0.10432024E+03</pdfrwt>
<totfact> 0.30183734E+04</totfact>
</mgrwt>
</event>
<event>
 6    1  0.1723639E-002  0.9874085E+02  0.7546771E-02  0.1338308E+00
          2   -1    0    0  501    0  0.00000000000E+00  0.00000000000E+00  0.26259553944E+03  0.26259553944E+03  0.00000000000E+00 0. -1.
         -2   -1    0    0    0  501 -0.00000000000E+00 -0.00000000000E+00 -0.24929759314E+02  0.24929759314E+02  0.00000000000E+00 0.  1.
         23    2    1    2    0    0  0.27662826668E+02  0.23327949340E+02  0.83940537782E+02  0.12959849503E+03  0.91871273161E+02 0.  0.
         13    1    3    3    0    0  0.15039979039E+02  0.54938055155E+02  0.26481045530E+02  0.62814302878E+02  0.00000000000E+00 0.  1.
        -13    1    3    3    0    0  0.12622847630E+02 -0.31610105816E+02  0.57459492252E+02  0.66784192155E+02  0.00000000000E+00 0. -1.
         22    1    1    2    0    0 -0.27662826668E+02 -0.23327949340E+02  0.15372524234E+03  0.15792680372E+03  0.00000000000E+00 0. -1.
<mgrwt>
<rscale>  0 0.76825915E+02</rscale>
<asrwt>0</asrwt>
<pdfrwt beam="1">  1        2 0.40399312E-01 0.98740853E+02</pdfrwt>
<pdfrwt beam="2">  1       -2 0.38353478E-02 0.98740853E+02</pdfrwt>
<totfact> 0.33027916E+04</totfact>
</mgrwt>
</event>
<event>
 6    1  0.1723639E-002  0.1031721E+03  0.7546771E-02  0.1307910E+00
         -4   -1    0    0    0  501 -0.00000000000E+00  0.00000000000E+00  0.16809073930E+02  0.16809073930E+02  0.00000000000E+00 0.  1.
          4   -1    0    0  501    0  0.00000000000E+00 -0.00000000000E+00 -0.44775015678E+03  0.44775015678E+03  0.00000000000E+00 0. -1.
         23    2    1    2    0    0  0.41858348789E+02  0.34848366762E+02 -0.17727691928E+03  0.20511359496E+03  0.87623916248E+02 0.  0.
         13    1    3    3    0    0  0.28201868471E+02  0.42182523346E+02 -0.34180924380E+02  0.61180440114E+02  0.00000000000E+00 0.  1.
        -13    1    3    3    0    0  0.13656480318E+02 -0.73341565841E+01 -0.14309599490E+03  0.14393315484E+03  0.00000000000E+00 0. -1.
         22    1    1    2    0    0 -0.41858348789E+02 -0.34848366762E+02 -0.25366416358E+03  0.25944563576E+03  0.00000000000E+00 0. -1.
<mgrwt>
<rscale>  0 0.87943303E+02</rscale>
<asrwt>0</asrwt>
<pdfrwt beam="1">  1        4 0.68884632E-01 0.10317209E+03</pdfrwt>
<pdfrwt beam="2">  1       -4 0.25860117E-02 0.10317209E+03</pdfrwt>
<totfact> 0.20736734E+03</totfact>
</mgrwt>
</event>
<event>
 6    1  0.1723639E-002  0.1029177E+03  0.7546771E-02  0.1359388E+00
          2   -1    0    0  501    0  0.00000000000E+00  0.00000000000E+00  0.12746525874E+02  0.12746525874E+02  0.00000000000E+00 0. -1.
         -2   -1    0    0    0  501 -0.00000000000E+00 -0.00000000000E+00 -0.31570360087E+03  0.31570360087E+03  0.00000000000E+00 0.  1.
         23    2    1    2    0    0  0.65829874874E+01  0.21293532687E+02 -0.26696487804E+03  0.28611587937E+03  0.10047537044E+03 0.  0.
         11    1    3    3    0    0  0.60188768102E+01  0.33164489399E+01  0.80096910706E+01  0.10553713217E+02  0.00000000000E+00 0. -1.
        -11    1    3    3    0    0  0.56411067727E+00  0.17977083747E+02 -0.27497456911E+03  0.27556216616E+03  0.00000000000E+00 0.  1.
         22    1    1    2    0    0 -0.65829874874E+01 -0.21293532687E+02 -0.35992196964E+02  0.42334247376E+02  0.00000000000E+00 0. -1.
<mgrwt>
<rscale>  0 0.70207705E+02</rscale>
<asrwt>0</asrwt>
<pdfrwt beam="1">  1        2 0.19610041E-02 0.10291769E+03</pdfrwt>
<pdfrwt beam="2">  1       -2 0.48569781E-01 0.10291769E+03</pdfrwt>
<totfact> 0.20483237E+04</totfact>
</mgrwt>
</event>
<event>
 6    1  0.1723639E-002  0.8958461E+02  0.7546771E-02  0.1431346E+00
         -2   -1    0    0    0  501 -0.00000000000E+00  0.00000000000E+00  0.10458519200E+03  0.10458519200E+03  0.00000000000E+00 0.  1.
          2   -1    0    0  501    0  0.00000000000E+00 -0.00000000000E+00 -0.24252918091E+02  0.24252918091E+02  0.00000000000E+00 0. -1.
         23    2    1    2    0    0  0.71961660671E+01 -0.79470593142E+01  0.67819317668E+02  0.11236040905E+03  0.88940773072E+02 0.  0.
         13    1    3    3    0    0  0.17445948044E+01  0.26619354523E+02 -0.88307970148E+01  0.28100117832E+02  0.00000000000E+00 0. -1.
        -13    1    3    3    0    0  0.54515712627E+01 -0.34566413838E+02  0.76650114683E+02  0.84260291215E+02  0.00000000000E+00 0.  1.
         22    1    1    2    0    0 -0.71961660671E+01  0.79470593142E+01  0.12512956246E+02  0.16477701048E+02  0.00000000000E+00 0.  1.
<mgrwt>
<rscale>  0 0.52690729E+02</rscale>
<asrwt>0</asrwt>
<pdfrwt beam="1">  1        2 0.37312182E-02 0.89584606E+02</pdfrwt>
<pdfrwt beam="2">  1       -2 0.16090029E-01 0.89584606E+02</pdfrwt>
<totfact> 0.60360022E+04</totfact>
</mgrwt>
</event>
<event>
 6    1  0.1723639E-002  0.8950646E+02  0.7546771E-02  0.1423907E+00
          2   -1    0    0  501    0  0.00000000000E+00  0.00000000000E+00  0.57829645093E+02  0.57829645093E+02  0.00000000000E+00 0.  1.
         -2   -1    0    0    0  501 -0.00000000000E+00 -0.00000000000E+00 -0.44958557473E+02  0.44958557473E+02  0.00000000000E+00 0. -1.
         23    2    1    2    0    0  0.53229743039E+01 -0.10796297829E+02  0.14389031612E+02  0.90655673719E+02  0.88693364151E+02 0.  0.
         13    1    3    3    0    0  0.28373096585E+02 -0.79603303596E+01 -0.29061498170E+02  0.41388043504E+02  0.00000000000E+00 0. -1.
        -13    1    3    3    0    0 -0.23050122281E+02 -0.28359674692E+01  0.43450529782E+02  0.49267630215E+02  0.00000000000E+00 0.  1.
         22    1    1    2    0    0 -0.53229743039E+01  0.10796297829E+02 -0.15179439927E+01  0.12132528847E+02  0.00000000000E+00 0.  1.
<mgrwt>
<rscale>  0 0.54202852E+02</rscale>
<asrwt>0</asrwt>
<pdfrwt beam="1">  1        2 0.88968685E-02 0.89506463E+02</pdfrwt>
<pdfrwt beam="2">  1       -2 0.69167011E-02 0.89506463E+02</pdfrwt>
<totfact> 0.74796132E+04</totfact>
</mgrwt>
</event>
<event>
 6    1  0.1723639E-002  0.9107618E+02  0.7546771E-02  0.1373890E+00
         -1   -1    0    0    0  501 -0.00000000000E+00  0.00000000000E+00  0.36724043944E+02  0.36724043944E+02  0.00000000000E+00 0.  1.
          1   -1    0    0  501    0  0.00000000000E+00 -0.00000000000E+00 -0.95022827130E+02  0.95022827130E+02  0.00000000000E+00 0. -1.
         23    2    1    2    0    0  0.23133029712E+02 -0.10159063910E+02 -0.35613655738E+02  0.97791626257E+02  0.87501577402E+02 0.  0.
         11    1    3    3    0    0  0.51632524070E+01 -0.24082847165E+02 -0.59754707355E+02  0.64631785943E+02  0.00000000000E+00 0. -1.
        -11    1    3    3    0    0  0.17969777305E+02  0.13923783255E+02  0.24141051618E+02  0.33159840315E+02  0.00000000000E+00 0.  1.
         22    1    1    2    0    0 -0.23133029712E+02  0.10159063910E+02 -0.22685127449E+02  0.33955244817E+02  0.00000000000E+00 0.  1.
<mgrwt>
<rscale>  0 0.66097557E+02</rscale>
<asrwt>0</asrwt>
<pdfrwt beam="1">  1        1 0.14618896E-01 0.91076175E+02</pdfrwt>
<pdfrwt beam="2">  1       -1 0.56498530E-02 0.91076175E+02</pdfrwt>
<totfact> 0.48673657E+04</totfact>
</mgrwt>
</event>
<event>
 6    1  0.1723639E-002  0.9463555E+02  0.7546771E-02  0.1403222E+00
         -2   -1    0    0    0  501 -0.00000000000E+00  0.00000000000E+00  0.42146992095E+02  0.42146992095E+02  0.00000000000E+00 0.  1.
          2   -1    0    0  501    0  0.00000000000E+00 -0.00000000000E+00 -0.70325149899E+02  0.70325149899E+02  0.00000000000E+00 0. -1.
         23    2    1    2    0    0 -0.13966893793E+02  0.14407129390E+01 -0.22158092223E+02  0.97195003334E+02  0.93588128768E+02 0.  0.
         13    1    3    3    0    0  0.16416791337E+01 -0.14513303222E+02  0.33869925623E+02  0.36884996170E+02  0.00000000000E+00 0.  1.
        -13    1    3    3    0    0 -0.15608572927E+02  0.15954016161E+02 -0.56028017845E+02  0.60310007164E+02  0.00000000000E+00 0. -1.
         22    1    1    2    0    0  0.13966893793E+02 -0.14407129390E+01 -0.60200655816E+01  0.15277138659E+02  0.00000000000E+00 0. -1.
<mgrwt>
<rscale>  0 0.58734094E+02</rscale>
<asrwt>0</asrwt>
<pdfrwt beam="1">  1        2 0.10819254E-01 0.94635552E+02</pdfrwt>
<pdfrwt beam="2">  1       -2 0.64841527E-02 0.94635552E+02</pdfrwt>
<totfact> 0.65557080E+04</totfact>
</mgrwt>
</event>
<event>
 6    1  0.1723639E-002  0.1003826E+03  0.7546771E-02  0.1404908E+00
         -1   -1    0    0    0  501 -0.00000000000E+00  0.00000000000E+00  0.12389805609E+02  0.12389805609E+02  0.00000000000E+00 0.  1.
          1   -1    0    0  501    0  0.00000000000E+00 -0.00000000000E+00 -0.26583652756E+03  0.26583652756E+03  0.00000000000E+00 0. -1.
         23    2    1    2    0    0  0.40333453833E+01  0.10723378654E+02 -0.20260036678E+03  0.22610521884E+03  0.99726639582E+02 0.  0.
         11    1    3    3    0    0 -0.11536547309E+02  0.34974496140E+02 -0.21331696909E+02  0.42559941225E+02  0.00000000000E+00 0.  1.
        -11    1    3    3    0    0  0.15569892692E+02 -0.24251117487E+02 -0.18126866987E+03  0.18354527761E+03  0.00000000000E+00 0. -1.
         22    1    1    2    0    0 -0.40333453833E+01 -0.10723378654E+02 -0.50846355176E+02  0.52121114334E+02  0.00000000000E+00 0. -1.
<mgrwt>
<rscale>  0 0.58345823E+02</rscale>
<asrwt>0</asrwt>
<pdfrwt beam="1">  1        1 0.40897923E-01 0.10038258E+03</pdfrwt>
<pdfrwt beam="2">  1       -1 0.19061241E-02 0.10038258E+03</pdfrwt>
<totfact> 0.65970717E+04</totfact>
</mgrwt>
</event>
<event>
 6    1  0.1723639E-002  0.9278104E+02  0.7546771E-02  0.1369931E+00
          3   -1    0    0  501    0  0.00000000000E+00  0.00000000000E+00  0.18861255553E+02  0.18861255553E+02  0.00000000000E+00 0. -1.
         -3   -1    0    0    0  501 -0.00000000000E+00 -0.00000000000E+00 -0.21053732166E+03  0.21053732166E+03  0.00000000000E+00 0.  1.
         23    2    1    2    0    0 -0.21020319215E+02  0.14457429880E+02 -0.17731455649E+03  0.20012189610E+03  0.89204541681E+02 0.  0.
         13    1    3    3    0    0 -0.52880102662E+02  0.22885795867E+02 -0.90759173609E+02  0.10750484875E+03  0.00000000000E+00 0. -1.
        -13    1    3    3    0    0  0.31859783447E+02 -0.84283659870E+01 -0.86555382880E+02  0.92617047351E+02  0.00000000000E+00 0.  1.
         22    1    1    2    0    0  0.21020319215E+02 -0.14457429880E+02 -0.14361509620E+02  0.29276681117E+02  0.00000000000E+00 0.  1.
<mgrwt>
<rscale>  0 0.67186389E+02</rscale>
<asrwt>0</asrwt>
<pdfrwt beam="1">  1        3 0.29017314E-02 0.92781040E+02</pdfrwt>
<pdfrwt beam="2">  1       -3 0.32390359E-01 0.92781040E+02</pdfrwt>
<totfact> 0.10362367E+04</totfact>
</mgrwt>
</event>
<event>
 6    1  0.1723639E-002  0.9783809E+02  0.7546771E-02  0.1402032E+00
          2   -1    0    0  501    0  0.00000000000E+00  0.00000000000E+00  0.66682208567E+01  0.66682208567E+01  0.00000000000E+00 0. -1.
         -2   -1    0    0    0  501 -0.00000000000E+00 -0.00000000000E+00 -0.46442736553E+03  0.46442736553E+03  0.00000000000E+00 0.  1.
         23    2    1    2    0    0 -0.67746617637E+01  0.11033851048E+02 -0.38802209499E+03  0.40016676284E+03  0.96977574582E+02 0.  0.
         11    1    3    3    0    0  0.17135615310E+01  0.53504615026E+02 -0.18576161254E+03  0.19332112356E+03  0.00000000000E+00 0. -1.
        -11    1    3    3    0    0 -0.84882232947E+01 -0.42470763978E+02 -0.20226048245E+03  0.20684563928E+03  0.00000000000E+00 0.  1.
         22    1    1    2    0    0  0.67746617637E+01 -0.11033851048E+02 -0.69737049687E+02  0.70928823549E+02  0.00000000000E+00 0.  1.
<mgrwt>
<rscale>  0 0.59010433E+02</rscale>
<asrwt>0</asrwt>
<pdfrwt beam="1">  1        2 0.10258803E-02 0.97838090E+02</pdfrwt>
<pdfrwt beam="2">  1       -2 0.71450355E-01 0.97838090E+02</pdfrwt>
<totfact> 0.22440446E+04</totfact>
</mgrwt>
</event>
<event>
 6    1  0.1723639E-002  0.1299914E+03  0.7546771E-02  0.1244521E+00
         -2   -1    0    0    0  501 -0.00000000000E+00  0.00000000000E+00  0.28784492280E+02  0.28784492280E+02  0.00000000000E+00 0. -1.
          2   -1    0    0  501    0  0.00000000000E+00 -0.00000000000E+00 -0.59039202133E+03  0.59039202133E+03  0.00000000000E+00 0.  1.
         23    2    1    2    0    0  0.88022183211E+02 -0.25808115656E+02 -0.15472764290E+03  0.20208515032E+03  0.92107550910E+02 0.  0.
         13    1    3    3    0    0  0.10563216747E+03 -0.31509447441E+02 -0.12152145039E+03  0.16406847043E+03  0.00000000000E+00 0. -1.
        -13    1    3    3    0    0 -0.17609984261E+02  0.57013317844E+01 -0.33206192504E+02  0.38016679897E+02  0.00000000000E+00 0.  1.
         22    1    1    2    0    0 -0.88022183211E+02  0.25808115656E+02 -0.40687988616E+03  0.41709136329E+03  0.00000000000E+00 0.  1.
<mgrwt>
<rscale>  0 0.11914095E+03</rscale>
<asrwt>0</asrwt>
<pdfrwt beam="1">  1        2 0.90829537E-01 0.12999140E+03</pdfrwt>
<pdfrwt beam="2">  1       -2 0.44283837E-02 0.12999140E+03</pdfrwt>
<totfact> 0.11502111E+04</totfact>
</mgrwt>
</event>
<event>
 6    1  0.1723639E-002  0.9353004E+02  0.7546771E-02  0.1377962E+00
          1   -1    0    0  501    0  0.00000000000E+00  0.00000000000E+00  0.95397201458E+02  0.95397201458E+02  0.00000000000E+00 0. -1.
         -1   -1    0    0    0  501 -0.00000000000E+00 -0.00000000000E+00 -0.12093211955E+03  0.12093211955E+03  0.00000000000E+00 0.  1.
         23    2    1    2    0    0  0.34176352241E+01 -0.21551504540E+02 -0.10106958762E+03  0.13770595374E+03  0.90948999853E+02 0.  0.
         13    1    3    3    0    0 -0.15401460492E+02 -0.30047713096E+02 -0.11010617864E+03  0.11516701187E+03  0.00000000000E+00 0.  1.
        -13    1    3    3    0    0  0.18819095716E+02  0.84962085555E+01  0.90365910187E+01  0.22538941870E+02  0.00000000000E+00 0. -1.
         22    1    1    2    0    0 -0.34176352241E+01  0.21551504540E+02  0.75534669535E+02  0.78623367266E+02  0.00000000000E+00 0. -1.
<mgrwt>
<rscale>  0 0.65002646E+02</rscale>
<asrwt>0</asrwt>
<pdfrwt beam="1">  1        1 0.14676493E-01 0.93530039E+02</pdfrwt>
<pdfrwt beam="2">  1       -1 0.18604941E-01 0.93530039E+02</pdfrwt>
<totfact> 0.79697090E+03</totfact>
</mgrwt>
</event>
<event>
 6    1  0.1723639E-002  0.9367021E+02  0.7546771E-02  0.1393244E+00
          2   -1    0    0  501    0  0.00000000000E+00  0.00000000000E+00  0.12385129024E+03  0.12385129024E+03  0.00000000000E+00 0. -1.
         -2   -1    0    0    0  501 -0.00000000000E+00 -0.00000000000E+00 -0.26829838441E+02  0.26829838441E+02  0.00000000000E+00 0.  1.
         23    2    1    2    0    0  0.10872773945E+02  0.13023092611E+02  0.63663752259E+02  0.11325714876E+03  0.92121062953E+02 0.  0.
         11    1    3    3    0    0  0.47915172887E+02  0.76443870669E+01  0.57641648374E+02  0.75344940598E+02  0.00000000000E+00 0. -1.
        -11    1    3    3    0    0 -0.37042398942E+02  0.53787055446E+01  0.60221038845E+01  0.37912208164E+02  0.00000000000E+00 0.  1.
         22    1    1    2    0    0 -0.10872773945E+02 -0.13023092611E+02  0.33357699544E+02  0.37423979924E+02  0.00000000000E+00 0. -1.
<mgrwt>
<rscale>  0 0.61106991E+02</rscale>
<asrwt>0</asrwt>
<pdfrwt beam="1">  1        2 0.19054044E-01 0.93670211E+02</pdfrwt>
<pdfrwt beam="2">  1       -2 0.41276675E-02 0.93670211E+02</pdfrwt>
<totfact> 0.66407815E+04</totfact>
</mgrwt>
</event>
<event>
 6    1  0.1723639E-002  0.1009706E+03  0.7546771E-02  0.1327969E+00
         -2   -1    0    0    0  501 -0.00000000000E+00  0.00000000000E+00  0.10466639496E+03  0.10466639496E+03  0.00000000000E+00 0.  1.
          2   -1    0    0  501    0  0.00000000000E+00 -0.00000000000E+00 -0.77302170841E+02  0.77302170841E+02  0.00000000000E+00 0. -1.
         23    2    1    2    0    0 -0.37664190619E+02  0.15042546618E+02  0.70202251111E+02  0.12297732900E+03  0.92467280284E+02 0.  0.
         11    1    3    3    0    0 -0.41563357751E+02 -0.11901902090E+02  0.82470428172E+02  0.93115731774E+02  0.00000000000E+00 0.  1.
        -11    1    3    3    0    0  0.38991671327E+01  0.26944448707E+02 -0.12268177061E+02  0.29861597226E+02  0.00000000000E+00 0. -1.
         22    1    1    2    0    0  0.37664190619E+02 -0.15042546618E+02 -0.42838026988E+02  0.58991236806E+02  0.00000000000E+00 0. -1.
<mgrwt>
<rscale>  0 0.80382724E+02</rscale>
<asrwt>0</asrwt>
<pdfrwt beam="1">  1        2 0.11892642E-01 0.10097063E+03</pdfrwt>
<pdfrwt beam="2">  1       -2 0.16102522E-01 0.10097063E+03</pdfrwt>
<totfact> 0.14215401E+04</totfact>
</mgrwt>
</event>
<event>
 6    1  0.1723639E-002  0.9297443E+02  0.7546771E-02  0.1416906E+00
          2   -1    0    0  501    0  0.00000000000E+00  0.00000000000E+00  0.16173677634E+03  0.16173677634E+03  0.00000000000E+00 0. -1.
         -2   -1    0    0    0  501 -0.00000000000E+00 -0.00000000000E+00 -0.17573988014E+02  0.17573988014E+02  0.00000000000E+00 0.  1.
         23    2    1    2    0    0 -0.32516324080E+00  0.11955743615E+02  0.11563215921E+03  0.14837466353E+03  0.92201946820E+02 0.  0.
         13    1    3    3    0    0  0.32700371781E+01  0.52999762427E+01 -0.15666177584E+02  0.16858588654E+02  0.00000000000E+00 0.  1.
        -13    1    3    3    0    0 -0.35952004189E+01  0.66557673719E+01  0.13129833680E+03  0.13151607488E+03  0.00000000000E+00 0. -1.
         22    1    1    2    0    0  0.32516324080E+00 -0.11955743615E+02  0.28530629113E+02  0.30936100822E+02  0.00000000000E+00 0. -1.
<mgrwt>
<rscale>  0 0.55680988E+02</rscale>
<asrwt>0</asrwt>
<pdfrwt beam="1">  1        2 0.24882580E-01 0.92974429E+02</pdfrwt>
<pdfrwt beam="2">  1       -2 0.27036906E-02 0.92974429E+02</pdfrwt>
<totfact> 0.91603637E+04</totfact>
</mgrwt>
</event>
<event>
 6    1  0.1723639E-002  0.9355612E+02  0.7546771E-02  0.1375854E+00
         -2   -1    0    0    0  501 -0.00000000000E+00  0.00000000000E+00  0.44047962428E+02  0.44047962428E+02  0.00000000000E+00 0.  1.
          2   -1    0    0  501    0  0.00000000000E+00 -0.00000000000E+00 -0.79940786613E+02  0.79940786613E+02  0.00000000000E+00 0. -1.
         23    2    1    2    0    0 -0.21620210246E+02 -0.64731909244E+01 -0.18195837652E+02  0.95309156572E+02  0.90793232825E+02 0.  0.
         11    1    3    3    0    0 -0.17718767774E+01 -0.23017079885E+02 -0.49559583426E+02  0.54672459458E+02  0.00000000000E+00 0. -1.
        -11    1    3    3    0    0 -0.19848333469E+02  0.16543888961E+02  0.31363745774E+02  0.40636697115E+02  0.00000000000E+00 0.  1.
         22    1    1    2    0    0  0.21620210246E+02  0.64731909244E+01 -0.17696986533E+02  0.28679592469E+02  0.00000000000E+00 0. -1.
<mgrwt>
<rscale>  0 0.65566145E+02</rscale>
<asrwt>0</asrwt>
<pdfrwt beam="1">  1        2 0.12298582E-01 0.93556116E+02</pdfrwt>
<pdfrwt beam="2">  1       -2 0.67766097E-02 0.93556116E+02</pdfrwt>
<totfact> 0.52542344E+04</totfact>
</mgrwt>
</event>
<event>
 6    1  0.1723639E-002  0.9228369E+02  0.7546771E-02  0.1409192E+00
          4   -1    0    0  501    0  0.00000000000E+00  0.00000000000E+00  0.42345289054E+02  0.42345289054E+02  0.00000000000E+00 0. -1.
         -4   -1    0    0    0  501 -0.00000000000E+00 -0.00000000000E+00 -0.67388305515E+02  0.67388305515E+02  0.00000000000E+00 0.  1.
         23    2    1    2    0    0 -0.49256739323E+01  0.12878082748E+02 -0.26104747983E+02  0.95904836390E+02  0.91247862971E+02 0.  0.
         11    1    3    3    0    0 -0.49072124537E+01 -0.27909336590E+02  0.19745428062E+02  0.34538293709E+02  0.00000000000E+00 0. -1.
        -11    1    3    3    0    0 -0.18461478656E-01  0.40787419339E+02 -0.45850176045E+02  0.61366542680E+02  0.00000000000E+00 0.  1.
         22    1    1    2    0    0  0.49256739323E+01 -0.12878082748E+02  0.10617315220E+01  0.13828758180E+02  0.00000000000E+00 0. -1.
<mgrwt>
<rscale>  0 0.57374454E+02</rscale>
<asrwt>0</asrwt>
<pdfrwt beam="1">  1        4 0.65146599E-02 0.92283692E+02</pdfrwt>
<pdfrwt beam="2">  1       -4 0.10367432E-01 0.92283692E+02</pdfrwt>
<totfact> 0.16038034E+04</totfact>
</mgrwt>
</event>
<event>
 6    1  0.1723639E-002  0.8937088E+02  0.7546771E-02  0.1423368E+00
          2   -1    0    0  501    0  0.00000000000E+00  0.00000000000E+00  0.22403780240E+02  0.22403780240E+02  0.00000000000E+00 0. -1.
         -2   -1    0    0    0  501 -0.00000000000E+00 -0.00000000000E+00 -0.11594653527E+03  0.11594653527E+03  0.00000000000E+00 0.  1.
         23    2    1    2    0    0 -0.10745467801E+02 -0.57606033880E+01 -0.85907159061E+02  0.12396449070E+03  0.88535333890E+02 0.  0.
         11    1    3    3    0    0 -0.39323735969E+02 -0.31070181916E+02 -0.39106029161E+02  0.63568812570E+02  0.00000000000E+00 0. -1.
        -11    1    3    3    0    0  0.28578268168E+02  0.25309578528E+02 -0.46801129901E+02  0.60395678130E+02  0.00000000000E+00 0.  1.
         22    1    1    2    0    0  0.10745467801E+02  0.57606033880E+01 -0.76355959694E+01  0.14385824810E+02  0.00000000000E+00 0.  1.
<mgrwt>
<rscale>  0 0.54314717E+02</rscale>
<asrwt>0</asrwt>
<pdfrwt beam="1">  1        2 0.34467354E-02 0.89370884E+02</pdfrwt>
<pdfrwt beam="2">  1       -2 0.17837929E-01 0.89370884E+02</pdfrwt>
<totfact> 0.56552422E+04</totfact>
</mgrwt>
</event>
<event>
 6    1  0.1723639E-002  0.9616737E+02  0.7546771E-02  0.1355427E+00
          2   -1    0    0  501    0  0.00000000000E+00  0.00000000000E+00  0.89022116732E+02  0.89022116732E+02  0.00000000000E+00 0. -1.
         -2   -1    0    0    0  501 -0.00000000000E+00 -0.00000000000E+00 -0.45181626848E+02  0.45181626848E+02  0.00000000000E+00 0.  1.
         23    2    1    2    0    0  0.13704879166E+02 -0.25791806173E+02  0.24716358437E+02  0.99292808586E+02  0.91624901003E+02 0.  0.
         13    1    3    3    0    0 -0.19261348256E+02 -0.36809413628E+02  0.43192028891E+02  0.59928989879E+02  0.00000000000E+00 0. -1.
        -13    1    3    3    0    0  0.32966227422E+02  0.11017607455E+02 -0.18475670454E+02  0.39363818706E+02  0.00000000000E+00 0.  1.
         22    1    1    2    0    0 -0.13704879166E+02  0.25791806173E+02  0.19124131446E+02  0.34910934995E+02  0.00000000000E+00 0. -1.
<mgrwt>
<rscale>  0 0.71390767E+02</rscale>
<asrwt>0</asrwt>
<pdfrwt beam="1">  1        2 0.13695710E-01 0.96167372E+02</pdfrwt>
<pdfrwt beam="2">  1       -2 0.69510195E-02 0.96167372E+02</pdfrwt>
<totfact> 0.44703696E+04</totfact>
</mgrwt>
</event>
<event>
 6    1  0.1723639E-002  0.9426507E+02  0.7546771E-02  0.1371455E+00
         -2   -1    0    0    0  501 -0.00000000000E+00  0.00000000000E+00  0.81110923161E+02  0.81110923161E+02  0.00000000000E+00 0. -1.
          2   -1    0    0  501    0  0.00000000000E+00 -0.00000000000E+00 -0.42906289295E+02  0.42906289295E+02  0.00000000000E+00 0.  1.
         23    2    1    2    0    0 -0.14579298236E+02  0.18711518046E+02  0.30556972350E+02  0.99094059137E+02  0.91231722293E+02 0.  0.
         13    1    3    3    0    0 -0.49778921378E+02  0.24200425122E+02  0.56749266471E+01  0.55639971083E+02  0.00000000000E+00 0.  1.
        -13    1    3    3    0    0  0.35199623143E+02 -0.54889070756E+01  0.24882045702E+02  0.43454088054E+02  0.00000000000E+00 0. -1.
         22    1    1    2    0    0  0.14579298236E+02 -0.18711518046E+02  0.76476615167E+01  0.24923153318E+02  0.00000000000E+00 0.  1.
<mgrwt>
<rscale>  0 0.66764482E+02</rscale>
<asrwt>0</asrwt>
<pdfrwt beam="1">  1        2 0.66009676E-02 0.94265073E+02</pdfrwt>
<pdfrwt beam="2">  1       -2 0.12478603E-01 0.94265073E+02</pdfrwt>
<totfact> 0.43847611E+04</totfact>
</mgrwt>
</event>
<event>
 6    1  0.1723639E-002  0.9835597E+02  0.7546771E-02  0.1329705E+00
         -1   -1    0    0    0  501 -0.00000000000E+00  0.00000000000E+00  0.10903055406E+03  0.10903055406E+03  0.00000000000E+00 0.  1.
          1   -1    0    0  501    0  0.00000000000E+00 -0.00000000000E+00 -0.45914871051E+02  0.45914871051E+02  0.00000000000E+00 0. -1.
         23    2    1    2    0    0 -0.40756112581E+02  0.12243976329E+02  0.50479125156E+02  0.11055332826E+03  0.88673111162E+02 0.  0.
         11    1    3    3    0    0  0.24894061914E+02  0.15103008621E+02  0.25699469155E+01  0.29230460399E+02  0.00000000000E+00 0.  1.
        -11    1    3    3    0    0 -0.65650174495E+02 -0.28590322922E+01  0.47909178240E+02  0.81322867857E+02  0.00000000000E+00 0. -1.
         22    1    1    2    0    0  0.40756112581E+02 -0.12243976329E+02  0.12636557858E+02  0.44392096859E+02  0.00000000000E+00 0.  1.
<mgrwt>
<rscale>  0 0.79770004E+02</rscale>
<asrwt>0</asrwt>
<pdfrwt beam="1">  1        1 0.70638263E-02 0.98355967E+02</pdfrwt>
<pdfrwt beam="2">  1       -1 0.16773931E-01 0.98355967E+02</pdfrwt>
<totfact> 0.24574312E+04</totfact>
</mgrwt>
</event>
<event>
 6    1  0.1723639E-002  0.9196888E+02  0.7546771E-02  0.1404994E+00
          1   -1    0    0  501    0  0.00000000000E+00  0.00000000000E+00  0.20441470042E+02  0.20441470042E+02  0.00000000000E+00 0. -1.
         -1   -1    0    0    0  501 -0.00000000000E+00 -0.00000000000E+00 -0.14097590225E+03  0.14097590225E+03  0.00000000000E+00 0.  1.
         23    2    1    2    0    0  0.92671173083E+01  0.11638549511E+02 -0.10884268130E+03  0.14249562984E+03  0.90757588965E+02 0.  0.
         13    1    3    3    0    0 -0.25811883211E+02  0.26893365655E+02 -0.13296348650E+02  0.39576499574E+02  0.00000000000E+00 0. -1.
        -13    1    3    3    0    0  0.35079000519E+02 -0.15254816144E+02 -0.95546332649E+02  0.10291913027E+03  0.00000000000E+00 0.  1.
         22    1    1    2    0    0 -0.92671173083E+01 -0.11638549511E+02 -0.11691750911E+02  0.18921742448E+02  0.00000000000E+00 0.  1.
<mgrwt>
<rscale>  0 0.58325976E+02</rscale>
<asrwt>0</asrwt>
<pdfrwt beam="1">  1        1 0.31448417E-02 0.91968882E+02</pdfrwt>
<pdfrwt beam="2">  1       -1 0.21688600E-01 0.91968882E+02</pdfrwt>
<totfact> 0.48504512E+04</totfact>
</mgrwt>
</event>
<event>
 6    1  0.1723639E-002  0.1289470E+03  0.7546771E-02  0.1245984E+00
         -1   -1    0    0    0  501 -0.00000000000E+00  0.00000000000E+00  0.61222946931E+03  0.61222946931E+03  0.00000000000E+00 0.  1.
          1   -1    0    0  501    0  0.00000000000E+00 -0.00000000000E+00 -0.23182824651E+02  0.23182824651E+02  0.00000000000E+00 0. -1.
         23    2    1    2    0    0 -0.67236789114E+02 -0.61687098920E+02  0.45744293083E+03  0.47526979031E+03  0.91111221191E+02 0.  0.
         11    1    3    3    0    0 -0.52925043487E+02  0.10731700433E+02  0.16292082936E+03  0.17163748501E+03  0.00000000000E+00 0. -1.
        -11    1    3    3    0    0 -0.14311745627E+02 -0.72418799353E+02  0.29452210148E+03  0.30363230530E+03  0.00000000000E+00 0.  1.
         22    1    1    2    0    0  0.67236789114E+02  0.61687098920E+02  0.13160371382E+03  0.16014250365E+03  0.00000000000E+00 0. -1.
<mgrwt>
<rscale>  0 0.11826701E+03</rscale>
<asrwt>0</asrwt>
<pdfrwt beam="1">  1        1 0.35665889E-02 0.12894704E+03</pdfrwt>
<pdfrwt beam="2">  1       -1 0.94189137E-01 0.12894704E+03</pdfrwt>
<totfact> 0.29537965E+03</totfact>
</mgrwt>
</event>
<event>
 6    1  0.1723639E-002  0.9402715E+02  0.7546771E-02  0.1370449E+00
          2   -1    0    0  501    0  0.00000000000E+00  0.00000000000E+00  0.14744628921E+03  0.14744628921E+03  0.00000000000E+00 0.  1.
         -2   -1    0    0    0  501 -0.00000000000E+00 -0.00000000000E+00 -0.24989389868E+02  0.24989389868E+02  0.00000000000E+00 0. -1.
         23    2    1    2    0    0  0.29281591482E+01  0.24125082040E+02  0.79725835771E+02  0.12327738890E+03  0.90832329184E+02 0.  0.
         11    1    3    3    0    0 -0.23839912270E+02  0.50847204645E+02  0.45755226432E+02  0.72438390258E+02  0.00000000000E+00 0.  1.
        -11    1    3    3    0    0  0.26768071418E+02 -0.26722122605E+02  0.33970609340E+02  0.50838998642E+02  0.00000000000E+00 0. -1.
         22    1    1    2    0    0 -0.29281591482E+01 -0.24125082040E+02  0.42731063566E+02  0.49158290175E+02  0.00000000000E+00 0. -1.
<mgrwt>
<rscale>  0 0.67042634E+02</rscale>
<asrwt>0</asrwt>
<pdfrwt beam="1">  1        2 0.22684044E-01 0.94027154E+02</pdfrwt>
<pdfrwt beam="2">  1       -2 0.38445216E-02 0.94027154E+02</pdfrwt>
<totfact> 0.60754213E+04</totfact>
</mgrwt>
</event>
<event>
 6    1  0.1723639E-002  0.9308257E+02  0.7546771E-02  0.1375803E+00
         -3   -1    0    0    0  501 -0.00000000000E+00  0.00000000000E+00  0.21938228350E+04  0.21938228350E+04  0.00000000000E+00 0.  1.
          3   -1    0    0  501    0  0.00000000000E+00 -0.00000000000E+00 -0.40533293150E+01  0.40533293150E+01  0.00000000000E+00 0. -1.
         23    2    1    2    0    0  0.22828817645E+02 -0.21933407708E+01  0.21496492659E+04  0.21516636195E+04  0.90213077903E+02 0.  0.
         11    1    3    3    0    0 -0.21592067977E+02 -0.66504229550E+01  0.16809726866E+03  0.16960877706E+03  0.00000000000E+00 0. -1.
        -11    1    3    3    0    0  0.44420885622E+02  0.44570821842E+01  0.19815519972E+04  0.19820548424E+04  0.00000000000E+00 0.  1.
         22    1    1    2    0    0 -0.22828817645E+02  0.21933407708E+01  0.40120239842E+02  0.46212544875E+02  0.00000000000E+00 0. -1.
<mgrwt>
<rscale>  0 0.65579931E+02</rscale>
<asrwt>0</asrwt>
<pdfrwt beam="1">  1        3 0.62359088E-03 0.93082571E+02</pdfrwt>
<pdfrwt beam="2">  1       -3 0.33751026E+00 0.93082571E+02</pdfrwt>
<totfact> 0.35429262E+02</totfact>
</mgrwt>
</event>
<event>
 6    1  0.1723639E-002  0.9273597E+02  0.7546771E-02  0.1428734E+00
         -1   -1    0    0    0  501 -0.00000000000E+00  0.00000000000E+00  0.23656923864E+03  0.23656923864E+03  0.00000000000E+00 0.  1.
          1   -1    0    0  501    0  0.00000000000E+00 -0.00000000000E+00 -0.13566468386E+02  0.13566468386E+02  0.00000000000E+00 0. -1.
         23    2    1    2    0    0  0.41091909139E+01  0.91772132920E+01  0.22128976116E+03  0.23993565340E+03  0.92189222162E+02 0.  0.
         11    1    3    3    0    0 -0.69797903000E+01 -0.39466436714E+02  0.70370531764E+02  0.80983509681E+02  0.00000000000E+00 0. -1.
        -11    1    3    3    0    0  0.11088981214E+02  0.48643650006E+02  0.15091922940E+03  0.15895214372E+03  0.00000000000E+00 0.  1.
         22    1    1    2    0    0 -0.41091909139E+01 -0.91772132920E+01  0.17130090871E+01  0.10200053623E+02  0.00000000000E+00 0. -1.
<mgrwt>
<rscale>  0 0.53214948E+02</rscale>
<asrwt>0</asrwt>
<pdfrwt beam="1">  1        1 0.20871491E-02 0.92735966E+02</pdfrwt>
<pdfrwt beam="2">  1       -1 0.36395265E-01 0.92735966E+02</pdfrwt>
<totfact> 0.36284040E+04</totfact>
</mgrwt>
</event>
<event>
 6    1  0.1723639E-002  0.9233908E+02  0.7546771E-02  0.1410409E+00
         -2   -1    0    0    0  501 -0.00000000000E+00  0.00000000000E+00  0.10722520071E+04  0.10722520071E+04  0.00000000000E+00 0.  1.
          2   -1    0    0  501    0  0.00000000000E+00 -0.00000000000E+00 -0.38904998466E+01  0.38904998466E+01  0.00000000000E+00 0. -1.
         23    2    1    2    0    0 -0.79918009282E+01  0.10885490615E+02  0.10456520840E+04  0.10497212902E+04  0.91346284096E+02 0.  0.
         13    1    3    3    0    0 -0.33579490873E+02  0.39147031583E+02  0.47355634306E+03  0.47635667555E+03  0.00000000000E+00 0. -1.
        -13    1    3    3    0    0  0.25587689945E+02 -0.28261540968E+02  0.57209574095E+03  0.57336461469E+03  0.00000000000E+00 0.  1.
         22    1    1    2    0    0  0.79918009282E+01 -0.10885490615E+02  0.22709423276E+02  0.26421216731E+02  0.00000000000E+00 0. -1.
<mgrwt>
<rscale>  0 0.57102642E+02</rscale>
<asrwt>0</asrwt>
<pdfrwt beam="1">  1        2 0.59853929E-03 0.92339084E+02</pdfrwt>
<pdfrwt beam="2">  1       -2 0.16496161E+00 0.92339084E+02</pdfrwt>
<totfact> 0.65892377E+03</totfact>
</mgrwt>
</event>
<event>
 6    1  0.1723639E-002  0.9432417E+02  0.7546771E-02  0.1409096E+00
          4   -1    0    0  501    0  0.00000000000E+00  0.00000000000E+00  0.21957392666E+02  0.21957392666E+02  0.00000000000E+00 0. -1.
         -4   -1    0    0    0  501 -0.00000000000E+00 -0.00000000000E+00 -0.13895974984E+03  0.13895974984E+03  0.00000000000E+00 0.  1.
         23    2    1    2    0    0  0.71035649536E+01  0.10806065555E+02 -0.11338348199E+03  0.14748851840E+03  0.93433491761E+02 0.  0.
         13    1    3    3    0    0  0.10056413737E+02 -0.10894957059E+02  0.12696765950E+02  0.19520230843E+02  0.00000000000E+00 0. -1.
        -13    1    3    3    0    0 -0.29528487830E+01  0.21701022614E+02 -0.12608024794E+03  0.12796828756E+03  0.00000000000E+00 0.  1.
         22    1    1    2    0    0 -0.71035649536E+01 -0.10806065555E+02 -0.36188751793E+01  0.13428624106E+02  0.00000000000E+00 0.  1.
<mgrwt>
<rscale>  0 0.57396058E+02</rscale>
<asrwt>0</asrwt>
<pdfrwt beam="1">  1        4 0.33780604E-02 0.94324170E+02</pdfrwt>
<pdfrwt beam="2">  1       -4 0.21378423E-01 0.94324170E+02</pdfrwt>
<totfact> 0.13088791E+04</totfact>
</mgrwt>
</event>
<event>
 6    1  0.1723639E-002  0.9158541E+02  0.7546771E-02  0.1429728E+00
          1   -1    0    0  501    0  0.00000000000E+00  0.00000000000E+00  0.22129152656E+03  0.22129152656E+03  0.00000000000E+00 0. -1.
         -1   -1    0    0    0  501 -0.00000000000E+00 -0.00000000000E+00 -0.12152530393E+02  0.12152530393E+02  0.00000000000E+00 0.  1.
         23    2    1    2    0    0  0.94386373726E+01 -0.40796975200E+01  0.17146118384E+03  0.19438833587E+03  0.91006350066E+02 0.  0.
         11    1    3    3    0    0  0.65434911622E+01  0.63305329031E+01  0.18023786413E+03  0.18046767187E+03  0.00000000000E+00 0. -1.
        -11    1    3    3    0    0  0.28951462105E+01 -0.10410230423E+02 -0.87766802987E+01  0.13920663997E+02  0.00000000000E+00 0.  1.
         22    1    1    2    0    0 -0.94386373726E+01  0.40796975200E+01  0.37677812327E+02  0.39055721080E+02  0.00000000000E+00 0.  1.
<mgrwt>
<rscale>  0 0.53014593E+02</rscale>
<asrwt>0</asrwt>
<pdfrwt beam="1">  1        1 0.34044847E-01 0.91585411E+02</pdfrwt>
<pdfrwt beam="2">  1       -1 0.18696202E-02 0.91585411E+02</pdfrwt>
<totfact> 0.83771535E+04</totfact>
</mgrwt>
</event>
<event>
 6    1  0.1723639E-002  0.1025596E+03  0.7546771E-02  0.1364671E+00
         -2   -1    0    0    0  501 -0.00000000000E+00  0.00000000000E+00  0.14223342528E+02  0.14223342528E+02  0.00000000000E+00 0.  1.
          2   -1    0    0  501    0  0.00000000000E+00 -0.00000000000E+00 -0.32023592319E+03  0.32023592319E+03  0.00000000000E+00 0. -1.
         23    2    1    2    0    0 -0.35023549566E+01  0.20314750466E+02 -0.18342448109E+03  0.21014998315E+03  0.10046650973E+03 0.  0.
         11    1    3    3    0    0 -0.48670423015E+02  0.26726596093E+02 -0.11774734285E+03  0.13018278598E+03  0.00000000000E+00 0. -1.
        -11    1    3    3    0    0  0.45168068059E+02 -0.64118456264E+01 -0.65677138239E+02  0.79967197173E+02  0.00000000000E+00 0.  1.
         22    1    1    2    0    0  0.35023549566E+01 -0.20314750466E+02 -0.12258809957E+03  0.12430928257E+03  0.00000000000E+00 0. -1.
<mgrwt>
<rscale>  0 0.68671295E+02</rscale>
<asrwt>0</asrwt>
<pdfrwt beam="1">  1        2 0.49267062E-01 0.10255962E+03</pdfrwt>
<pdfrwt beam="2">  1       -2 0.21882067E-02 0.10255962E+03</pdfrwt>
<totfact> 0.61033026E+04</totfact>
</mgrwt>
</event>
<event>
 6    1  0.1723639E-002  0.1014469E+03  0.7546771E-02  0.1325967E+00
         -2   -1    0    0    0  501 -0.00000000000E+00  0.00000000000E+00  0.19592472149E+02  0.19592472149E+02  0.00000000000E+00 0. -1.
          2   -1    0    0  501    0  0.00000000000E+00 -0.00000000000E+00 -0.26281197505E+03  0.26281197505E+03  0.00000000000E+00 0.  1.
         23    2    1    2    0    0 -0.41144338620E+02  0.48437545422E+01 -0.18433597809E+03  0.21040730800E+03  0.92602180771E+02 0.  0.
         11    1    3    3    0    0 -0.67675040222E+02  0.19147618188E+02 -0.14168720998E+03  0.15818283037E+03  0.00000000000E+00 0.  1.
        -11    1    3    3    0    0  0.26530701602E+02 -0.14303863645E+02 -0.42648768101E+02  0.52224477625E+02  0.00000000000E+00 0. -1.
         22    1    1    2    0    0  0.41144338620E+02 -0.48437545422E+01 -0.58883524820E+02  0.71997139206E+02  0.00000000000E+00 0. -1.
<mgrwt>
<rscale>  0 0.81096846E+02</rscale>
<asrwt>0</asrwt>
<pdfrwt beam="1">  1        2 0.40432610E-01 0.10144694E+03</pdfrwt>
<pdfrwt beam="2">  1       -2 0.30142266E-02 0.10144694E+03</pdfrwt>
<totfact> 0.47116933E+04</totfact>
</mgrwt>
</event>
<event>
 6    1  0.1723639E-002  0.8890725E+02  0.7546771E-02  0.1400392E+00
          4   -1    0    0  501    0  0.00000000000E+00  0.00000000000E+00  0.32747675897E+02  0.32747675897E+02  0.00000000000E+00 0. -1.
         -4   -1    0    0    0  501 -0.00000000000E+00 -0.00000000000E+00 -0.88979227676E+02  0.88979227676E+02  0.00000000000E+00 0.  1.
         23    2    1    2    0    0  0.17640019092E+02 -0.15486136758E+01 -0.53627098698E+02  0.10382853343E+03  0.87125944252E+02 0.  0.
         11    1    3    3    0    0 -0.29824232710E+02  0.18765763482E+02 -0.11111679035E+02  0.36947369958E+02  0.00000000000E+00 0. -1.
        -11    1    3    3    0    0  0.47464251802E+02 -0.20314377158E+02 -0.42515419662E+02  0.66881163473E+02  0.00000000000E+00 0.  1.
         22    1    1    2    0    0 -0.17640019092E+02  0.15486136758E+01 -0.26044530813E+01  0.17898370142E+02  0.00000000000E+00 0. -1.
<mgrwt>
<rscale>  0 0.59394253E+02</rscale>
<asrwt>0</asrwt>
<pdfrwt beam="1">  1        4 0.50381040E-02 0.88907247E+02</pdfrwt>
<pdfrwt beam="2">  1       -4 0.13689112E-01 0.88907247E+02</pdfrwt>
<totfact> 0.14958261E+04</totfact>
</mgrwt>
</event>
<event>
 6    1  0.1723639E-002  0.9312596E+02  0.7546771E-02  0.1400412E+00
         -1   -1    0    0    0  501 -0.00000000000E+00  0.00000000000E+00  0.10698052425E+02  0.10698052425E+02  0.00000000000E+00 0.  1.
          1   -1    0    0  501    0  0.00000000000E+00 -0.00000000000E+00 -0.27917849538E+03  0.27917849538E+03  0.00000000000E+00 0. -1.
         23    2    1    2    0    0  0.15126247533E+02  0.29099433774E+01 -0.21693859710E+03  0.23608218928E+03  0.91843203611E+02 0.  0.
         11    1    3    3    0    0 -0.82675653648E+01  0.41856501794E+02 -0.14366657242E+03  0.14986795325E+03  0.00000000000E+00 0.  1.
        -11    1    3    3    0    0  0.23393812898E+02 -0.38946558417E+02 -0.73272024684E+02  0.86214236038E+02  0.00000000000E+00 0. -1.
         22    1    1    2    0    0 -0.15126247533E+02 -0.29099433774E+01 -0.51541845848E+02  0.53794358518E+02  0.00000000000E+00 0. -1.
<mgrwt>
<rscale>  0 0.59389367E+02</rscale>
<asrwt>0</asrwt>
<pdfrwt beam="1">  1        1 0.42950532E-01 0.93125964E+02</pdfrwt>
<pdfrwt beam="2">  1       -1 0.16458544E-02 0.93125964E+02</pdfrwt>
<totfact> 0.75809704E+04</totfact>
</mgrwt>
</event>
<event>
 6    1  0.1723639E-002  0.9912788E+02  0.7546771E-02  0.1346193E+00
          1   -1    0    0  501    0  0.00000000000E+00  0.00000000000E+00  0.10664637587E+03  0.10664637587E+03  0.00000000000E+00 0. -1.
         -1   -1    0    0    0  501 -0.00000000000E+00 -0.00000000000E+00 -0.70162286837E+02  0.70162286837E+02  0.00000000000E+00 0.  1.
         23    2    1    2    0    0 -0.25390378263E+02 -0.18152191051E+02 -0.29828026699E+02  0.10351834929E+03  0.94085940043E+02 0.  0.
         13    1    3    3    0    0 -0.32317438935E+02  0.31842810113E+02 -0.97315200233E+00  0.45379824152E+02  0.00000000000E+00 0. -1.
        -13    1    3    3    0    0  0.69270606719E+01 -0.49995001165E+02 -0.28854874697E+02  0.58138525134E+02  0.00000000000E+00 0.  1.
         22    1    1    2    0    0  0.25390378263E+02  0.18152191051E+02  0.66312115733E+02  0.73290313421E+02  0.00000000000E+00 0. -1.
<mgrwt>
<rscale>  0 0.74255121E+02</rscale>
<asrwt>0</asrwt>
<pdfrwt beam="1">  1        1 0.16407135E-01 0.99127884E+02</pdfrwt>
<pdfrwt beam="2">  1       -1 0.10794198E-01 0.99127884E+02</pdfrwt>
<totfact> 0.16136067E+04</totfact>
</mgrwt>
</event>
<event>
 6    1  0.1723639E-002  0.1011415E+03  0.7546771E-02  0.1379702E+00
          2   -1    0    0  501    0  0.00000000000E+00  0.00000000000E+00  0.11068052705E+02  0.11068052705E+02  0.00000000000E+00 0. -1.
         -2   -1    0    0    0  501 -0.00000000000E+00 -0.00000000000E+00 -0.39823855024E+03  0.39823855024E+03  0.00000000000E+00 0.  1.
         23    2    1    2    0    0 -0.13696905150E+02 -0.96797960108E+01 -0.37547679217E+03  0.38886041977E+03  0.99741169728E+02 0.  0.
         11    1    3    3    0    0 -0.10382468504E+02  0.34380873285E+02 -0.29389766553E+03  0.29608390349E+03  0.00000000000E+00 0.  1.
        -11    1    3    3    0    0 -0.33144366454E+01 -0.44060669296E+02 -0.81579126641E+02  0.92776516277E+02  0.00000000000E+00 0. -1.
         22    1    1    2    0    0  0.13696905150E+02  0.96797960108E+01 -0.11693705364E+02  0.20446183180E+02  0.00000000000E+00 0. -1.
<mgrwt>
<rscale>  0 0.64542234E+02</rscale>
<asrwt>0</asrwt>
<pdfrwt beam="1">  1        2 0.17027773E-02 0.10114151E+03</pdfrwt>
<pdfrwt beam="2">  1       -2 0.61267472E-01 0.10114151E+03</pdfrwt>
<totfact> 0.15546719E+04</totfact>
</mgrwt>
</event>
<event>
 6    1  0.1723639E-002  0.9751922E+02  0.7546771E-02  0.1347411E+00
         -2   -1    0    0    0  501 -0.00000000000E+00  0.00000000000E+00  0.18394928670E+02  0.18394928670E+02  0.00000000000E+00 0.  1.
          2   -1    0    0  501    0  0.00000000000E+00 -0.00000000000E+00 -0.31325737000E+03  0.31325737000E+03  0.00000000000E+00 0. -1.
         23    2    1    2    0    0 -0.22671735540E+02  0.22731142650E+02 -0.12376227744E+03  0.15756617480E+03  0.92083036914E+02 0.  0.
         13    1    3    3    0    0 -0.44309042370E+02  0.31779338134E+02 -0.32806914081E+02  0.63635769654E+02  0.00000000000E+00 0.  1.
        -13    1    3    3    0    0  0.21637306830E+02 -0.90481954840E+01 -0.90955363356E+02  0.93930405150E+02  0.00000000000E+00 0. -1.
         22    1    1    2    0    0  0.22671735540E+02 -0.22731142650E+02 -0.17110016389E+03  0.17408612386E+03  0.00000000000E+00 0. -1.
<mgrwt>
<rscale>  0 0.73868597E+02</rscale>
<asrwt>0</asrwt>
<pdfrwt beam="1">  1        2 0.48193441E-01 0.97519219E+02</pdfrwt>
<pdfrwt beam="2">  1       -2 0.28299891E-02 0.97519219E+02</pdfrwt>
<totfact> 0.42752372E+04</totfact>
</mgrwt>
</event>
<event>
 6    1  0.1723639E-002  0.9455738E+02  0.7546771E-02  0.1372901E+00
         -2   -1    0    0    0  501 -0.00000000000E+00  0.00000000000E+00  0.11203128991E+02  0.11203128991E+02  0.00000000000E+00 0.  1.
          2   -1    0    0  501    0  0.00000000000E+00 -0.00000000000E+00 -0.30951754072E+03  0.30951754072E+03  0.00000000000E+00 0. -1.
         23    2    1    2    0    0  0.33326708327E+01  0.22703946170E+02 -0.23106990691E+03  0.24966858110E+03  0.91730707214E+02 0.  0.
         13    1    3    3    0    0  0.10931879066E+02 -0.58085998317E+01 -0.21633029556E+03  0.21668420013E+03  0.00000000000E+00 0. -1.
        -13    1    3    3    0    0 -0.75992082336E+01  0.28512546001E+02 -0.14739611351E+02  0.32984380971E+02  0.00000000000E+00 0.  1.
         22    1    1    2    0    0 -0.33326708327E+01 -0.22703946170E+02 -0.67244504826E+02  0.71052088610E+02  0.00000000000E+00 0. -1.
<mgrwt>
<rscale>  0 0.66367308E+02</rscale>
<asrwt>0</asrwt>
<pdfrwt beam="1">  1        2 0.47618084E-01 0.94557382E+02</pdfrwt>
<pdfrwt beam="2">  1       -2 0.17235583E-02 0.94557382E+02</pdfrwt>
<totfact> 0.88172664E+04</totfact>
</mgrwt>
</event>
<event>
 6    1  0.1723639E-002  0.9306698E+02  0.7546771E-02  0.1383285E+00
         -1   -1    0    0    0  501 -0.00000000000E+00  0.00000000000E+00  0.61206443916E+03  0.61206443916E+03  0.00000000000E+00 0.  1.
          1   -1    0    0  501    0  0.00000000000E+00 -0.00000000000E+00 -0.32382522816E+02  0.32382522816E+02  0.00000000000E+00 0. -1.
         23    2    1    2    0    0  0.30845525013E+01 -0.20072148018E+02  0.60492889714E+03  0.61204610350E+03  0.90824317377E+02 0.  0.
         13    1    3    3    0    0 -0.16358429045E+01 -0.31432848531E+02  0.67515320056E+02  0.74491733710E+02  0.00000000000E+00 0. -1.
        -13    1    3    3    0    0  0.47203954057E+01  0.11360700513E+02  0.53741357708E+03  0.53755436979E+03  0.00000000000E+00 0.  1.
         22    1    1    2    0    0 -0.30845525013E+01  0.20072148018E+02 -0.25246980799E+02  0.32400858471E+02  0.00000000000E+00 0. -1.
<mgrwt>
<rscale>  0 0.63608078E+02</rscale>
<asrwt>0</asrwt>
<pdfrwt beam="1">  1        1 0.49819271E-02 0.93066977E+02</pdfrwt>
<pdfrwt beam="2">  1       -1 0.94163751E-01 0.93066977E+02</pdfrwt>
<totfact> 0.18385422E+03</totfact>
</mgrwt>
</event>
<event>
 6    1  0.1723639E-002  0.9286614E+02  0.7546771E-02  0.1392102E+00
          2   -1    0    0  501    0  0.00000000000E+00  0.00000000000E+00  0.52076351399E+03  0.52076351399E+03  0.00000000000E+00 0.  1.
         -2   -1    0    0    0  501 -0.00000000000E+00 -0.00000000000E+00 -0.71903006579E+01  0.71903006579E+01  0.00000000000E+00 0. -1.
         23    2    1    2    0    0  0.17028416492E+02  0.49419251101E+01  0.48847468741E+03  0.49722393350E+03  0.91157721617E+02 0.  0.
         13    1    3    3    0    0 -0.30856025085E+02  0.25486172538E+02  0.24376594763E+03  0.24702930291E+03  0.00000000000E+00 0. -1.
        -13    1    3    3    0    0  0.47884441578E+02 -0.20544247428E+02  0.24470873978E+03  0.25019463059E+03  0.00000000000E+00 0.  1.
         22    1    1    2    0    0 -0.17028416492E+02 -0.49419251101E+01  0.25098525919E+02  0.30729881148E+02  0.00000000000E+00 0. -1.
<mgrwt>
<rscale>  0 0.61387022E+02</rscale>
<asrwt>0</asrwt>
<pdfrwt beam="1">  1        2 0.80117434E-01 0.92866139E+02</pdfrwt>
<pdfrwt beam="2">  1       -2 0.11062005E-02 0.92866139E+02</pdfrwt>
<totfact> 0.95365435E+04</totfact>
</mgrwt>
</event>
<event>
 6    1  0.1723639E-002  0.1025646E+03  0.7546771E-02  0.1322805E+00
         -2   -1    0    0    0  501 -0.00000000000E+00  0.00000000000E+00  0.30893160994E+02  0.30893160994E+02  0.00000000000E+00 0. -1.
          2   -1    0    0  501    0  0.00000000000E+00 -0.00000000000E+00 -0.31094081448E+03  0.31094081448E+03  0.00000000000E+00 0.  1.
         23    2    1    2    0    0  0.39803380086E+02  0.14617496485E+02 -0.62315434635E+02  0.12001129991E+03  0.93389070249E+02 0.  0.
         11    1    3    3    0    0  0.34413640564E+02 -0.36501116909E+02 -0.39130079850E+02  0.63622270798E+02  0.00000000000E+00 0.  1.
        -11    1    3    3    0    0  0.53897395220E+01  0.51118613394E+02 -0.23185354785E+02  0.56389029110E+02  0.00000000000E+00 0. -1.
         22    1    1    2    0    0 -0.39803380086E+02 -0.14617496485E+02 -0.21773221885E+03  0.22182267556E+03  0.00000000000E+00 0.  1.
<mgrwt>
<rscale>  0 0.82242491E+02</rscale>
<asrwt>0</asrwt>
<pdfrwt beam="1">  1        2 0.47837049E-01 0.10256461E+03</pdfrwt>
<pdfrwt beam="2">  1       -2 0.47527940E-02 0.10256461E+03</pdfrwt>
<totfact> 0.20227433E+04</totfact>
</mgrwt>
</event>
<event>
 6    1  0.1723639E-002  0.9440171E+02  0.7546771E-02  0.1358048E+00
         -2   -1    0    0    0  501 -0.00000000000E+00  0.00000000000E+00  0.28834280200E+03  0.28834280200E+03  0.00000000000E+00 0.  1.
          2   -1    0    0  501    0  0.00000000000E+00 -0.00000000000E+00 -0.13805086539E+02  0.13805086539E+02  0.00000000000E+00 0. -1.
         23    2    1    2    0    0 -0.22741288830E+02 -0.18852285497E+02  0.23089911216E+03  0.24945156434E+03  0.89661073318E+02 0.  0.
         11    1    3    3    0    0  0.90366934755E+01 -0.25300730194E+02  0.14292381739E+02  0.30431249614E+02  0.00000000000E+00 0. -1.
        -11    1    3    3    0    0 -0.31777982306E+02  0.64484446970E+01  0.21660673042E+03  0.21902031472E+03  0.00000000000E+00 0.  1.
         22    1    1    2    0    0  0.22741288830E+02  0.18852285497E+02  0.43638603303E+02  0.52696324202E+02  0.00000000000E+00 0. -1.
<mgrwt>
<rscale>  0 0.70604964E+02</rscale>
<asrwt>0</asrwt>
<pdfrwt beam="1">  1        2 0.21238597E-02 0.94401711E+02</pdfrwt>
<pdfrwt beam="2">  1       -2 0.44360427E-01 0.94401711E+02</pdfrwt>
<totfact> 0.21673425E+04</totfact>
</mgrwt>
</event>
<event>
 6    1  0.1723639E-002  0.8550477E+02  0.7546771E-02  0.1443560E+00
         -3   -1    0    0    0  501 -0.00000000000E+00  0.00000000000E+00  0.92394380005E+01  0.92394380005E+01  0.00000000000E+00 0.  1.
          3   -1    0    0  501    0  0.00000000000E+00 -0.00000000000E+00 -0.25095367651E+03  0.25095367651E+03  0.00000000000E+00 0. -1.
         23    2    1    2    0    0 -0.92105233489E+01 -0.45337820656E+01 -0.20620949351E+03  0.22323400417E+03  0.84886256138E+02 0.  0.
         13    1    3    3    0    0 -0.39134978552E+00  0.11132479785E+02  0.43130680719E+01  0.11945200585E+02  0.00000000000E+00 0.  1.
        -13    1    3    3    0    0 -0.88191735633E+01 -0.15666261851E+02 -0.21052256158E+03  0.21128880358E+03  0.00000000000E+00 0. -1.
         22    1    1    2    0    0  0.92105233489E+01  0.45337820656E+01 -0.35504745000E+02  0.36959110347E+02  0.00000000000E+00 0. -1.
<mgrwt>
<rscale>  0 0.50331760E+02</rscale>
<asrwt>0</asrwt>
<pdfrwt beam="1">  1        3 0.38608253E-01 0.85504768E+02</pdfrwt>
<pdfrwt beam="2">  1       -3 0.14214522E-02 0.85504768E+02</pdfrwt>
<totfact> 0.21460640E+04</totfact>
</mgrwt>
</event>
<event>
 6    1  0.1723639E-002  0.9516706E+02  0.7546771E-02  0.1376941E+00
         -2   -1    0    0    0  501 -0.00000000000E+00  0.00000000000E+00  0.14199121345E+03  0.14199121345E+03  0.00000000000E+00 0.  1.
          2   -1    0    0  501    0  0.00000000000E+00 -0.00000000000E+00 -0.24371399143E+02  0.24371399143E+02  0.00000000000E+00 0. -1.
         23    2    1    2    0    0  0.20997308162E+02  0.16605131783E+01  0.10542027818E+03  0.14202184564E+03  0.92806925036E+02 0.  0.
         13    1    3    3    0    0  0.13298383626E+02 -0.34376352435E+02  0.97631642208E+02  0.10435764550E+03  0.00000000000E+00 0.  1.
        -13    1    3    3    0    0  0.76989245357E+01  0.36036865613E+02  0.77886359698E+01  0.37664200144E+02  0.00000000000E+00 0. -1.
         22    1    1    2    0    0 -0.20997308162E+02 -0.16605131783E+01  0.12199536131E+02  0.24340766953E+02  0.00000000000E+00 0. -1.
<mgrwt>
<rscale>  0 0.65274620E+02</rscale>
<asrwt>0</asrwt>
<pdfrwt beam="1">  1        2 0.37494461E-02 0.95167061E+02</pdfrwt>
<pdfrwt beam="2">  1       -2 0.21844802E-01 0.95167061E+02</pdfrwt>
<totfact> 0.36384599E+04</totfact>
</mgrwt>
</event>
<event>
 6    1  0.1723639E-002  0.1020768E+03  0.7546771E-02  0.1325168E+00
          2   -1    0    0  501    0  0.00000000000E+00  0.00000000000E+00  0.11525100830E+02  0.11525100830E+02  0.00000000000E+00 0.  1.
         -2   -1    0    0    0  501 -0.00000000000E+00 -0.00000000000E+00 -0.45272210675E+03  0.45272210675E+03  0.00000000000E+00 0. -1.
         23    2    1    2    0    0  0.25290048143E+02  0.32582692130E+02 -0.28630498298E+03  0.30395760364E+03  0.93372711048E+02 0.  0.
         13    1    3    3    0    0  0.43985364035E+02  0.33508253399E+02 -0.82631213323E+02  0.99425513378E+02  0.00000000000E+00 0.  1.
        -13    1    3    3    0    0 -0.18695315892E+02 -0.92556126862E+00 -0.20367376966E+03  0.20453209026E+03  0.00000000000E+00 0. -1.
         22    1    1    2    0    0 -0.25290048143E+02 -0.32582692130E+02 -0.15489202294E+03  0.16028960394E+03  0.00000000000E+00 0. -1.
<mgrwt>
<rscale>  0 0.81384261E+02</rscale>
<asrwt>0</asrwt>
<pdfrwt beam="1">  1        2 0.17730927E-02 0.10207684E+03</pdfrwt>
<pdfrwt beam="2">  1       -2 0.69649546E-01 0.10207684E+03</pdfrwt>
<totfact> 0.11281925E+04</totfact>
</mgrwt>
</event>
<event>
 6    1  0.1723639E-002  0.9059574E+02  0.7546771E-02  0.1421191E+00
         -2   -1    0    0    0  501 -0.00000000000E+00  0.00000000000E+00  0.24145323089E+03  0.24145323089E+03  0.00000000000E+00 0.  1.
          2   -1    0    0  501    0  0.00000000000E+00 -0.00000000000E+00 -0.64720077620E+02  0.64720077620E+02  0.00000000000E+00 0. -1.
         23    2    1    2    0    0  0.82410477025E+01  0.88619032961E+01  0.23228065332E+03  0.24932286471E+03  0.89783855806E+02 0.  0.
         13    1    3    3    0    0  0.10689375058E+02 -0.24571936175E+02  0.17642868174E+02  0.32082917322E+02  0.00000000000E+00 0. -1.
        -13    1    3    3    0    0 -0.24483273551E+01  0.33433839471E+02  0.21463778515E+03  0.21723994739E+03  0.00000000000E+00 0.  1.
         22    1    1    2    0    0 -0.82410477025E+01 -0.88619032961E+01 -0.55547500055E+02  0.56850443794E+02  0.00000000000E+00 0. -1.
<mgrwt>
<rscale>  0 0.54769825E+02</rscale>
<asrwt>0</asrwt>
<pdfrwt beam="1">  1        2 0.99569351E-02 0.90595745E+02</pdfrwt>
<pdfrwt beam="2">  1       -2 0.37146650E-01 0.90595745E+02</pdfrwt>
<totfact> 0.40978877E+03</totfact>
</mgrwt>
</event>
<event>
 6    1  0.1723639E-002  0.9231056E+02  0.7546771E-02  0.1391269E+00
          2   -1    0    0  501    0  0.00000000000E+00  0.00000000000E+00  0.10702695304E+03  0.10702695304E+03  0.00000000000E+00 0. -1.
         -2   -1    0    0    0  501 -0.00000000000E+00 -0.00000000000E+00 -0.51713650688E+02  0.51713650688E+02  0.00000000000E+00 0.  1.
         23    2    1    2    0    0  0.16624494797E+02  0.76394159594E+01 -0.81719891813E+01  0.92671573582E+02  0.90479305034E+02 0.  0.
         13    1    3    3    0    0 -0.11914504986E+02  0.36473185985E+02  0.20010233525E+02  0.43274220625E+02  0.00000000000E+00 0. -1.
        -13    1    3    3    0    0  0.28538999783E+02 -0.28833770026E+02 -0.28182222706E+02  0.49397352957E+02  0.00000000000E+00 0.  1.
         22    1    1    2    0    0 -0.16624494797E+02 -0.76394159594E+01  0.63485291535E+02  0.66069030148E+02  0.00000000000E+00 0.  1.
<mgrwt>
<rscale>  0 0.61592253E+02</rscale>
<asrwt>0</asrwt>
<pdfrwt beam="1">  1        2 0.16465685E-01 0.92310558E+02</pdfrwt>
<pdfrwt beam="2">  1       -2 0.79559463E-02 0.92310558E+02</pdfrwt>
<totfact> 0.29258432E+04</totfact>
</mgrwt>
</event>
<event>
 6    1  0.1723639E-002  0.9058170E+02  0.7546771E-02  0.1413468E+00
          3   -1    0    0  501    0  0.00000000000E+00  0.00000000000E+00  0.72884317641E+02  0.72884317641E+02  0.00000000000E+00 0. -1.
         -3   -1    0    0    0  501 -0.00000000000E+00 -0.00000000000E+00 -0.39823702330E+02  0.39823702330E+02  0.00000000000E+00 0.  1.
         23    2    1    2    0    0  0.55817884105E+01  0.12446116169E+02  0.17934886324E+02  0.92340156880E+02  0.89548770263E+02 0.  0.
         13    1    3    3    0    0  0.12262523959E+02 -0.30115131686E+02  0.33354713402E+02  0.46581407841E+02  0.00000000000E+00 0. -1.
        -13    1    3    3    0    0 -0.66807355482E+01  0.42561247855E+02 -0.15419827078E+02  0.45758749038E+02  0.00000000000E+00 0.  1.
         22    1    1    2    0    0 -0.55817884105E+01 -0.12446116169E+02  0.15125728987E+02  0.20367863092E+02  0.00000000000E+00 0.  1.
<mgrwt>
<rscale>  0 0.56427084E+02</rscale>
<asrwt>0</asrwt>
<pdfrwt beam="1">  1        3 0.11212972E-01 0.90581700E+02</pdfrwt>
<pdfrwt beam="2">  1       -3 0.61267234E-02 0.90581700E+02</pdfrwt>
<totfact> 0.20421913E+04</totfact>
</mgrwt>
</event>
<event>
 6    1  0.1723639E-002  0.9432106E+02  0.7546771E-02  0.1365835E+00
          2   -1    0    0  501    0  0.00000000000E+00  0.00000000000E+00  0.54266455151E+03  0.54266455151E+03  0.00000000000E+00 0.  1.
         -2   -1    0    0    0  501 -0.00000000000E+00 -0.00000000000E+00 -0.66766859493E+01  0.66766859493E+01  0.00000000000E+00 0. -1.
         23    2    1    2    0    0 -0.24397867913E+02 -0.89635513121E+01  0.41215367460E+03  0.42280860110E+03  0.90668960923E+02 0.  0.
         13    1    3    3    0    0  0.24684620575E+02 -0.11054074739E+02  0.45909169867E+02  0.53283908820E+02  0.00000000000E+00 0. -1.
        -13    1    3    3    0    0 -0.49082488488E+02  0.20905234273E+01  0.36624450473E+03  0.36952469228E+03  0.00000000000E+00 0.  1.
         22    1    1    2    0    0  0.24397867913E+02  0.89635513121E+01  0.12383419097E+03  0.12653263636E+03  0.00000000000E+00 0. -1.
<mgrwt>
<rscale>  0 0.68338870E+02</rscale>
<asrwt>0</asrwt>
<pdfrwt beam="1">  1        2 0.83486820E-01 0.94321056E+02</pdfrwt>
<pdfrwt beam="2">  1       -2 0.10271829E-02 0.94321056E+02</pdfrwt>
<totfact> 0.10149101E+05</totfact>
</mgrwt>
</event>
<event>
 6    1  0.1723639E-002  0.9276180E+02  0.7546771E-02  0.1415728E+00
         -3   -1    0    0    0  501 -0.00000000000E+00  0.00000000000E+00  0.14087165169E+04  0.14087165169E+04  0.00000000000E+00 0.  1.
          3   -1    0    0  501    0  0.00000000000E+00 -0.00000000000E+00 -0.46186868967E+01  0.46186868967E+01  0.00000000000E+00 0. -1.
         23    2    1    2    0    0  0.12144604673E+02  0.17061978971E+01  0.13949612655E+04  0.13980420895E+04  0.91947535671E+02 0.  0.
         11    1    3    3    0    0  0.33593093577E+02 -0.24187361077E+02  0.11544571988E+04  0.11551990946E+04  0.00000000000E+00 0.  1.
        -11    1    3    3    0    0 -0.21448488904E+02  0.25893558974E+02  0.24050406670E+03  0.24284299490E+03  0.00000000000E+00 0. -1.
         22    1    1    2    0    0 -0.12144604673E+02 -0.17061978971E+01  0.91365645724E+01  0.15293114336E+02  0.00000000000E+00 0. -1.
<mgrwt>
<rscale>  0 0.55935017E+02</rscale>
<asrwt>0</asrwt>
<pdfrwt beam="1">  1        3 0.71056834E-03 0.92761802E+02</pdfrwt>
<pdfrwt beam="2">  1       -3 0.21672528E+00 0.92761802E+02</pdfrwt>
<totfact> 0.12661954E+03</totfact>
</mgrwt>
</event>
<event>
 6    1  0.1723639E-002  0.8898705E+02  0.7546771E-02  0.1416242E+00
          1   -1    0    0  501    0  0.00000000000E+00  0.00000000000E+00  0.48491705756E+02  0.48491705756E+02  0.00000000000E+00 0. -1.
         -1   -1    0    0    0  501 -0.00000000000E+00 -0.00000000000E+00 -0.55827742734E+02  0.55827742734E+02  0.00000000000E+00 0.  1.
         23    2    1    2    0    0 -0.37378099742E+01 -0.13265091180E+02 -0.11950241034E+02  0.89785875410E+02  0.87913373812E+02 0.  0.
         13    1    3    3    0    0  0.22159374750E+02  0.14076845841E+02  0.25554582666E+02  0.36636486914E+02  0.00000000000E+00 0. -1.
        -13    1    3    3    0    0 -0.25897184725E+02 -0.27341937021E+02 -0.37504823700E+02  0.53149388496E+02  0.00000000000E+00 0.  1.
         22    1    1    2    0    0  0.37378099742E+01  0.13265091180E+02  0.46142040558E+01  0.14533573080E+02  0.00000000000E+00 0. -1.
<mgrwt>
<rscale>  0 0.55823930E+02</rscale>
<asrwt>0</asrwt>
<pdfrwt beam="1">  1        1 0.74602624E-02 0.88987051E+02</pdfrwt>
<pdfrwt beam="2">  1       -1 0.85888835E-02 0.88987051E+02</pdfrwt>
<totfact> 0.62744112E+04</totfact>
</mgrwt>
</event>
<event>
 6    1  0.1723639E-002  0.9372595E+02  0.7546771E-02  0.1383377E+00
         -2   -1    0    0    0  501 -0.00000000000E+00  0.00000000000E+00  0.81692236323E+01  0.81692236323E+01  0.00000000000E+00 0.  1.
          2   -1    0    0  501    0  0.00000000000E+00 -0.00000000000E+00 -0.39492097568E+03  0.39492097568E+03  0.00000000000E+00 0. -1.
         23    2    1    2    0    0  0.91285893520E+01 -0.17629611902E+02 -0.31619685765E+03  0.32979540084E+03  0.91599231815E+02 0.  0.
         13    1    3    3    0    0  0.66170109002E+01  0.36010027603E+02 -0.17369337481E+03  0.17751026836E+03  0.00000000000E+00 0.  1.
        -13    1    3    3    0    0  0.25115784519E+01 -0.53639639505E+02 -0.14250348283E+03  0.15228513247E+03  0.00000000000E+00 0. -1.
         22    1    1    2    0    0 -0.91285893520E+01  0.17629611902E+02 -0.70554894399E+02  0.73294798472E+02  0.00000000000E+00 0.  1.
<mgrwt>
<rscale>  0 0.63584378E+02</rscale>
<asrwt>0</asrwt>
<pdfrwt beam="1">  1        2 0.60757069E-01 0.93725950E+02</pdfrwt>
<pdfrwt beam="2">  1       -2 0.12568037E-02 0.93725950E+02</pdfrwt>
<totfact> 0.10704736E+05</totfact>
</mgrwt>
</event>
<event>
 6    1  0.1723639E-002  0.1058717E+03  0.7546771E-02  0.1351632E+00
         -2   -1    0    0    0  501 -0.00000000000E+00  0.00000000000E+00  0.56385619371E+01  0.56385619371E+01  0.00000000000E+00 0.  1.
          2   -1    0    0  501    0  0.00000000000E+00 -0.00000000000E+00 -0.74059280920E+03  0.74059280920E+03  0.00000000000E+00 0. -1.
         23    2    1    2    0    0  0.18333855143E+02 -0.14452507134E+02 -0.59643165488E+03  0.60575534540E+03  0.10326574615E+03 0.  0.
         13    1    3    3    0    0 -0.27320903611E+02  0.14069123827E+02 -0.42409267289E+03  0.42520461806E+03  0.00000000000E+00 0. -1.
        -13    1    3    3    0    0  0.45654758754E+02 -0.28521630961E+02 -0.17233898199E+03  0.18055072734E+03  0.00000000000E+00 0.  1.
         22    1    1    2    0    0 -0.18333855143E+02  0.14452507134E+02 -0.13852259238E+03  0.14047602573E+03  0.00000000000E+00 0.  1.
<mgrwt>
<rscale>  0 0.72549602E+02</rscale>
<asrwt>0</asrwt>
<pdfrwt beam="1">  1        2 0.11393742E+00 0.10587171E+03</pdfrwt>
<pdfrwt beam="2">  1       -2 0.86747059E-03 0.10587171E+03</pdfrwt>
<totfact> 0.91854745E+04</totfact>
</mgrwt>
</event>
<event>
 6    1  0.1723639E-002  0.9248600E+02  0.7546771E-02  0.1421748E+00
          1   -1    0    0  501    0  0.00000000000E+00  0.00000000000E+00  0.11127732531E+03  0.11127732531E+03  0.00000000000E+00 0. -1.
         -1   -1    0    0    0  501 -0.00000000000E+00 -0.00000000000E+00 -0.24324617355E+02  0.24324617355E+02  0.00000000000E+00 0.  1.
         23    2    1    2    0    0 -0.11262160202E+02 -0.59350331356E+00  0.74152289303E+02  0.11854207115E+03  0.91795817574E+02 0.  0.
         11    1    3    3    0    0  0.63223422310E+01  0.33454538141E+02 -0.11325113264E+01  0.34065535596E+02  0.00000000000E+00 0.  1.
        -11    1    3    3    0    0 -0.17584502433E+02 -0.34048041455E+02  0.75284800629E+02  0.84476535550E+02  0.00000000000E+00 0. -1.
         22    1    1    2    0    0  0.11262160202E+02  0.59350331356E+00  0.12800418653E+02  0.17059871520E+02  0.00000000000E+00 0.  1.
<mgrwt>
<rscale>  0 0.54652872E+02</rscale>
<asrwt>0</asrwt>
<pdfrwt beam="1">  1        1 0.17119588E-01 0.92486002E+02</pdfrwt>
<pdfrwt beam="2">  1       -1 0.37422489E-02 0.92486002E+02</pdfrwt>
<totfact> 0.72768606E+04</totfact>
</mgrwt>
</event>
<event>
 6    1  0.1723639E-002  0.9127475E+02  0.7546771E-02  0.1419494E+00
          2   -1    0    0  501    0  0.00000000000E+00  0.00000000000E+00  0.16859410289E+03  0.16859410289E+03  0.00000000000E+00 0. -1.
         -2   -1    0    0    0  501 -0.00000000000E+00 -0.00000000000E+00 -0.16744468344E+02  0.16744468344E+02  0.00000000000E+00 0.  1.
         23    2    1    2    0    0  0.11982531810E+02 -0.19870230507E+01  0.11673629356E+03  0.14818381320E+03  0.90462981002E+02 0.  0.
         13    1    3    3    0    0  0.30897986585E+02  0.13074614509E+02  0.11924461939E+03  0.12387457517E+03  0.00000000000E+00 0. -1.
        -13    1    3    3    0    0 -0.18915454775E+02 -0.15061637560E+02 -0.25083258302E+01  0.24309238034E+02  0.00000000000E+00 0.  1.
         22    1    1    2    0    0 -0.11982531810E+02  0.19870230507E+01  0.35113340985E+02  0.37154758030E+02  0.00000000000E+00 0.  1.
<mgrwt>
<rscale>  0 0.55128070E+02</rscale>
<asrwt>0</asrwt>
<pdfrwt beam="1">  1        2 0.25937553E-01 0.91274751E+02</pdfrwt>
<pdfrwt beam="2">  1       -2 0.25760722E-02 0.91274751E+02</pdfrwt>
<totfact> 0.93650425E+04</totfact>
</mgrwt>
</event>
<event>
 6    1  0.1723639E-002  0.9172221E+02  0.7546771E-02  0.1416587E+00
          2   -1    0    0  501    0  0.00000000000E+00  0.00000000000E+00  0.10531799123E+03  0.10531799123E+03  0.00000000000E+00 0. -1.
         -2   -1    0    0    0  501 -0.00000000000E+00 -0.00000000000E+00 -0.26109388048E+02  0.26109388048E+02  0.00000000000E+00 0.  1.
         23    2    1    2    0    0  0.71956577251E+01  0.10243557175E+02  0.64594567153E+02  0.11218477024E+03  0.90863945619E+02 0.  0.
         11    1    3    3    0    0 -0.15357714584E+02 -0.72449611268E+01  0.78586321881E+02  0.80399992822E+02  0.00000000000E+00 0. -1.
        -11    1    3    3    0    0  0.22553372309E+02  0.17488518302E+02 -0.13991754728E+02  0.31784777414E+02  0.00000000000E+00 0.  1.
         22    1    1    2    0    0 -0.71956577251E+01 -0.10243557175E+02  0.14614036027E+02  0.19242609041E+02  0.00000000000E+00 0.  1.
<mgrwt>
<rscale>  0 0.55749667E+02</rscale>
<asrwt>0</asrwt>
<pdfrwt beam="1">  1        2 0.16202768E-01 0.91722214E+02</pdfrwt>
<pdfrwt beam="2">  1       -2 0.40168290E-02 0.91722214E+02</pdfrwt>
<totfact> 0.82837901E+04</totfact>
</mgrwt>
</event>
<event>
 6    1  0.1723639E-002  0.9124816E+02  0.7546771E-02  0.1406163E+00
          2   -1    0    0  501    0  0.00000000000E+00  0.00000000000E+00  0.88211767661E+02  0.88211767661E+02  0.00000000000E+00 0.  1.
         -2   -1    0    0    0  501 -0.00000000000E+00 -0.00000000000E+00 -0.59146231618E+02  0.59146231618E+02  0.00000000000E+00 0. -1.
         23    2    1    2    0    0  0.27382048122E+00 -0.14953080357E+02 -0.22238138330E+02  0.93918906903E+02  0.90014202700E+02 0.  0.
         11    1    3    3    0    0  0.17579429910E+02  0.34091766629E+02 -0.15913082568E+02  0.41527233290E+02  0.00000000000E+00 0. -1.
        -11    1    3    3    0    0 -0.17305609429E+02 -0.49044846987E+02 -0.63250557617E+01  0.52391673614E+02  0.00000000000E+00 0.  1.
         22    1    1    2    0    0 -0.27382048122E+00  0.14953080357E+02  0.51303674373E+02  0.53439092376E+02  0.00000000000E+00 0.  1.
<mgrwt>
<rscale>  0 0.58058919E+02</rscale>
<asrwt>0</asrwt>
<pdfrwt beam="1">  1        2 0.13571041E-01 0.91248158E+02</pdfrwt>
<pdfrwt beam="2">  1       -2 0.90994202E-02 0.91248158E+02</pdfrwt>
<totfact> 0.29733975E+04</totfact>
</mgrwt>
</event>
<event>
 6    1  0.1723639E-002  0.1015453E+03  0.7546771E-02  0.1335927E+00
         -2   -1    0    0    0  501 -0.00000000000E+00  0.00000000000E+00  0.78967765007E+02  0.78967765007E+02  0.00000000000E+00 0.  1.
          2   -1    0    0  501    0  0.00000000000E+00 -0.00000000000E+00 -0.58846997126E+02  0.58846997126E+02  0.00000000000E+00 0. -1.
         23    2    1    2    0    0 -0.54171762247E+01 -0.34251988338E+02  0.17456987327E+02  0.10303487958E+03  0.95440533844E+02 0.  0.
         11    1    3    3    0    0  0.18209529620E+02  0.85394408756E+01  0.43299981866E+02  0.47743035608E+02  0.00000000000E+00 0.  1.
        -11    1    3    3    0    0 -0.23626705844E+02 -0.42791429214E+02 -0.25842994540E+02  0.55291843974E+02  0.00000000000E+00 0. -1.
         22    1    1    2    0    0  0.54171762247E+01  0.34251988338E+02  0.26637805545E+01  0.34779882550E+02  0.00000000000E+00 0. -1.
<mgrwt>
<rscale>  0 0.77626032E+02</rscale>
<asrwt>0</asrwt>
<pdfrwt beam="1">  1        2 0.90533841E-02 0.10154526E+03</pdfrwt>
<pdfrwt beam="2">  1       -2 0.12148887E-01 0.10154526E+03</pdfrwt>
<totfact> 0.31156129E+04</totfact>
</mgrwt>
</event>
<event>
 6    1  0.1723639E-002  0.8702651E+02  0.7546771E-02  0.1441015E+00
         -1   -1    0    0    0  501 -0.00000000000E+00  0.00000000000E+00  0.66626974582E+02  0.66626974582E+02  0.00000000000E+00 0.  1.
          1   -1    0    0  501    0  0.00000000000E+00 -0.00000000000E+00 -0.40111145114E+02  0.40111145114E+02  0.00000000000E+00 0. -1.
         23    2    1    2    0    0 -0.52435257799E-01  0.10112931005E+02  0.34738905330E+02  0.93703814974E+02  0.86436909213E+02 0.  0.
         11    1    3    3    0    0 -0.37383705160E+02 -0.13366205461E+02  0.39052340221E+01  0.39892953171E+02  0.00000000000E+00 0. -1.
        -11    1    3    3    0    0  0.37331269902E+02  0.23479136466E+02  0.30833671308E+02  0.53810861803E+02  0.00000000000E+00 0.  1.
         22    1    1    2    0    0  0.52435257799E-01 -0.10112931005E+02 -0.82230758612E+01  0.13034304722E+02  0.00000000000E+00 0.  1.
<mgrwt>
<rscale>  0 0.50811193E+02</rscale>
<asrwt>0</asrwt>
<pdfrwt beam="1">  1        1 0.61709454E-02 0.87026510E+02</pdfrwt>
<pdfrwt beam="2">  1       -1 0.10250304E-01 0.87026510E+02</pdfrwt>
<totfact> 0.61734147E+04</totfact>
</mgrwt>
</event>
<event>
 6    1  0.1723639E-002  0.9280325E+02  0.7546771E-02  0.1410968E+00
         -2   -1    0    0    0  501 -0.00000000000E+00  0.00000000000E+00  0.21889867532E+02  0.21889867532E+02  0.00000000000E+00 0.  1.
          2   -1    0    0  501    0  0.00000000000E+00 -0.00000000000E+00 -0.13046506498E+03  0.13046506498E+03  0.00000000000E+00 0. -1.
         23    2    1    2    0    0  0.10471360988E+02 -0.80158112277E+01 -0.87844596927E+02  0.12778543051E+03  0.91861528463E+02 0.  0.
         11    1    3    3    0    0 -0.18520665587E+02 -0.25799409482E+02 -0.88229722300E+02  0.93771576080E+02  0.00000000000E+00 0. -1.
        -11    1    3    3    0    0  0.28992026575E+02  0.17783598255E+02  0.38512537302E+00  0.34013854432E+02  0.00000000000E+00 0.  1.
         22    1    1    2    0    0 -0.10471360988E+02  0.80158112277E+01 -0.20730600521E+02  0.24569502000E+02  0.00000000000E+00 0.  1.
<mgrwt>
<rscale>  0 0.56978453E+02</rscale>
<asrwt>0</asrwt>
<pdfrwt beam="1">  1        2 0.20071549E-01 0.92803249E+02</pdfrwt>
<pdfrwt beam="2">  1       -2 0.33676719E-02 0.92803249E+02</pdfrwt>
<totfact> 0.84327835E+04</totfact>
</mgrwt>
</event>
<event>
 6    1  0.1723639E-002  0.9734570E+02  0.7546771E-02  0.1347363E+00
          2   -1    0    0  501    0  0.00000000000E+00  0.00000000000E+00  0.10387111327E+04  0.10387111327E+04  0.00000000000E+00 0. -1.
         -2   -1    0    0    0  501 -0.00000000000E+00 -0.00000000000E+00 -0.43289131580E+01  0.43289131580E+01  0.00000000000E+00 0.  1.
         23    2    1    2    0    0 -0.82331584928E+01 -0.31236587151E+02  0.87634963315E+03  0.88173968120E+03  0.91829606409E+02 0.  0.
         13    1    3    3    0    0  0.25103907371E+02 -0.52213855126E+02  0.51232251339E+03  0.51558786890E+03  0.00000000000E+00 0.  1.
        -13    1    3    3    0    0 -0.33337065863E+02  0.20977267974E+02  0.36402711976E+03  0.36615181230E+03  0.00000000000E+00 0. -1.
         22    1    1    2    0    0  0.82331584928E+01  0.31236587151E+02  0.15803258641E+03  0.16130036467E+03  0.00000000000E+00 0.  1.
<mgrwt>
<rscale>  0 0.73883869E+02</rscale>
<asrwt>0</asrwt>
<pdfrwt beam="1">  1        2 0.15980151E+00 0.97345703E+02</pdfrwt>
<pdfrwt beam="2">  1       -2 0.66598746E-03 0.97345703E+02</pdfrwt>
<totfact> 0.85665593E+04</totfact>
</mgrwt>
</event>
<event>
 6    1  0.1723639E-002  0.9115611E+02  0.7546771E-02  0.1401773E+00
         -2   -1    0    0    0  501 -0.00000000000E+00  0.00000000000E+00  0.15669560067E+03  0.15669560067E+03  0.00000000000E+00 0.  1.
          2   -1    0    0  501    0  0.00000000000E+00 -0.00000000000E+00 -0.20307582722E+02  0.20307582722E+02  0.00000000000E+00 0. -1.
         23    2    1    2    0    0 -0.28904229768E+01 -0.15812471164E+02  0.13186338305E+03  0.16030404838E+03  0.89727628682E+02 0.  0.
         13    1    3    3    0    0 -0.38005732512E+01  0.36325343463E+02  0.73259431820E+02  0.81859142955E+02  0.00000000000E+00 0.  1.
        -13    1    3    3    0    0  0.91015027441E+00 -0.52137814627E+02  0.58603951227E+02  0.78444905424E+02  0.00000000000E+00 0. -1.
         22    1    1    2    0    0  0.28904229768E+01  0.15812471164E+02  0.45246349048E+01  0.16699135017E+02  0.00000000000E+00 0.  1.
<mgrwt>
<rscale>  0 0.59070894E+02</rscale>
<asrwt>0</asrwt>
<pdfrwt beam="1">  1        2 0.31242436E-02 0.91156109E+02</pdfrwt>
<pdfrwt beam="2">  1       -2 0.24107015E-01 0.91156109E+02</pdfrwt>
<totfact> 0.38885892E+04</totfact>
</mgrwt>
</event>
<event>
 6    1  0.1723639E-002  0.8667701E+02  0.7546771E-02  0.1414029E+00
         -2   -1    0    0    0  501 -0.00000000000E+00  0.00000000000E+00  0.36008479893E+03  0.36008479893E+03  0.00000000000E+00 0. -1.
          2   -1    0    0  501    0  0.00000000000E+00 -0.00000000000E+00 -0.72657036716E+01  0.72657036716E+01  0.00000000000E+00 0.  1.
         23    2    1    2    0    0  0.29298162148E+01 -0.15152604722E+02  0.30704170797E+03  0.31904155478E+03  0.85291957352E+02 0.  0.
         11    1    3    3    0    0 -0.11718079706E+02 -0.15068105637E+02  0.30333061822E+03  0.30393062555E+03  0.00000000000E+00 0. -1.
        -11    1    3    3    0    0  0.14647895920E+02 -0.84499084732E-01  0.37110897544E+01  0.15110929229E+02  0.00000000000E+00 0.  1.
         22    1    1    2    0    0 -0.29298162148E+01  0.15152604722E+02  0.45777387292E+02  0.48308947827E+02  0.00000000000E+00 0.  1.
<mgrwt>
<rscale>  0 0.56304393E+02</rscale>
<asrwt>0</asrwt>
<pdfrwt beam="1">  1        2 0.11178008E-02 0.86677005E+02</pdfrwt>
<pdfrwt beam="2">  1       -2 0.55397648E-01 0.86677005E+02</pdfrwt>
<totfact> 0.33111219E+04</totfact>
</mgrwt>
</event>
<event>
 6    1  0.1723639E-002  0.9293702E+02  0.7546771E-02  0.1382918E+00
         -1   -1    0    0    0  501 -0.00000000000E+00  0.00000000000E+00  0.70227158042E+02  0.70227158042E+02  0.00000000000E+00 0.  1.
          1   -1    0    0  501    0  0.00000000000E+00 -0.00000000000E+00 -0.49755054138E+02  0.49755054138E+02  0.00000000000E+00 0. -1.
         23    2    1    2    0    0  0.14371836561E+02  0.14639424930E+02  0.29587769590E+02  0.97533207539E+02  0.90644514534E+02 0.  0.
         13    1    3    3    0    0  0.16262120568E+02 -0.12998630555E+02 -0.27256560462E+02  0.34297828647E+02  0.00000000000E+00 0. -1.
        -13    1    3    3    0    0 -0.18902840063E+01  0.27638055486E+02  0.56844330052E+02  0.63235378893E+02  0.00000000000E+00 0.  1.
         22    1    1    2    0    0 -0.14371836561E+02 -0.14639424930E+02 -0.91156656866E+01  0.22449004640E+02  0.00000000000E+00 0.  1.
<mgrwt>
<rscale>  0 0.63702884E+02</rscale>
<asrwt>0</asrwt>
<pdfrwt beam="1">  1        1 0.76546237E-02 0.92937024E+02</pdfrwt>
<pdfrwt beam="2">  1       -1 0.10804178E-01 0.92937024E+02</pdfrwt>
<totfact> 0.43179675E+04</totfact>
</mgrwt>
</event>
<event>
 6    1  0.1723639E-002  0.9685632E+02  0.7546771E-02  0.1349328E+00
          1   -1    0    0  501    0  0.00000000000E+00  0.00000000000E+00  0.10238299459E+03  0.10238299459E+03  0.00000000000E+00 0. -1.
         -1   -1    0    0    0  501 -0.00000000000E+00 -0.00000000000E+00 -0.61509757022E+02  0.61509757022E+02  0.00000000000E+00 0.  1.
         23    2    1    2    0    0 -0.29051915605E+02  0.12711503627E+02 -0.16583711769E+02  0.98265797149E+02  0.91518037941E+02 0.  0.
         13    1    3    3    0    0 -0.27298004183E+02  0.22160484043E+01  0.35651987581E+02  0.44957269950E+02  0.00000000000E+00 0. -1.
        -13    1    3    3    0    0 -0.17539114221E+01  0.10495455222E+02 -0.52235699350E+02  0.53308527199E+02  0.00000000000E+00 0.  1.
         22    1    1    2    0    0  0.29051915605E+02 -0.12711503627E+02  0.57456949333E+02  0.65626954458E+02  0.00000000000E+00 0. -1.
<mgrwt>
<rscale>  0 0.73265401E+02</rscale>
<asrwt>0</asrwt>
<pdfrwt beam="1">  1        1 0.15751230E-01 0.96856323E+02</pdfrwt>
<pdfrwt beam="2">  1       -1 0.94630395E-02 0.96856323E+02</pdfrwt>
<totfact> 0.20694988E+04</totfact>
</mgrwt>
</event>
<event>
 6    1  0.1723639E-002  0.1500206E+03  0.7546771E-02  0.1211197E+00
          2   -1    0    0  501    0  0.00000000000E+00  0.00000000000E+00  0.37882515646E+02  0.37882515646E+02  0.00000000000E+00 0. -1.
         -2   -1    0    0    0  501 -0.00000000000E+00 -0.00000000000E+00 -0.51600014690E+03  0.51600014690E+03  0.00000000000E+00 0.  1.
         23    2    1    2    0    0  0.10934775838E+03 -0.47092834941E+02 -0.33940810400E+03  0.37108495929E+03  0.91277152587E+02 0.  0.
         13    1    3    3    0    0  0.12458551176E+03 -0.48733291528E+02 -0.31544873012E+03  0.34264323250E+03  0.00000000000E+00 0.  1.
        -13    1    3    3    0    0 -0.15237753383E+02  0.16404565879E+01 -0.23959373879E+02  0.28441726787E+02  0.00000000000E+00 0. -1.
         22    1    1    2    0    0 -0.10934775838E+03  0.47092834941E+02 -0.13870952725E+03  0.18279770325E+03  0.00000000000E+00 0. -1.
<mgrwt>
<rscale>  0 0.14159644E+03</rscale>
<asrwt>0</asrwt>
<pdfrwt beam="1">  1        2 0.58280798E-02 0.15002062E+03</pdfrwt>
<pdfrwt beam="2">  1       -2 0.79384632E-01 0.15002062E+03</pdfrwt>
<totfact> 0.18024275E+03</totfact>
</mgrwt>
</event>
<event>
 6    1  0.1723639E-002  0.9272013E+02  0.7546771E-02  0.1389164E+00
         -2   -1    0    0    0  501 -0.00000000000E+00  0.00000000000E+00  0.13429724876E+02  0.13429724876E+02  0.00000000000E+00 0.  1.
          2   -1    0    0  501    0  0.00000000000E+00 -0.00000000000E+00 -0.24707036478E+03  0.24707036478E+03  0.00000000000E+00 0. -1.
         23    2    1    2    0    0  0.18173115795E+02  0.43019283472E+01 -0.16396920050E+03  0.18836911023E+03  0.90819900071E+02 0.  0.
         11    1    3    3    0    0  0.41053815778E+02 -0.20977742141E+02 -0.13803400718E+03  0.14552961415E+03  0.00000000000E+00 0. -1.
        -11    1    3    3    0    0 -0.22880699983E+02  0.25279670488E+02 -0.25935193319E+02  0.42839496077E+02  0.00000000000E+00 0.  1.
         22    1    1    2    0    0 -0.18173115795E+02 -0.43019283472E+01 -0.69671439404E+02  0.72130979432E+02  0.00000000000E+00 0. -1.
<mgrwt>
<rscale>  0 0.62115177E+02</rscale>
<asrwt>0</asrwt>
<pdfrwt beam="1">  1        2 0.38010824E-01 0.92720133E+02</pdfrwt>
<pdfrwt beam="2">  1       -2 0.20661116E-02 0.92720133E+02</pdfrwt>
<totfact> 0.85832300E+04</totfact>
</mgrwt>
</event>
<event>
 6    1  0.1723639E-002  0.9121915E+02  0.7546771E-02  0.1410834E+00
          2   -1    0    0  501    0  0.00000000000E+00  0.00000000000E+00  0.47687984569E+03  0.47687984569E+03  0.00000000000E+00 0.  1.
         -2   -1    0    0    0  501 -0.00000000000E+00 -0.00000000000E+00 -0.58078023394E+01  0.58078023394E+01  0.00000000000E+00 0. -1.
         23    2    1    2    0    0 -0.11253689665E+02 -0.81846747853E+01  0.40050802559E+03  0.41076466815E+03  0.90151536897E+02 0.  0.
         11    1    3    3    0    0 -0.36525342078E+01  0.36171253224E+02  0.90857555065E+02  0.97861105034E+02  0.00000000000E+00 0.  1.
        -11    1    3    3    0    0 -0.76011554568E+01 -0.44355928010E+02  0.30965047053E+03  0.31290356312E+03  0.00000000000E+00 0. -1.
         22    1    1    2    0    0  0.11253689665E+02  0.81846747853E+01  0.70564017761E+02  0.71922979881E+02  0.00000000000E+00 0.  1.
<mgrwt>
<rscale>  0 0.57008203E+02</rscale>
<asrwt>0</asrwt>
<pdfrwt beam="1">  1        2 0.73366099E-01 0.91219154E+02</pdfrwt>
<pdfrwt beam="2">  1       -2 0.89350843E-03 0.91219154E+02</pdfrwt>
<totfact> 0.14153928E+05</totfact>
</mgrwt>
</event>
<event>
 6    1  0.1723639E-002  0.1117291E+03  0.7546771E-02  0.1304126E+00
         -2   -1    0    0    0  501 -0.00000000000E+00  0.00000000000E+00  0.57015484475E+02  0.57015484475E+02  0.00000000000E+00 0.  1.
          2   -1    0    0  501    0  0.00000000000E+00 -0.00000000000E+00 -0.11103836330E+03  0.11103836330E+03  0.00000000000E+00 0. -1.
         23    2    1    2    0    0 -0.42117310690E+02  0.18382034163E+02 -0.27765897018E+02  0.11512752036E+03  0.10184121891E+03 0.  0.
         11    1    3    3    0    0  0.10229056887E+02  0.32964576378E+02 -0.46268611142E+02  0.57724182779E+02  0.00000000000E+00 0. -1.
        -11    1    3    3    0    0 -0.52346367577E+02 -0.14582542215E+02  0.18502714124E+02  0.57403337585E+02  0.00000000000E+00 0.  1.
         22    1    1    2    0    0  0.42117310690E+02 -0.18382034163E+02 -0.26256981806E+02  0.52926327412E+02  0.00000000000E+00 0. -1.
<mgrwt>
<rscale>  0 0.89475801E+02</rscale>
<asrwt>0</asrwt>
<pdfrwt beam="1">  1        2 0.17082825E-01 0.11172914E+03</pdfrwt>
<pdfrwt beam="2">  1       -2 0.87716132E-02 0.11172914E+03</pdfrwt>
<totfact> 0.24681388E+04</totfact>
</mgrwt>
</event>
<event>
 6    1  0.1723639E-002  0.1013093E+03  0.7546771E-02  0.1354352E+00
         -2   -1    0    0    0  501 -0.00000000000E+00  0.00000000000E+00  0.19680730727E+02  0.19680730727E+02  0.00000000000E+00 0.  1.
          2   -1    0    0  501    0  0.00000000000E+00 -0.00000000000E+00 -0.20635707263E+03  0.20635707263E+03  0.00000000000E+00 0. -1.
         23    2    1    2    0    0  0.54650733159E+01 -0.24846300629E+02 -0.15813866106E+03  0.18780686158E+03  0.98063119743E+02 0.  0.
         11    1    3    3    0    0  0.36184559135E+01 -0.21376333414E+02  0.68765501862E+01  0.22744841083E+02  0.00000000000E+00 0.  1.
        -11    1    3    3    0    0  0.18466174025E+01 -0.34699672153E+01 -0.16501521125E+03  0.16506202050E+03  0.00000000000E+00 0. -1.
         22    1    1    2    0    0 -0.54650733159E+01  0.24846300629E+02 -0.28537680848E+02  0.38230941781E+02  0.00000000000E+00 0.  1.
<mgrwt>
<rscale>  0 0.71716219E+02</rscale>
<asrwt>0</asrwt>
<pdfrwt beam="1">  1        2 0.31747240E-01 0.10130933E+03</pdfrwt>
<pdfrwt beam="2">  1       -2 0.30278049E-02 0.10130933E+03</pdfrwt>
<totfact> 0.60472270E+04</totfact>
</mgrwt>
</event>
<event>
 6    1  0.1723639E-002  0.1211400E+03  0.7546771E-02  0.1262473E+00
         -2   -1    0    0    0  501 -0.00000000000E+00  0.00000000000E+00  0.54363096632E+02  0.54363096632E+02  0.00000000000E+00 0.  1.
          2   -1    0    0  501    0  0.00000000000E+00 -0.00000000000E+00 -0.29933755417E+03  0.29933755417E+03  0.00000000000E+00 0. -1.
         23    2    1    2    0    0  0.39473161248E+00  0.79341681382E+02 -0.30355920950E+02  0.12488549732E+03  0.91540413400E+02 0.  0.
         11    1    3    3    0    0  0.17586894806E+01  0.35800913454E+02 -0.61605227888E+02  0.71274136235E+02  0.00000000000E+00 0. -1.
        -11    1    3    3    0    0 -0.13639578681E+01  0.43540767928E+02  0.31249306938E+02  0.53611361081E+02  0.00000000000E+00 0.  1.
         22    1    1    2    0    0 -0.39473161248E+00 -0.79341681382E+02 -0.21461853659E+03  0.22881515349E+03  0.00000000000E+00 0. -1.
<mgrwt>
<rscale>  0 0.10897890E+03</rscale>
<asrwt>0</asrwt>
<pdfrwt beam="1">  1        2 0.46051931E-01 0.12114002E+03</pdfrwt>
<pdfrwt beam="2">  1       -2 0.83635535E-02 0.12114002E+03</pdfrwt>
<totfact> 0.90803046E+03</totfact>
</mgrwt>
</event>
<event>
 6    1  0.1723639E-002  0.9076061E+02  0.7546771E-02  0.1414431E+00
         -1   -1    0    0    0  501 -0.00000000000E+00  0.00000000000E+00  0.53794625607E+01  0.53794625607E+01  0.00000000000E+00 0.  1.
          1   -1    0    0  501    0  0.00000000000E+00 -0.00000000000E+00 -0.50453581338E+03  0.50453581338E+03  0.00000000000E+00 0. -1.
         23    2    1    2    0    0 -0.12373435564E+02 -0.50355441542E+01 -0.42836188762E+03  0.43787143768E+03  0.89772103419E+02 0.  0.
         13    1    3    3    0    0  0.11746091206E+01 -0.94864256964E+01 -0.29121901306E+00  0.95633042194E+01  0.00000000000E+00 0.  1.
        -13    1    3    3    0    0 -0.13548044685E+02  0.44508815422E+01 -0.42807066861E+03  0.42830813346E+03  0.00000000000E+00 0. -1.
         22    1    1    2    0    0  0.12373435564E+02  0.50355441542E+01 -0.70794463199E+02  0.72043838266E+02  0.00000000000E+00 0. -1.
<mgrwt>
<rscale>  0 0.56216689E+02</rscale>
<asrwt>0</asrwt>
<pdfrwt beam="1">  1        1 0.77620905E-01 0.90760615E+02</pdfrwt>
<pdfrwt beam="2">  1       -1 0.82760951E-03 0.90760615E+02</pdfrwt>
<totfact> 0.95753478E+04</totfact>
</mgrwt>
</event>
<event>
 6    1  0.1723639E-002  0.9280054E+02  0.7546771E-02  0.1392842E+00
          2   -1    0    0  501    0  0.00000000000E+00  0.00000000000E+00  0.14865403304E+03  0.14865403304E+03  0.00000000000E+00 0.  1.
         -2   -1    0    0    0  501 -0.00000000000E+00 -0.00000000000E+00 -0.21731189432E+02  0.21731189432E+02  0.00000000000E+00 0. -1.
         23    2    1    2    0    0  0.14769144567E+02  0.94971504236E+01  0.88935036815E+02  0.12853552758E+03  0.91124187678E+02 0.  0.
         11    1    3    3    0    0  0.44043285978E+02 -0.91715409786E+01  0.15983505233E+02  0.47743069059E+02  0.00000000000E+00 0. -1.
        -11    1    3    3    0    0 -0.29274141410E+02  0.18668691402E+02  0.72951531582E+02  0.80792458523E+02  0.00000000000E+00 0.  1.
         22    1    1    2    0    0 -0.14769144567E+02 -0.94971504236E+01  0.37987806794E+02  0.41849694891E+02  0.00000000000E+00 0. -1.
<mgrwt>
<rscale>  0 0.61205256E+02</rscale>
<asrwt>0</asrwt>
<pdfrwt beam="1">  1        2 0.22869851E-01 0.92800545E+02</pdfrwt>
<pdfrwt beam="2">  1       -2 0.33432600E-02 0.92800545E+02</pdfrwt>
<totfact> 0.73747432E+04</totfact>
</mgrwt>
</event>
<event>
 6    1  0.1723639E-002  0.9145166E+02  0.7546771E-02  0.1413015E+00
          2   -1    0    0  501    0  0.00000000000E+00  0.00000000000E+00  0.18346857236E+03  0.18346857236E+03  0.00000000000E+00 0.  1.
         -2   -1    0    0    0  501 -0.00000000000E+00 -0.00000000000E+00 -0.15028822289E+02  0.15028822289E+02  0.00000000000E+00 0. -1.
         23    2    1    2    0    0  0.11591681743E+02  0.66192854503E+01  0.14242844762E+03  0.16926094683E+03  0.90472224507E+02 0.  0.
         13    1    3    3    0    0  0.63018388510E+01 -0.24255513089E+02  0.17330594004E+01  0.25120640577E+02  0.00000000000E+00 0. -1.
        -13    1    3    3    0    0  0.52898428921E+01  0.30874798539E+02  0.14069538821E+03  0.14414030626E+03  0.00000000000E+00 0.  1.
         22    1    1    2    0    0 -0.11591681743E+02 -0.66192854503E+01  0.26011302455E+02  0.29236447816E+02  0.00000000000E+00 0. -1.
<mgrwt>
<rscale>  0 0.56526444E+02</rscale>
<asrwt>0</asrwt>
<pdfrwt beam="1">  1        2 0.28225933E-01 0.91451656E+02</pdfrwt>
<pdfrwt beam="2">  1       -2 0.23121266E-02 0.91451656E+02</pdfrwt>
<totfact> 0.99950518E+04</totfact>
</mgrwt>
</event>
<event>
 6    1  0.1723639E-002  0.9883769E+02  0.7546771E-02  0.1368593E+00
         -2   -1    0    0    0  501 -0.00000000000E+00  0.00000000000E+00  0.12532561323E+02  0.12532561323E+02  0.00000000000E+00 0. -1.
          2   -1    0    0  501    0  0.00000000000E+00 -0.00000000000E+00 -0.29626268528E+03  0.29626268528E+03  0.00000000000E+00 0.  1.
         23    2    1    2    0    0  0.14687000785E+01  0.21526884697E+02 -0.21234786374E+03  0.23422319474E+03  0.96453749934E+02 0.  0.
         13    1    3    3    0    0 -0.11703349270E+02  0.51863941824E+02 -0.18102526795E+03  0.18867163136E+03  0.00000000000E+00 0.  1.
        -13    1    3    3    0    0  0.13172049349E+02 -0.30337057126E+02 -0.31322595787E+02  0.45551563376E+02  0.00000000000E+00 0. -1.
         22    1    1    2    0    0 -0.14687000785E+01 -0.21526884697E+02 -0.71382260223E+02  0.74572051864E+02  0.00000000000E+00 0.  1.
<mgrwt>
<rscale>  0 0.67559956E+02</rscale>
<asrwt>0</asrwt>
<pdfrwt beam="1">  1        2 0.45578872E-01 0.98837694E+02</pdfrwt>
<pdfrwt beam="2">  1       -2 0.19280865E-02 0.98837694E+02</pdfrwt>
<totfact> 0.79077204E+04</totfact>
</mgrwt>
</event>
<event>
 6    1  0.1723639E-002  0.9722997E+02  0.7546771E-02  0.1352524E+00
         -4   -1    0    0    0  501 -0.00000000000E+00  0.00000000000E+00  0.19141188047E+03  0.19141188047E+03  0.00000000000E+00 0.  1.
          4   -1    0    0  501    0  0.00000000000E+00 -0.00000000000E+00 -0.22860767076E+02  0.22860767076E+02  0.00000000000E+00 0. -1.
         23    2    1    2    0    0  0.83733238486E+01 -0.28480148750E+02  0.15156430088E+03  0.18007055369E+03  0.92587448274E+02 0.  0.
         11    1    3    3    0    0  0.37798833285E+02  0.15384890489E+02  0.90853229212E+02  0.99597971421E+02  0.00000000000E+00 0. -1.
        -11    1    3    3    0    0 -0.29425509436E+02 -0.43865039239E+02  0.60711071669E+02  0.80472582264E+02  0.00000000000E+00 0.  1.
         22    1    1    2    0    0 -0.83733238486E+01  0.28480148750E+02  0.16986812514E+02  0.34202093861E+02  0.00000000000E+00 0.  1.
<mgrwt>
<rscale>  0 0.72274710E+02</rscale>
<asrwt>0</asrwt>
<pdfrwt beam="1">  1        4 0.35170412E-02 0.97229970E+02</pdfrwt>
<pdfrwt beam="2">  1       -4 0.29447981E-01 0.97229970E+02</pdfrwt>
<totfact> 0.68913711E+03</totfact>
</mgrwt>
</event>
<event>
 6    1  0.1723639E-002  0.9459177E+02  0.7546771E-02  0.1422803E+00
         -2   -1    0    0    0  501 -0.00000000000E+00  0.00000000000E+00  0.17852373200E+03  0.17852373200E+03  0.00000000000E+00 0.  1.
          2   -1    0    0  501    0  0.00000000000E+00 -0.00000000000E+00 -0.17020206121E+02  0.17020206121E+02  0.00000000000E+00 0. -1.
         23    2    1    2    0    0  0.16520001600E+01 -0.10239736169E+02  0.15877915015E+03  0.18481996850E+03  0.94021385505E+02 0.  0.
         11    1    3    3    0    0  0.59631429941E+01  0.40168856786E+01  0.16743760839E+03  0.16759190657E+03  0.00000000000E+00 0.  1.
        -11    1    3    3    0    0 -0.43111428342E+01 -0.14256621847E+02 -0.86584582326E+01  0.17228061934E+02  0.00000000000E+00 0. -1.
         22    1    1    2    0    0 -0.16520001600E+01  0.10239736169E+02  0.27243757268E+01  0.10723969621E+02  0.00000000000E+00 0. -1.
<mgrwt>
<rscale>  0 0.54432352E+02</rscale>
<asrwt>0</asrwt>
<pdfrwt beam="1">  1        2 0.26184934E-02 0.94591766E+02</pdfrwt>
<pdfrwt beam="2">  1       -2 0.27465188E-01 0.94591766E+02</pdfrwt>
<totfact> 0.39416528E+04</totfact>
</mgrwt>
</event>
<event>
 6    1  0.1723639E-002  0.1227624E+03  0.7546771E-02  0.1258227E+00
          2   -1    0    0  501    0  0.00000000000E+00  0.00000000000E+00  0.12691125032E+04  0.12691125032E+04  0.00000000000E+00 0. -1.
         -2   -1    0    0    0  501 -0.00000000000E+00 -0.00000000000E+00 -0.10107352424E+02  0.10107352424E+02  0.00000000000E+00 0.  1.
         23    2    1    2    0    0 -0.25830643178E+02  0.78740265918E+02  0.99420822741E+03  0.10017587552E+04  0.90572361344E+02 0.  0.
         13    1    3    3    0    0 -0.22838668510E+02  0.30832786930E+02  0.82451170380E+03  0.82540403151E+03  0.00000000000E+00 0. -1.
        -13    1    3    3    0    0 -0.29919746686E+01  0.47907478988E+02  0.16969652360E+03  0.17635472372E+03  0.00000000000E+00 0.  1.
         22    1    1    2    0    0  0.25830643178E+02 -0.78740265918E+02  0.26479692334E+03  0.27746110036E+03  0.00000000000E+00 0.  1.
<mgrwt>
<rscale>  0 0.11127481E+03</rscale>
<asrwt>0</asrwt>
<pdfrwt beam="1">  1        2 0.19524795E+00 0.12276239E+03</pdfrwt>
<pdfrwt beam="2">  1       -2 0.15549783E-02 0.12276239E+03</pdfrwt>
<totfact> 0.19488910E+04</totfact>
</mgrwt>
</event>
<event>
 6    1  0.1723639E-002  0.9636677E+02  0.7546771E-02  0.1354091E+00
          2   -1    0    0  501    0  0.00000000000E+00  0.00000000000E+00  0.44690808012E+03  0.44690808012E+03  0.00000000000E+00 0. -1.
         -2   -1    0    0    0  501 -0.00000000000E+00 -0.00000000000E+00 -0.12442743976E+02  0.12442743976E+02  0.00000000000E+00 0.  1.
         23    2    1    2    0    0 -0.28620828529E+02 -0.78967057331E+01  0.40911225444E+03  0.42030868610E+03  0.91679033020E+02 0.  0.
         13    1    3    3    0    0 -0.39942197668E+02 -0.42697769420E+02  0.21681483648E+03  0.22455990734E+03  0.00000000000E+00 0.  1.
        -13    1    3    3    0    0  0.11321369140E+02  0.34801063687E+02  0.19229741796E+03  0.19574877876E+03  0.00000000000E+00 0. -1.
         22    1    1    2    0    0  0.28620828529E+02  0.78967057331E+01  0.25353081708E+02  0.39042137995E+02  0.00000000000E+00 0.  1.
<mgrwt>
<rscale>  0 0.71795773E+02</rscale>
<asrwt>0</asrwt>
<pdfrwt beam="1">  1        2 0.68755077E-01 0.96366773E+02</pdfrwt>
<pdfrwt beam="2">  1       -2 0.19142686E-02 0.96366773E+02</pdfrwt>
<totfact> 0.51652696E+04</totfact>
</mgrwt>
</event>
<event>
 6    1  0.1723639E-002  0.9112841E+02  0.7546771E-02  0.1416360E+00
         -1   -1    0    0    0  501 -0.00000000000E+00  0.00000000000E+00  0.61168654290E+02  0.61168654290E+02  0.00000000000E+00 0.  1.
          1   -1    0    0  501    0  0.00000000000E+00 -0.00000000000E+00 -0.66898882441E+02  0.66898882441E+02  0.00000000000E+00 0. -1.
         23    2    1    2    0    0  0.12708569803E+02  0.16039371930E+01  0.25234645917E+02  0.94557780137E+02  0.90223644733E+02 0.  0.
         13    1    3    3    0    0 -0.22325342669E+01  0.15494341942E+00  0.58248458184E+02  0.58291432454E+02  0.00000000000E+00 0.  1.
        -13    1    3    3    0    0  0.14941104070E+02  0.14489937736E+01 -0.33013812268E+02  0.36266347682E+02  0.00000000000E+00 0. -1.
         22    1    1    2    0    0 -0.12708569803E+02 -0.16039371930E+01 -0.30964874068E+02  0.33509756594E+02  0.00000000000E+00 0. -1.
<mgrwt>
<rscale>  0 0.55798485E+02</rscale>
<asrwt>0</asrwt>
<pdfrwt beam="1">  1        1 0.10292136E-01 0.91128406E+02</pdfrwt>
<pdfrwt beam="2">  1       -1 0.94105622E-02 0.91128406E+02</pdfrwt>
<totfact> 0.35913465E+04</totfact>
</mgrwt>
</event>
<event>
 6    1  0.1723639E-002  0.9792020E+02  0.7546771E-02  0.1402842E+00
          1   -1    0    0  501    0  0.00000000000E+00  0.00000000000E+00  0.24620214442E+02  0.24620214442E+02  0.00000000000E+00 0. -1.
         -1   -1    0    0    0  501 -0.00000000000E+00 -0.00000000000E+00 -0.19572176866E+03  0.19572176866E+03  0.00000000000E+00 0.  1.
         23    2    1    2    0    0 -0.11869835994E+02 -0.46580327816E+01 -0.17991877615E+03  0.20483928403E+03  0.97086435698E+02 0.  0.
         11    1    3    3    0    0  0.33494805112E+02 -0.19932675198E+02 -0.12983676833E+03  0.13556105607E+03  0.00000000000E+00 0. -1.
        -11    1    3    3    0    0 -0.45364641106E+02  0.15274642417E+02 -0.50082007813E+02  0.69278227966E+02  0.00000000000E+00 0.  1.
         22    1    1    2    0    0  0.11869835994E+02  0.46580327816E+01  0.88172219290E+01  0.15502699070E+02  0.00000000000E+00 0.  1.
<mgrwt>
<rscale>  0 0.58822171E+02</rscale>
<asrwt>0</asrwt>
<pdfrwt beam="1">  1        1 0.37877252E-02 0.97920204E+02</pdfrwt>
<pdfrwt beam="2">  1       -1 0.30111042E-01 0.97920204E+02</pdfrwt>
<totfact> 0.22201228E+04</totfact>
</mgrwt>
</event>
<event>
 6    1  0.1723639E-002  0.9719090E+02  0.7546771E-02  0.1410742E+00
         -2   -1    0    0    0  501 -0.00000000000E+00  0.00000000000E+00  0.72437928290E+02  0.72437928290E+02  0.00000000000E+00 0.  1.
          2   -1    0    0  501    0  0.00000000000E+00 -0.00000000000E+00 -0.41834436591E+02  0.41834436591E+02  0.00000000000E+00 0. -1.
         23    2    1    2    0    0 -0.85941011354E+01 -0.76730582361E+01  0.32735407210E+02  0.10255573308E+03  0.96505632506E+02 0.  0.
         11    1    3    3    0    0  0.37058797087E+02 -0.49345591689E+01 -0.11311012639E+02  0.39059484414E+02  0.00000000000E+00 0. -1.
        -11    1    3    3    0    0 -0.45652898223E+02 -0.27384990672E+01  0.44046419848E+02  0.63496248667E+02  0.00000000000E+00 0.  1.
         22    1    1    2    0    0  0.85941011354E+01  0.76730582361E+01 -0.21319155104E+01  0.11716631801E+02  0.00000000000E+00 0.  1.
<mgrwt>
<rscale>  0 0.57028526E+02</rscale>
<asrwt>0</asrwt>
<pdfrwt beam="1">  1        2 0.64360672E-02 0.97190902E+02</pdfrwt>
<pdfrwt beam="2">  1       -2 0.11144297E-01 0.97190902E+02</pdfrwt>
<totfact> 0.54361438E+04</totfact>
</mgrwt>
</event>
<event>
 6    1  0.1723639E-002  0.9231694E+02  0.7546771E-02  0.1424379E+00
         -3   -1    0    0    0  501 -0.00000000000E+00  0.00000000000E+00  0.64076440388E+03  0.64076440388E+03  0.00000000000E+00 0.  1.
          3   -1    0    0  501    0  0.00000000000E+00 -0.00000000000E+00 -0.48116449007E+01  0.48116449007E+01  0.00000000000E+00 0. -1.
         23    2    1    2    0    0  0.10869538019E+02  0.69963809499E+00  0.61567888098E+03  0.62256156466E+03  0.91672138393E+02 0.  0.
         11    1    3    3    0    0  0.78464746314E+00  0.31621682034E+02  0.52958445408E+03  0.53052826546E+03  0.00000000000E+00 0. -1.
        -11    1    3    3    0    0  0.10084890556E+02 -0.30922043939E+02  0.86094426898E+02  0.92033299201E+02  0.00000000000E+00 0.  1.
         22    1    1    2    0    0 -0.10869538019E+02 -0.69963809499E+00  0.20273878006E+02  0.23014484127E+02  0.00000000000E+00 0.  1.
<mgrwt>
<rscale>  0 0.54105108E+02</rscale>
<asrwt>0</asrwt>
<pdfrwt beam="1">  1        3 0.74025357E-03 0.92316939E+02</pdfrwt>
<pdfrwt beam="2">  1       -3 0.98579072E-01 0.92316939E+02</pdfrwt>
<totfact> 0.83684237E+03</totfact>
</mgrwt>
</event>
<event>
 6    1  0.1723639E-002  0.9061872E+02  0.7546771E-02  0.1422115E+00
          2   -1    0    0  501    0  0.00000000000E+00  0.00000000000E+00  0.15447659424E+03  0.15447659424E+03  0.00000000000E+00 0. -1.
         -2   -1    0    0    0  501 -0.00000000000E+00 -0.00000000000E+00 -0.22671710660E+02  0.22671710660E+02  0.00000000000E+00 0.  1.
         23    2    1    2    0    0 -0.86931623353E+01 -0.81586885887E+01  0.70821807043E+02  0.11501078890E+03  0.89831052201E+02 0.  0.
         13    1    3    3    0    0  0.92510868203E+00 -0.18828673759E+02  0.89490730563E+02  0.91454719059E+02  0.00000000000E+00 0. -1.
        -13    1    3    3    0    0 -0.96182710173E+01  0.10669985170E+02 -0.18668923520E+02  0.23556069840E+02  0.00000000000E+00 0.  1.
         22    1    1    2    0    0  0.86931623353E+01  0.81586885887E+01  0.60983076532E+02  0.62137515997E+02  0.00000000000E+00 0. -1.
<mgrwt>
<rscale>  0 0.54575936E+02</rscale>
<asrwt>0</asrwt>
<pdfrwt beam="1">  1        2 0.23765629E-01 0.90618724E+02</pdfrwt>
<pdfrwt beam="2">  1       -2 0.34879556E-02 0.90618724E+02</pdfrwt>
<totfact> 0.66231628E+04</totfact>
</mgrwt>
</event>
<event>
 6    1  0.1723639E-002  0.9301662E+02  0.7546771E-02  0.1403775E+00
         -4   -1    0    0    0  501 -0.00000000000E+00  0.00000000000E+00  0.48908598696E+02  0.48908598696E+02  0.00000000000E+00 0.  1.
          4   -1    0    0  501    0  0.00000000000E+00 -0.00000000000E+00 -0.98783715678E+02  0.98783715678E+02  0.00000000000E+00 0. -1.
         23    2    1    2    0    0 -0.14040816413E+02  0.42110059554E+01  0.27565386265E+01  0.93057451249E+02  0.91854306546E+02 0.  0.
         11    1    3    3    0    0 -0.97063098548E+01 -0.41973892655E+02  0.14049896721E+02  0.45314674373E+02  0.00000000000E+00 0.  1.
        -11    1    3    3    0    0 -0.43345065583E+01  0.46184898611E+02 -0.11293358094E+02  0.47742776876E+02  0.00000000000E+00 0. -1.
         22    1    1    2    0    0  0.14040816413E+02 -0.42110059554E+01 -0.52631655608E+02  0.54634863125E+02  0.00000000000E+00 0. -1.
<mgrwt>
<rscale>  0 0.58606281E+02</rscale>
<asrwt>0</asrwt>
<pdfrwt beam="1">  1        4 0.15197495E-01 0.93016615E+02</pdfrwt>
<pdfrwt beam="2">  1       -4 0.75243999E-02 0.93016615E+02</pdfrwt>
<totfact> 0.66273373E+03</totfact>
</mgrwt>
</event>
<event>
 6    1  0.1723639E-002  0.9557166E+02  0.7546771E-02  0.1354240E+00
         -2   -1    0    0    0  501 -0.00000000000E+00  0.00000000000E+00  0.59477331911E+02  0.59477331911E+02  0.00000000000E+00 0. -1.
          2   -1    0    0  501    0  0.00000000000E+00 -0.00000000000E+00 -0.91288082654E+02  0.91288082654E+02  0.00000000000E+00 0.  1.
         23    2    1    2    0    0 -0.25368939483E+02  0.16678339802E+02  0.13193376269E+02  0.96478016790E+02  0.90621147848E+02 0.  0.
         11    1    3    3    0    0 -0.50543945771E+02  0.15964153307E+02  0.34705347924E+02  0.63356182172E+02  0.00000000000E+00 0. -1.
        -11    1    3    3    0    0  0.25175006289E+02  0.71418649483E+00 -0.21511971654E+02  0.33121834618E+02  0.00000000000E+00 0.  1.
         22    1    1    2    0    0  0.25368939483E+02 -0.16678339802E+02 -0.45004127012E+02  0.54287397775E+02  0.00000000000E+00 0. -1.
<mgrwt>
<rscale>  0 0.71750264E+02</rscale>
<asrwt>0</asrwt>
<pdfrwt beam="1">  1        2 0.14044320E-01 0.95571662E+02</pdfrwt>
<pdfrwt beam="2">  1       -2 0.91503588E-02 0.95571662E+02</pdfrwt>
<totfact> 0.28478848E+04</totfact>
</mgrwt>
</event>
<event>
 6    1  0.1723639E-002  0.9267556E+02  0.7546771E-02  0.1401619E+00
         -3   -1    0    0    0  501 -0.00000000000E+00  0.00000000000E+00  0.82557628452E+02  0.82557628452E+02  0.00000000000E+00 0.  1.
          3   -1    0    0  501    0  0.00000000000E+00 -0.00000000000E+00 -0.35936461268E+02  0.35936461268E+02  0.00000000000E+00 0. -1.
         23    2    1    2    0    0  0.11011278487E+02  0.10671574500E+02  0.45152901578E+02  0.10308998117E+03  0.91398188938E+02 0.  0.
         13    1    3    3    0    0 -0.35515620051E+02  0.57185463868E+00 -0.26544252271E+01  0.35619268081E+02  0.00000000000E+00 0. -1.
        -13    1    3    3    0    0  0.46526898539E+02  0.10099719861E+02  0.47807326806E+02  0.67470713092E+02  0.00000000000E+00 0.  1.
         22    1    1    2    0    0 -0.11011278487E+02 -0.10671574500E+02  0.14682656050E+01  0.15404108547E+02  0.00000000000E+00 0. -1.
<mgrwt>
<rscale>  0 0.59106821E+02</rscale>
<asrwt>0</asrwt>
<pdfrwt beam="1">  1        3 0.55286864E-02 0.92675561E+02</pdfrwt>
<pdfrwt beam="2">  1       -3 0.12701174E-01 0.92675561E+02</pdfrwt>
<totfact> 0.19645748E+04</totfact>
</mgrwt>
</event>
<event>
 6    1  0.1723639E-002  0.9122713E+02  0.7546771E-02  0.1397798E+00
         -2   -1    0    0    0  501 -0.00000000000E+00  0.00000000000E+00  0.47623709005E+01  0.47623709005E+01  0.00000000000E+00 0.  1.
          2   -1    0    0  501    0  0.00000000000E+00 -0.00000000000E+00 -0.61863686535E+03  0.61863686535E+03  0.00000000000E+00 0. -1.
         23    2    1    2    0    0  0.95113861547E+01  0.14185452173E+02 -0.53157996667E+03  0.53935113798E+03  0.89614148207E+02 0.  0.
         13    1    3    3    0    0  0.23380000973E+02 -0.17442407538E+02 -0.44757353728E+03  0.44852305771E+03  0.00000000000E+00 0. -1.
        -13    1    3    3    0    0 -0.13868614818E+02  0.31627859711E+02 -0.84006429392E+02  0.90828080273E+02  0.00000000000E+00 0.  1.
         22    1    1    2    0    0 -0.95113861547E+01 -0.14185452173E+02 -0.82294527783E+02  0.84048098270E+02  0.00000000000E+00 0. -1.
<mgrwt>
<rscale>  0 0.60007959E+02</rscale>
<asrwt>0</asrwt>
<pdfrwt beam="1">  1        2 0.95174780E-01 0.91227129E+02</pdfrwt>
<pdfrwt beam="2">  1       -2 0.73267339E-03 0.91227129E+02</pdfrwt>
<totfact> 0.14074328E+05</totfact>
</mgrwt>
</event>
<event>
 6    1  0.1723639E-002  0.8901761E+02  0.7546771E-02  0.1424471E+00
         -2   -1    0    0    0  501 -0.00000000000E+00  0.00000000000E+00  0.94083752669E+02  0.94083752669E+02  0.00000000000E+00 0.  1.
          2   -1    0    0  501    0  0.00000000000E+00 -0.00000000000E+00 -0.27990020348E+02  0.27990020348E+02  0.00000000000E+00 0. -1.
         23    2    1    2    0    0 -0.81135065972E+01 -0.90189769216E+01  0.64297060159E+02  0.10981004745E+03  0.88187094527E+02 0.  0.
         11    1    3    3    0    0  0.15699495497E+01  0.23363411982E+02  0.71513034438E+02  0.75249105347E+02  0.00000000000E+00 0.  1.
        -11    1    3    3    0    0 -0.96834561469E+01 -0.32382388903E+02 -0.72159742783E+01  0.34560942100E+02  0.00000000000E+00 0. -1.
         22    1    1    2    0    0  0.81135065972E+01  0.90189769216E+01  0.17966721619E+01  0.12263725571E+02  0.00000000000E+00 0.  1.
<mgrwt>
<rscale>  0 0.54085979E+02</rscale>
<asrwt>0</asrwt>
<pdfrwt beam="1">  1        2 0.43061570E-02 0.89017608E+02</pdfrwt>
<pdfrwt beam="2">  1       -2 0.14474423E-01 0.89017608E+02</pdfrwt>
<totfact> 0.59350338E+04</totfact>
</mgrwt>
</event>
<event>
 6    1  0.1723639E-002  0.9124871E+02  0.7546771E-02  0.1386200E+00
         -2   -1    0    0    0  501 -0.00000000000E+00  0.00000000000E+00  0.22842452712E+02  0.22842452712E+02  0.00000000000E+00 0.  1.
          2   -1    0    0  501    0  0.00000000000E+00 -0.00000000000E+00 -0.14998879736E+03  0.14998879736E+03  0.00000000000E+00 0. -1.
         23    2    1    2    0    0 -0.20547454961E+02 -0.45536935087E+00 -0.12066215362E+03  0.15128014801E+03  0.88904007781E+02 0.  0.
         11    1    3    3    0    0  0.15136734105E+02 -0.36632542407E+02 -0.43103298251E+02  0.58557306996E+02  0.00000000000E+00 0.  1.
        -11    1    3    3    0    0 -0.35684189067E+02  0.36177173056E+02 -0.77558855373E+02  0.92722841018E+02  0.00000000000E+00 0. -1.
         22    1    1    2    0    0  0.20547454961E+02  0.45536935087E+00 -0.64841910224E+01  0.21551102057E+02  0.00000000000E+00 0.  1.
<mgrwt>
<rscale>  0 0.62861716E+02</rscale>
<asrwt>0</asrwt>
<pdfrwt beam="1">  1        2 0.23075199E-01 0.91248714E+02</pdfrwt>
<pdfrwt beam="2">  1       -2 0.35142236E-02 0.91248714E+02</pdfrwt>
<totfact> 0.67729703E+04</totfact>
</mgrwt>
</event>
<event>
 6    1  0.1723639E-002  0.1069553E+03  0.7546771E-02  0.1301340E+00
          2   -1    0    0  501    0  0.00000000000E+00  0.00000000000E+00  0.19776050440E+04  0.19776050440E+04  0.00000000000E+00 0. -1.
         -2   -1    0    0    0  501 -0.00000000000E+00 -0.00000000000E+00 -0.41717093466E+01  0.41717093466E+01  0.00000000000E+00 0.  1.
         23    2    1    2    0    0  0.42233887832E+02 -0.35441504862E+02  0.16666598704E+04  0.16700881910E+04  0.91649552394E+02 0.  0.
         13    1    3    3    0    0  0.22128650365E+02 -0.66317803814E+02  0.11387750368E+04  0.11409190649E+04  0.00000000000E+00 0. -1.
        -13    1    3    3    0    0  0.20105237467E+02  0.30876298951E+02  0.52788483366E+03  0.52916912610E+03  0.00000000000E+00 0.  1.
         22    1    1    2    0    0 -0.42233887832E+02  0.35441504862E+02  0.30677346419E+03  0.31168856232E+03  0.00000000000E+00 0.  1.
<mgrwt>
<rscale>  0 0.90626972E+02</rscale>
<asrwt>0</asrwt>
<pdfrwt beam="1">  1        2 0.30424618E+00 0.10695533E+03</pdfrwt>
<pdfrwt beam="2">  1       -2 0.64180302E-03 0.10695533E+03</pdfrwt>
<totfact> 0.29421073E+04</totfact>
</mgrwt>
</event>
<event>
 6    1  0.1723639E-002  0.1018473E+03  0.7546771E-02  0.1347311E+00
         -2   -1    0    0    0  501 -0.00000000000E+00  0.00000000000E+00  0.45998516828E+02  0.45998516828E+02  0.00000000000E+00 0.  1.
          2   -1    0    0  501    0  0.00000000000E+00 -0.00000000000E+00 -0.92240996951E+02  0.92240996951E+02  0.00000000000E+00 0. -1.
         23    2    1    2    0    0 -0.22517071660E+02  0.17029557922E+02 -0.39301262107E+02  0.10916710647E+03  0.97856239314E+02 0.  0.
         13    1    3    3    0    0  0.49089051788E-01  0.39217264534E+02  0.18429057063E+02  0.43331586533E+02  0.00000000000E+00 0.  1.
        -13    1    3    3    0    0 -0.22566160712E+02 -0.22187706612E+02 -0.57730319170E+02  0.65835519937E+02  0.00000000000E+00 0. -1.
         22    1    1    2    0    0  0.22517071660E+02 -0.17029557922E+02 -0.69412180152E+01  0.29072407308E+02  0.00000000000E+00 0.  1.
<mgrwt>
<rscale>  0 0.73900269E+02</rscale>
<asrwt>0</asrwt>
<pdfrwt beam="1">  1        2 0.14190923E-01 0.10184728E+03</pdfrwt>
<pdfrwt beam="2">  1       -2 0.70766949E-02 0.10184728E+03</pdfrwt>
<totfact> 0.42046304E+04</totfact>
</mgrwt>
</event>
<event>
 6    1  0.1723639E-002  0.8433237E+02  0.7546771E-02  0.1406855E+00
          2   -1    0    0  501    0  0.00000000000E+00  0.00000000000E+00  0.26166075493E+03  0.26166075493E+03  0.00000000000E+00 0. -1.
         -2   -1    0    0    0  501 -0.00000000000E+00 -0.00000000000E+00 -0.10182046250E+02  0.10182046250E+02  0.00000000000E+00 0.  1.
         23    2    1    2    0    0 -0.17519797736E+02  0.66530225611E+01  0.21134433715E+03  0.22754862775E+03  0.82223738193E+02 0.  0.
         13    1    3    3    0    0 -0.48551709342E+02 -0.43952734821E+01  0.97107522330E+02  0.10865752529E+03  0.00000000000E+00 0.  1.
        -13    1    3    3    0    0  0.31031911606E+02  0.11048296043E+02  0.11423681482E+03  0.11889110246E+03  0.00000000000E+00 0. -1.
         22    1    1    2    0    0  0.17519797736E+02 -0.66530225611E+01  0.40134371526E+02  0.44294173428E+02  0.00000000000E+00 0. -1.
<mgrwt>
<rscale>  0 0.57901656E+02</rscale>
<asrwt>0</asrwt>
<pdfrwt beam="1">  1        2 0.40255496E-01 0.84332373E+02</pdfrwt>
<pdfrwt beam="2">  1       -2 0.15664689E-02 0.84332373E+02</pdfrwt>
<totfact> 0.11838328E+05</totfact>
</mgrwt>
</event>
<event>
 6    1  0.1723639E-002  0.9195300E+02  0.7546771E-02  0.1429989E+00
          3   -1    0    0  501    0  0.00000000000E+00  0.00000000000E+00  0.43186503763E+02  0.43186503763E+02  0.00000000000E+00 0. -1.
         -3   -1    0    0    0  501 -0.00000000000E+00 -0.00000000000E+00 -0.64256666194E+02  0.64256666194E+02  0.00000000000E+00 0.  1.
         23    2    1    2    0    0 -0.35280088825E+01  0.94847284734E+01 -0.26845335499E+02  0.95791580157E+02  0.91394463016E+02 0.  0.
         11    1    3    3    0    0  0.95104976383E+01 -0.20745489110E+02 -0.50389726495E+02  0.55316809561E+02  0.00000000000E+00 0.  1.
        -11    1    3    3    0    0 -0.13038506521E+02  0.30230217583E+02  0.23544390996E+02  0.40474770596E+02  0.00000000000E+00 0. -1.
         22    1    1    2    0    0  0.35280088825E+01 -0.94847284734E+01  0.57751730685E+01  0.11651589800E+02  0.00000000000E+00 0.  1.
<mgrwt>
<rscale>  0 0.52962149E+02</rscale>
<asrwt>0</asrwt>
<pdfrwt beam="1">  1        3 0.66440775E-02 0.91953003E+02</pdfrwt>
<pdfrwt beam="2">  1       -3 0.98856409E-02 0.91953003E+02</pdfrwt>
<totfact> 0.22171413E+04</totfact>
</mgrwt>
</event>
<event>
 6    1  0.1723639E-002  0.9337456E+02  0.7546771E-02  0.1363569E+00
         -2   -1    0    0    0  501 -0.00000000000E+00  0.00000000000E+00  0.69903808452E+03  0.69903808452E+03  0.00000000000E+00 0. -1.
          2   -1    0    0  501    0  0.00000000000E+00 -0.00000000000E+00 -0.76641053361E+01  0.76641053361E+01  0.00000000000E+00 0.  1.
         23    2    1    2    0    0 -0.20931074780E+02  0.18330604100E+02  0.65104428634E+03  0.65770621999E+03  0.89132979869E+02 0.  0.
         13    1    3    3    0    0 -0.11846726379E+02  0.20028172363E+02  0.64732688170E+03  0.64774498407E+03  0.00000000000E+00 0. -1.
        -13    1    3    3    0    0 -0.90843484004E+01 -0.16975682629E+01  0.37174046417E+01  0.99612359242E+01  0.00000000000E+00 0.  1.
         22    1    1    2    0    0  0.20931074780E+02 -0.18330604100E+02  0.40329692840E+02  0.48995969861E+02  0.00000000000E+00 0.  1.
<mgrwt>
<rscale>  0 0.68987839E+02</rscale>
<asrwt>0</asrwt>
<pdfrwt beam="1">  1        2 0.11790937E-02 0.93374563E+02</pdfrwt>
<pdfrwt beam="2">  1       -2 0.10754427E+00 0.93374563E+02</pdfrwt>
<totfact> 0.74364302E+03</totfact>
</mgrwt>
</event>
<event>
 6    1  0.1723639E-002  0.9477985E+02  0.7546771E-02  0.1378270E+00
          4   -1    0    0  501    0  0.00000000000E+00  0.00000000000E+00  0.27617107883E+02  0.27617107883E+02  0.00000000000E+00 0. -1.
         -4   -1    0    0    0  501 -0.00000000000E+00 -0.00000000000E+00 -0.16820763457E+03  0.16820763457E+03  0.00000000000E+00 0.  1.
         23    2    1    2    0    0 -0.15052278488E+02  0.14447050697E+02 -0.14618702201E+03  0.17422360541E+03  0.92455021050E+02 0.  0.
         11    1    3    3    0    0 -0.10842898481E+02 -0.24456474396E+02 -0.43697813736E+01  0.27106873236E+02  0.00000000000E+00 0. -1.
        -11    1    3    3    0    0 -0.42093800072E+01  0.38903525094E+02 -0.14181724064E+03  0.14711673218E+03  0.00000000000E+00 0.  1.
         22    1    1    2    0    0  0.15052278488E+02 -0.14447050697E+02  0.55964953226E+01  0.21601137040E+02  0.00000000000E+00 0. -1.
<mgrwt>
<rscale>  0 0.64920840E+02</rscale>
<asrwt>0</asrwt>
<pdfrwt beam="1">  1        4 0.42487858E-02 0.94779846E+02</pdfrwt>
<pdfrwt beam="2">  1       -4 0.25878098E-01 0.94779846E+02</pdfrwt>
<totfact> 0.64585536E+03</totfact>
</mgrwt>
</event>
<event>
 6    1  0.1723639E-002  0.9412147E+02  0.7546771E-02  0.1365339E+00
          4   -1    0    0  501    0  0.00000000000E+00  0.00000000000E+00  0.47316673570E+02  0.47316673570E+02  0.00000000000E+00 0. -1.
         -4   -1    0    0    0  501 -0.00000000000E+00 -0.00000000000E+00 -0.80588306872E+02  0.80588306872E+02  0.00000000000E+00 0.  1.
         23    2    1    2    0    0  0.12313532714E+02  0.23323943011E+02 -0.37264038912E+02  0.10122973521E+03  0.90350546705E+02 0.  0.
         11    1    3    3    0    0  0.35265270413E+02 -0.21445085260E+02 -0.28512593370E+02  0.50164718276E+02  0.00000000000E+00 0.  1.
        -11    1    3    3    0    0 -0.22951737699E+02  0.44769028270E+02 -0.87514455422E+01  0.51065016937E+02  0.00000000000E+00 0. -1.
         22    1    1    2    0    0 -0.12313532714E+02 -0.23323943011E+02  0.39924056093E+01  0.26675245229E+02  0.00000000000E+00 0.  1.
<mgrwt>
<rscale>  0 0.68480001E+02</rscale>
<asrwt>0</asrwt>
<pdfrwt beam="1">  1        4 0.72794882E-02 0.94121468E+02</pdfrwt>
<pdfrwt beam="2">  1       -4 0.12398201E-01 0.94121468E+02</pdfrwt>
<totfact> 0.99573734E+03</totfact>
</mgrwt>
</event>
<event>
 6    1  0.1723639E-002  0.8637969E+02  0.7546771E-02  0.1393226E+00
         -2   -1    0    0    0  501 -0.00000000000E+00  0.00000000000E+00  0.12639206278E+03  0.12639206278E+03  0.00000000000E+00 0.  1.
          2   -1    0    0  501    0  0.00000000000E+00 -0.00000000000E+00 -0.23140585556E+02  0.23140585556E+02  0.00000000000E+00 0. -1.
         23    2    1    2    0    0  0.21489717785E+02 -0.25450323117E+01  0.85563936813E+02  0.12158386937E+03  0.83625144831E+02 0.  0.
         13    1    3    3    0    0 -0.17594398039E+02 -0.31569125690E+02  0.48048816998E+02  0.60123717068E+02  0.00000000000E+00 0.  1.
        -13    1    3    3    0    0  0.39084115824E+02  0.29024093378E+02  0.37515119815E+02  0.61460152302E+02  0.00000000000E+00 0. -1.
         22    1    1    2    0    0 -0.21489717785E+02  0.25450323117E+01  0.17687540411E+02  0.27948778967E+02  0.00000000000E+00 0.  1.
<mgrwt>
<rscale>  0 0.61111439E+02</rscale>
<asrwt>0</asrwt>
<pdfrwt beam="1">  1        2 0.35600902E-02 0.86379685E+02</pdfrwt>
<pdfrwt beam="2">  1       -2 0.19444932E-01 0.86379685E+02</pdfrwt>
<totfact> 0.46727333E+04</totfact>
</mgrwt>
</event>
<event>
 6    1  0.1723639E-002  0.9089639E+02  0.7546771E-02  0.1384976E+00
         -2   -1    0    0    0  501 -0.00000000000E+00  0.00000000000E+00  0.83200692681E+02  0.83200692681E+02  0.00000000000E+00 0.  1.
          2   -1    0    0  501    0  0.00000000000E+00 -0.00000000000E+00 -0.71700308113E+02  0.71700308113E+02  0.00000000000E+00 0. -1.
         23    2    1    2    0    0  0.15934230253E+02 -0.13996061187E+02  0.55187439402E+02  0.10633817363E+03  0.88387579895E+02 0.  0.
         13    1    3    3    0    0  0.36117648095E+02 -0.31896688919E+02  0.38445165428E+01  0.48339048143E+02  0.00000000000E+00 0. -1.
        -13    1    3    3    0    0 -0.20183417842E+02  0.17900627732E+02  0.51342922859E+02  0.57999125482E+02  0.00000000000E+00 0.  1.
         22    1    1    2    0    0 -0.15934230253E+02  0.13996061187E+02 -0.43687054834E+02  0.48562827169E+02  0.00000000000E+00 0. -1.
<mgrwt>
<rscale>  0 0.63173673E+02</rscale>
<asrwt>0</asrwt>
<pdfrwt beam="1">  1        2 0.11030817E-01 0.90896390E+02</pdfrwt>
<pdfrwt beam="2">  1       -2 0.12800107E-01 0.90896390E+02</pdfrwt>
<totfact> 0.22264682E+04</totfact>
</mgrwt>
</event>
<event>
 6    1  0.1723639E-002  0.9551672E+02  0.7546771E-02  0.1354112E+00
         -2   -1    0    0    0  501 -0.00000000000E+00  0.00000000000E+00  0.14865605419E+02  0.14865605419E+02  0.00000000000E+00 0.  1.
          2   -1    0    0  501    0  0.00000000000E+00 -0.00000000000E+00 -0.26697527715E+03  0.26697527715E+03  0.00000000000E+00 0. -1.
         23    2    1    2    0    0 -0.27611771767E+02  0.12906364769E+02 -0.19101105709E+03  0.21356186015E+03  0.90523256610E+02 0.  0.
         11    1    3    3    0    0 -0.36122614844E+02  0.47443495228E+02 -0.12788767418E+03  0.14110629239E+03  0.00000000000E+00 0.  1.
        -11    1    3    3    0    0  0.85108430768E+01 -0.34537130459E+02 -0.63123382906E+02  0.72455567762E+02  0.00000000000E+00 0. -1.
         22    1    1    2    0    0  0.27611771767E+02 -0.12906364769E+02 -0.61098614637E+02  0.68279022417E+02  0.00000000000E+00 0. -1.
<mgrwt>
<rscale>  0 0.71789445E+02</rscale>
<asrwt>0</asrwt>
<pdfrwt beam="1">  1        2 0.41073118E-01 0.95516722E+02</pdfrwt>
<pdfrwt beam="2">  1       -2 0.22870163E-02 0.95516722E+02</pdfrwt>
<totfact> 0.68634236E+04</totfact>
</mgrwt>
</event>
<event>
 6    1  0.1723639E-002  0.9017767E+02  0.7546771E-02  0.1390181E+00
         -4   -1    0    0    0  501 -0.00000000000E+00  0.00000000000E+00  0.20692858630E+03  0.20692858630E+03  0.00000000000E+00 0.  1.
          4   -1    0    0  501    0  0.00000000000E+00 -0.00000000000E+00 -0.14728512766E+02  0.14728512766E+02  0.00000000000E+00 0. -1.
         23    2    1    2    0    0 -0.68238947333E+01 -0.18768574664E+02  0.15114143069E+03  0.17599927294E+03  0.87938541438E+02 0.  0.
         11    1    3    3    0    0 -0.30857116053E+02 -0.30798309103E+02  0.14047401980E+03  0.14708381180E+03  0.00000000000E+00 0. -1.
        -11    1    3    3    0    0  0.24033221320E+02  0.12029734438E+02  0.10667410883E+02  0.28915461134E+02  0.00000000000E+00 0.  1.
         22    1    1    2    0    0  0.68238947333E+01  0.18768574664E+02  0.41058642845E+02  0.45657826125E+02  0.00000000000E+00 0.  1.
<mgrwt>
<rscale>  0 0.61861727E+02</rscale>
<asrwt>0</asrwt>
<pdfrwt beam="1">  1        4 0.22659252E-02 0.90177669E+02</pdfrwt>
<pdfrwt beam="2">  1       -4 0.31835165E-01 0.90177669E+02</pdfrwt>
<totfact> 0.11510589E+04</totfact>
</mgrwt>
</event>
<event>
 6    1  0.1723639E-002  0.7745822E+02  0.7546771E-02  0.1411409E+00
          2   -1    0    0  501    0  0.00000000000E+00  0.00000000000E+00  0.20389244724E+03  0.20389244724E+03  0.00000000000E+00 0. -1.
         -2   -1    0    0    0  501 -0.00000000000E+00 -0.00000000000E+00 -0.14555037390E+02  0.14555037390E+02  0.00000000000E+00 0.  1.
         23    2    1    2    0    0 -0.17195984247E+02  0.14548056068E+02  0.10099217182E+03  0.12727605878E+03  0.74110920646E+02 0.  0.
         11    1    3    3    0    0 -0.33001518888E+02  0.13055087078E+02  0.10505568607E+03  0.11088837957E+03  0.00000000000E+00 0. -1.
        -11    1    3    3    0    0  0.15805534641E+02  0.14929689899E+01 -0.40635142521E+01  0.16387679206E+02  0.00000000000E+00 0.  1.
         22    1    1    2    0    0  0.17195984247E+02 -0.14548056068E+02  0.88345238026E+02  0.91171425849E+02  0.00000000000E+00 0. -1.
<mgrwt>
<rscale>  0 0.56880561E+02</rscale>
<asrwt>0</asrwt>
<pdfrwt beam="1">  1        2 0.31368067E-01 0.77458223E+02</pdfrwt>
<pdfrwt beam="2">  1       -2 0.22392367E-02 0.77458223E+02</pdfrwt>
<totfact> 0.91126714E+04</totfact>
</mgrwt>
</event>
<event>
 6    1  0.1723639E-002  0.9932275E+02  0.7546771E-02  0.1336094E+00
         -2   -1    0    0    0  501 -0.00000000000E+00  0.00000000000E+00  0.15231891093E+02  0.15231891093E+02  0.00000000000E+00 0. -1.
          2   -1    0    0  501    0  0.00000000000E+00 -0.00000000000E+00 -0.30851773703E+03  0.30851773703E+03  0.00000000000E+00 0.  1.
         23    2    1    2    0    0  0.36696469264E+02  0.43224379797E+01 -0.19711280555E+03  0.22072260243E+03  0.92193789291E+02 0.  0.
         11    1    3    3    0    0  0.19605422495E+02  0.29021902115E+02 -0.18514142481E+02  0.39615866334E+02  0.00000000000E+00 0. -1.
        -11    1    3    3    0    0  0.17091046769E+02 -0.24699464135E+02 -0.17859866307E+03  0.18110673609E+03  0.00000000000E+00 0.  1.
         22    1    1    2    0    0 -0.36696469264E+02 -0.43224379797E+01 -0.96173040382E+02  0.10302702569E+03  0.00000000000E+00 0. -1.
<mgrwt>
<rscale>  0 0.77569437E+02</rscale>
<asrwt>0</asrwt>
<pdfrwt beam="1">  1        2 0.47464271E-01 0.99322752E+02</pdfrwt>
<pdfrwt beam="2">  1       -2 0.23433677E-02 0.99322752E+02</pdfrwt>
<totfact> 0.57242488E+04</totfact>
</mgrwt>
</event>
<event>
 6    1  0.1723639E-002  0.9347492E+02  0.7546771E-02  0.1377177E+00
          2   -1    0    0  501    0  0.00000000000E+00  0.00000000000E+00  0.19430856267E+03  0.19430856267E+03  0.00000000000E+00 0. -1.
         -2   -1    0    0    0  501 -0.00000000000E+00 -0.00000000000E+00 -0.27815221873E+02  0.27815221873E+02  0.00000000000E+00 0.  1.
         23    2    1    2    0    0 -0.75012832177E+01 -0.20832598146E+02  0.55004790511E+02  0.10845776834E+03  0.90814614121E+02 0.  0.
         11    1    3    3    0    0 -0.37530512173E+02 -0.35298246481E+02  0.10048247831E+02  0.52492597889E+02  0.00000000000E+00 0.  1.
        -11    1    3    3    0    0  0.30029228956E+02  0.14465648335E+02  0.44956542681E+02  0.55965170448E+02  0.00000000000E+00 0. -1.
         22    1    1    2    0    0  0.75012832177E+01  0.20832598146E+02  0.11148855029E+03  0.11366601621E+03  0.00000000000E+00 0. -1.
<mgrwt>
<rscale>  0 0.65211673E+02</rscale>
<asrwt>0</asrwt>
<pdfrwt beam="1">  1        2 0.29893624E-01 0.93474919E+02</pdfrwt>
<pdfrwt beam="2">  1       -2 0.42792650E-02 0.93474919E+02</pdfrwt>
<totfact> 0.38423596E+04</totfact>
</mgrwt>
</event>
<event>
 6    1  0.1723639E-002  0.9272106E+02  0.7546771E-02  0.1401715E+00
          1   -1    0    0  501    0  0.00000000000E+00  0.00000000000E+00  0.12712351221E+02  0.12712351221E+02  0.00000000000E+00 0. -1.
         -1   -1    0    0    0  501 -0.00000000000E+00 -0.00000000000E+00 -0.39386996958E+03  0.39386996958E+03  0.00000000000E+00 0.  1.
         23    2    1    2    0    0 -0.11697888653E+02 -0.98432395877E+01 -0.38011311625E+03  0.39125845219E+03  0.91451983582E+02 0.  0.
         11    1    3    3    0    0 -0.38143602155E+02 -0.28783221172E+02 -0.31357279290E+03  0.31719285089E+03  0.00000000000E+00 0. -1.
        -11    1    3    3    0    0  0.26445713501E+02  0.18939981584E+02 -0.66540323344E+02  0.74065601298E+02  0.00000000000E+00 0.  1.
         22    1    1    2    0    0  0.11697888653E+02  0.98432395877E+01 -0.10445021082E+01  0.15323868610E+02  0.00000000000E+00 0. -1.
<mgrwt>
<rscale>  0 0.59084436E+02</rscale>
<asrwt>0</asrwt>
<pdfrwt beam="1">  1        1 0.19557461E-02 0.92721062E+02</pdfrwt>
<pdfrwt beam="2">  1       -1 0.60595388E-01 0.92721062E+02</pdfrwt>
<totfact> 0.15940896E+04</totfact>
</mgrwt>
</event>
<event>
 6    1  0.1723639E-002  0.9104772E+02  0.7546771E-02  0.1430077E+00
         -1   -1    0    0    0  501 -0.00000000000E+00  0.00000000000E+00  0.45805512795E+03  0.45805512795E+03  0.00000000000E+00 0.  1.
          1   -1    0    0  501    0  0.00000000000E+00 -0.00000000000E+00 -0.10152801107E+02  0.10152801107E+02  0.00000000000E+00 0. -1.
         23    2    1    2    0    0 -0.80678021736E+01 -0.65797884989E+01  0.44862632395E+03  0.45777206683E+03  0.90450558781E+02 0.  0.
         13    1    3    3    0    0  0.28894110446E+02  0.27716245468E+02  0.17311005914E+03  0.17767991574E+03  0.00000000000E+00 0. -1.
        -13    1    3    3    0    0 -0.36961912620E+02 -0.34296033967E+02  0.27551626481E+03  0.28009215110E+03  0.00000000000E+00 0.  1.
         22    1    1    2    0    0  0.80678021736E+01  0.65797884989E+01 -0.72399710316E+00  0.10435862226E+02  0.00000000000E+00 0. -1.
<mgrwt>
<rscale>  0 0.52944636E+02</rscale>
<asrwt>0</asrwt>
<pdfrwt beam="1">  1        1 0.15619698E-02 0.91047716E+02</pdfrwt>
<pdfrwt beam="2">  1       -1 0.70470004E-01 0.91047716E+02</pdfrwt>
<totfact> 0.16237729E+04</totfact>
</mgrwt>
</event>
<event>
 6    1  0.1723639E-002  0.9702230E+02  0.7546771E-02  0.1385855E+00
          2   -1    0    0  501    0  0.00000000000E+00  0.00000000000E+00  0.48209227700E+02  0.48209227700E+02  0.00000000000E+00 0. -1.
         -2   -1    0    0    0  501 -0.00000000000E+00 -0.00000000000E+00 -0.67774477407E+02  0.67774477407E+02  0.00000000000E+00 0.  1.
         23    2    1    2    0    0  0.14931379859E+02 -0.85238408889E+01 -0.18396181176E+02  0.98750925609E+02  0.95486773214E+02 0.  0.
         13    1    3    3    0    0  0.31067064481E+02  0.20128576094E+02  0.24729791453E+02  0.44518363137E+02  0.00000000000E+00 0. -1.
        -13    1    3    3    0    0 -0.16135684622E+02 -0.28652416983E+02 -0.43125972629E+02  0.54232562473E+02  0.00000000000E+00 0.  1.
         22    1    1    2    0    0 -0.14931379859E+02  0.85238408889E+01 -0.11690685321E+01  0.17232779498E+02  0.00000000000E+00 0. -1.
<mgrwt>
<rscale>  0 0.62949469E+02</rscale>
<asrwt>0</asrwt>
<pdfrwt beam="1">  1        2 0.74168043E-02 0.97022296E+02</pdfrwt>
<pdfrwt beam="2">  1       -2 0.10426843E-01 0.97022296E+02</pdfrwt>
<totfact> 0.50456811E+04</totfact>
</mgrwt>
</event>
<event>
 6    1  0.1723639E-002  0.1086292E+03  0.7546771E-02  0.1294746E+00
          1   -1    0    0  501    0  0.00000000000E+00  0.00000000000E+00  0.15354220964E+03  0.15354220964E+03  0.00000000000E+00 0. -1.
         -1   -1    0    0    0  501 -0.00000000000E+00 -0.00000000000E+00 -0.46010612274E+02  0.46010612274E+02  0.00000000000E+00 0.  1.
         23    2    1    2    0    0 -0.47546538923E+01  0.59259385037E+02  0.67917127291E+02  0.12811342320E+03  0.90917718717E+02 0.  0.
         11    1    3    3    0    0  0.42036465988E+02  0.19282970020E+02  0.37077183204E+02  0.59275753221E+02  0.00000000000E+00 0. -1.
        -11    1    3    3    0    0 -0.46791119880E+02  0.39976415017E+02  0.30839944087E+02  0.68837669982E+02  0.00000000000E+00 0.  1.
         22    1    1    2    0    0  0.47546538923E+01 -0.59259385037E+02  0.39614470071E+02  0.71439398707E+02  0.00000000000E+00 0.  1.
<mgrwt>
<rscale>  0 0.93432445E+02</rscale>
<asrwt>0</asrwt>
<pdfrwt beam="1">  1        1 0.23621878E-01 0.10862925E+03</pdfrwt>
<pdfrwt beam="2">  1       -1 0.70785558E-02 0.10862925E+03</pdfrwt>
<totfact> 0.19405599E+04</totfact>
</mgrwt>
</event>
<event>
 6    1  0.1723639E-002  0.9154813E+02  0.7546771E-02  0.1395932E+00
          2   -1    0    0  501    0  0.00000000000E+00  0.00000000000E+00  0.10299250483E+03  0.10299250483E+03  0.00000000000E+00 0. -1.
         -2   -1    0    0    0  501 -0.00000000000E+00 -0.00000000000E+00 -0.31754909632E+02  0.31754909632E+02  0.00000000000E+00 0.  1.
         23    2    1    2    0    0  0.14701308286E+02  0.93249580059E+01  0.42007925913E+02  0.10072599660E+03  0.89877568077E+02 0.  0.
         13    1    3    3    0    0 -0.86974015887E+01 -0.15712084293E+02 -0.21832378051E+02  0.28269544011E+02  0.00000000000E+00 0.  1.
        -13    1    3    3    0    0  0.23398709874E+02  0.25037042299E+02  0.63840303964E+02  0.72456452584E+02  0.00000000000E+00 0. -1.
         22    1    1    2    0    0 -0.14701308286E+02 -0.93249580059E+01  0.29229669289E+02  0.34021417870E+02  0.00000000000E+00 0. -1.
<mgrwt>
<rscale>  0 0.60455020E+02</rscale>
<asrwt>0</asrwt>
<pdfrwt beam="1">  1        2 0.15845001E-01 0.91548132E+02</pdfrwt>
<pdfrwt beam="2">  1       -2 0.48853708E-02 0.91548132E+02</pdfrwt>
<totfact> 0.63626453E+04</totfact>
</mgrwt>
</event>
<event>
 6    1  0.1723639E-002  0.9478098E+02  0.7546771E-02  0.1364079E+00
         -1   -1    0    0    0  501 -0.00000000000E+00  0.00000000000E+00  0.14184886635E+03  0.14184886635E+03  0.00000000000E+00 0.  1.
          1   -1    0    0  501    0  0.00000000000E+00 -0.00000000000E+00 -0.32999844066E+02  0.32999844066E+02  0.00000000000E+00 0. -1.
         23    2    1    2    0    0 -0.15907157247E+02  0.21040839694E+02  0.11370540249E+03  0.14802821423E+03  0.91036690771E+02 0.  0.
         13    1    3    3    0    0  0.47067345268E+01 -0.13368224233E+02 -0.10414700428E+02  0.17587744427E+02  0.00000000000E+00 0. -1.
        -13    1    3    3    0    0 -0.20613891774E+02  0.34409063926E+02  0.12412010292E+03  0.13044046981E+03  0.00000000000E+00 0.  1.
         22    1    1    2    0    0  0.15907157247E+02 -0.21040839694E+02 -0.48563802091E+01  0.26820496182E+02  0.00000000000E+00 0. -1.
<mgrwt>
<rscale>  0 0.68841115E+02</rscale>
<asrwt>0</asrwt>
<pdfrwt beam="1">  1        1 0.50768992E-02 0.94780977E+02</pdfrwt>
<pdfrwt beam="2">  1       -1 0.21822902E-01 0.94780977E+02</pdfrwt>
<totfact> 0.25131222E+04</totfact>
</mgrwt>
</event>
<event>
 6    1  0.1723639E-002  0.9394491E+02  0.7546771E-02  0.1371469E+00
         -2   -1    0    0    0  501 -0.00000000000E+00  0.00000000000E+00  0.33622686250E+02  0.33622686250E+02  0.00000000000E+00 0.  1.
          2   -1    0    0  501    0  0.00000000000E+00 -0.00000000000E+00 -0.14972417894E+03  0.14972417894E+03  0.00000000000E+00 0. -1.
         23    2    1    2    0    0  0.16038184120E+02 -0.17798377991E+02 -0.12621611090E+03  0.15734088298E+03  0.90838544676E+02 0.  0.
         13    1    3    3    0    0  0.16875840475E+02 -0.53513184764E+02 -0.92676946501E+02  0.10833961117E+03  0.00000000000E+00 0. -1.
        -13    1    3    3    0    0 -0.83765635465E+00  0.35714806773E+02 -0.33539164396E+02  0.49001271814E+02  0.00000000000E+00 0.  1.
         22    1    1    2    0    0 -0.16038184120E+02  0.17798377991E+02  0.10114618208E+02  0.26005982206E+02  0.00000000000E+00 0.  1.
<mgrwt>
<rscale>  0 0.66760483E+02</rscale>
<asrwt>0</asrwt>
<pdfrwt beam="1">  1        2 0.23034490E-01 0.93944914E+02</pdfrwt>
<pdfrwt beam="2">  1       -2 0.51727208E-02 0.93944914E+02</pdfrwt>
<totfact> 0.38511375E+04</totfact>
</mgrwt>
</event>
<event>
 6    1  0.1723639E-002  0.9383505E+02  0.7546771E-02  0.1387373E+00
          2   -1    0    0  501    0  0.00000000000E+00  0.00000000000E+00  0.17712699909E+02  0.17712699909E+02  0.00000000000E+00 0. -1.
         -2   -1    0    0    0  501 -0.00000000000E+00 -0.00000000000E+00 -0.17923555610E+03  0.17923555610E+03  0.00000000000E+00 0.  1.
         23    2    1    2    0    0 -0.42120224686E+01 -0.18060155802E+02 -0.12914126981E+03  0.15963234121E+03  0.91984272735E+02 0.  0.
         13    1    3    3    0    0 -0.20955691417E+02  0.11686034107E+02  0.20421555938E+01  0.24080589598E+02  0.00000000000E+00 0. -1.
        -13    1    3    3    0    0  0.16743668948E+02 -0.29746189909E+02 -0.13118342540E+03  0.13555175161E+03  0.00000000000E+00 0.  1.
         22    1    1    2    0    0  0.42120224686E+01  0.18060155802E+02 -0.32381586378E+02  0.37315914798E+02  0.00000000000E+00 0.  1.
<mgrwt>
<rscale>  0 0.62564716E+02</rscale>
<asrwt>0</asrwt>
<pdfrwt beam="1">  1        2 0.27250310E-02 0.93835051E+02</pdfrwt>
<pdfrwt beam="2">  1       -2 0.27574699E-01 0.93835051E+02</pdfrwt>
<totfact> 0.37068964E+04</totfact>
</mgrwt>
</event>
<event>
 6    1  0.1723639E-002  0.9157901E+02  0.7546771E-02  0.1430053E+00
          2   -1    0    0  501    0  0.00000000000E+00  0.00000000000E+00  0.87036940976E+03  0.87036940976E+03  0.00000000000E+00 0. -1.
         -2   -1    0    0    0  501 -0.00000000000E+00 -0.00000000000E+00 -0.30157221524E+01  0.30157221524E+01  0.00000000000E+00 0.  1.
         23    2    1    2    0    0  0.92952361343E+01  0.42821471830E+01  0.80568550608E+03  0.81087351050E+03  0.91005368611E+02 0.  0.
         13    1    3    3    0    0 -0.37438141658E+02  0.17333687282E+02  0.29174829412E+03  0.29465087526E+03  0.00000000000E+00 0.  1.
        -13    1    3    3    0    0  0.46733377792E+02 -0.13051540099E+02  0.51393721196E+03  0.51622263524E+03  0.00000000000E+00 0. -1.
         22    1    1    2    0    0 -0.92952361343E+01 -0.42821471830E+01  0.61668181521E+02  0.62511621411E+02  0.00000000000E+00 0.  1.
<mgrwt>
<rscale>  0 0.52949285E+02</rscale>
<asrwt>0</asrwt>
<pdfrwt beam="1">  1        2 0.13390279E+00 0.91579011E+02</pdfrwt>
<pdfrwt beam="2">  1       -2 0.46395795E-03 0.91579011E+02</pdfrwt>
<totfact> 0.17828743E+05</totfact>
</mgrwt>
</event>
<event>
 6    1  0.1723639E-002  0.9496065E+02  0.7546771E-02  0.1355904E+00
          2   -1    0    0  501    0  0.00000000000E+00  0.00000000000E+00  0.64231632472E+02  0.64231632472E+02  0.00000000000E+00 0. -1.
         -2   -1    0    0    0  501 -0.00000000000E+00 -0.00000000000E+00 -0.79920873249E+02  0.79920873249E+02  0.00000000000E+00 0.  1.
         23    2    1    2    0    0 -0.11954943448E+02  0.27613900555E+02  0.20438066412E+02  0.97135163160E+02  0.90067070491E+02 0.  0.
         13    1    3    3    0    0 -0.10979699760E+02  0.58112057092E+02 -0.21362136093E+01  0.59178783317E+02  0.00000000000E+00 0. -1.
        -13    1    3    3    0    0 -0.97524368804E+00 -0.30498156536E+02  0.22574280021E+02  0.37956379844E+02  0.00000000000E+00 0.  1.
         22    1    1    2    0    0  0.11954943448E+02 -0.27613900555E+02 -0.36127307189E+02  0.47017342561E+02  0.00000000000E+00 0.  1.
<mgrwt>
<rscale>  0 0.71246858E+02</rscale>
<asrwt>0</asrwt>
<pdfrwt beam="1">  1        2 0.98817896E-02 0.94960652E+02</pdfrwt>
<pdfrwt beam="2">  1       -2 0.12295519E-01 0.94960652E+02</pdfrwt>
<totfact> 0.27243182E+04</totfact>
</mgrwt>
</event>
<event>
 6    1  0.1723639E-002  0.9351585E+02  0.7546771E-02  0.1387919E+00
         -2   -1    0    0    0  501 -0.00000000000E+00  0.00000000000E+00  0.15128625350E+02  0.15128625350E+02  0.00000000000E+00 0.  1.
          2   -1    0    0  501    0  0.00000000000E+00 -0.00000000000E+00 -0.22214472463E+03  0.22214472463E+03  0.00000000000E+00 0. -1.
         23    2    1    2    0    0  0.16111886178E+02 -0.92355734269E+01 -0.19134205227E+03  0.21297181829E+03  0.91653290868E+02 0.  0.
         13    1    3    3    0    0  0.38323054135E+01 -0.21379551538E+00  0.10177395864E+02  0.10877116341E+02  0.00000000000E+00 0.  1.
        -13    1    3    3    0    0  0.12279580764E+02 -0.90217779115E+01 -0.20151944813E+03  0.20209470195E+03  0.00000000000E+00 0. -1.
         22    1    1    2    0    0 -0.16111886178E+02  0.92355734269E+01 -0.15674047010E+02  0.24301531688E+02  0.00000000000E+00 0. -1.
<mgrwt>
<rscale>  0 0.62427191E+02</rscale>
<asrwt>0</asrwt>
<pdfrwt beam="1">  1        2 0.34176111E-01 0.93515851E+02</pdfrwt>
<pdfrwt beam="2">  1       -2 0.23274809E-02 0.93515851E+02</pdfrwt>
<totfact> 0.80988635E+04</totfact>
</mgrwt>
</event>
<event>
 6    1  0.1723639E-002  0.9230514E+02  0.7546771E-02  0.1413218E+00
         -3   -1    0    0    0  501 -0.00000000000E+00  0.00000000000E+00  0.15238870414E+03  0.15238870414E+03  0.00000000000E+00 0.  1.
          3   -1    0    0  501    0  0.00000000000E+00 -0.00000000000E+00 -0.18402543910E+02  0.18402543910E+02  0.00000000000E+00 0. -1.
         23    2    1    2    0    0  0.39689085306E+01 -0.12317138806E+02  0.11054609359E+03  0.14401624352E+03  0.91393519723E+02 0.  0.
         13    1    3    3    0    0 -0.29022432021E+02 -0.33284190845E+02  0.89066892798E+02  0.99413531842E+02  0.00000000000E+00 0. -1.
        -13    1    3    3    0    0  0.32991340552E+02  0.20967052039E+02  0.21479200790E+02  0.44602711680E+02  0.00000000000E+00 0.  1.
         22    1    1    2    0    0 -0.39689085306E+01  0.12317138806E+02  0.23440066644E+02  0.26775004530E+02  0.00000000000E+00 0.  1.
<mgrwt>
<rscale>  0 0.56481947E+02</rscale>
<asrwt>0</asrwt>
<pdfrwt beam="1">  1        3 0.28311607E-02 0.92305144E+02</pdfrwt>
<pdfrwt beam="2">  1       -3 0.23444415E-01 0.92305144E+02</pdfrwt>
<totfact> 0.19311294E+04</totfact>
</mgrwt>
</event>
<event>
 6    1  0.1723639E-002  0.9269009E+02  0.7546771E-02  0.1407118E+00
         -1   -1    0    0    0  501 -0.00000000000E+00  0.00000000000E+00  0.73186642148E+01  0.73186642148E+01  0.00000000000E+00 0.  1.
          1   -1    0    0  501    0  0.00000000000E+00 -0.00000000000E+00 -0.39655759328E+03  0.39655759328E+03  0.00000000000E+00 0. -1.
         23    2    1    2    0    0 -0.10107813043E+02 -0.97678793433E+01 -0.35409467329E+03  0.36602525929E+03  0.91618084633E+02 0.  0.
         11    1    3    3    0    0  0.33154180217E+02 -0.18942219973E+02 -0.83189765831E+02  0.91534389726E+02  0.00000000000E+00 0. -1.
        -11    1    3    3    0    0 -0.43261993260E+02  0.91743406302E+01 -0.27090490746E+03  0.27449086956E+03  0.00000000000E+00 0.  1.
         22    1    1    2    0    0  0.10107813043E+02  0.97678793433E+01 -0.35144255772E+02  0.37850998205E+02  0.00000000000E+00 0. -1.
<mgrwt>
<rscale>  0 0.57841916E+02</rscale>
<asrwt>0</asrwt>
<pdfrwt beam="1">  1        1 0.61008874E-01 0.92690090E+02</pdfrwt>
<pdfrwt beam="2">  1       -1 0.11259481E-02 0.92690090E+02</pdfrwt>
<totfact> 0.84320571E+04</totfact>
</mgrwt>
</event>
<event>
 6    1  0.1723639E-002  0.9415488E+02  0.7546771E-02  0.1375670E+00
         -3   -1    0    0    0  501 -0.00000000000E+00  0.00000000000E+00  0.15813218846E+02  0.15813218846E+02  0.00000000000E+00 0.  1.
          3   -1    0    0  501    0  0.00000000000E+00 -0.00000000000E+00 -0.25146115170E+03  0.25146115170E+03  0.00000000000E+00 0. -1.
         23    2    1    2    0    0 -0.13450262896E+02 -0.17671391292E+02 -0.13751449238E+03  0.16665946220E+03  0.91498377495E+02 0.  0.
         11    1    3    3    0    0  0.16449791071E+02  0.26433519933E+02 -0.90121368452E+02  0.95347719710E+02  0.00000000000E+00 0. -1.
        -11    1    3    3    0    0 -0.29900053967E+02 -0.44104911224E+02 -0.47393123931E+02  0.71311742492E+02  0.00000000000E+00 0.  1.
         22    1    1    2    0    0  0.13450262896E+02  0.17671391292E+02 -0.98133440471E+02  0.10061490834E+03  0.00000000000E+00 0. -1.
<mgrwt>
<rscale>  0 0.65615831E+02</rscale>
<asrwt>0</asrwt>
<pdfrwt beam="1">  1        3 0.38686332E-01 0.94154876E+02</pdfrwt>
<pdfrwt beam="2">  1       -3 0.24328028E-02 0.94154876E+02</pdfrwt>
<totfact> 0.97522484E+03</totfact>
</mgrwt>
</event>
<event>
 6    1  0.1723639E-002  0.9607955E+02  0.7546771E-02  0.1346854E+00
          2   -1    0    0  501    0  0.00000000000E+00  0.00000000000E+00  0.18873717460E+03  0.18873717460E+03  0.00000000000E+00 0. -1.
         -2   -1    0    0    0  501 -0.00000000000E+00 -0.00000000000E+00 -0.26531615324E+02  0.26531615324E+02  0.00000000000E+00 0.  1.
         23    2    1    2    0    0  0.33700170339E+02 -0.35946602305E+01  0.75563076466E+02  0.12223361974E+03  0.89903593964E+02 0.  0.
         11    1    3    3    0    0  0.24143561222E+01 -0.21925408487E+02  0.82428623658E+02  0.85328955525E+02  0.00000000000E+00 0. -1.
        -11    1    3    3    0    0  0.31285814217E+02  0.18330748256E+02 -0.68655471925E+01  0.36904664219E+02  0.00000000000E+00 0.  1.
         22    1    1    2    0    0 -0.33700170339E+02  0.35946602305E+01  0.86642482805E+02  0.93035170176E+02  0.00000000000E+00 0. -1.
<mgrwt>
<rscale>  0 0.74044942E+02</rscale>
<asrwt>0</asrwt>
<pdfrwt beam="1">  1        2 0.29036488E-01 0.96079547E+02</pdfrwt>
<pdfrwt beam="2">  1       -2 0.40817871E-02 0.96079547E+02</pdfrwt>
<totfact> 0.42647841E+04</totfact>
</mgrwt>
</event>
<event>
 6    1  0.1723639E-002  0.9352017E+02  0.7546771E-02  0.1413507E+00
          4   -1    0    0  501    0  0.00000000000E+00  0.00000000000E+00  0.45210985947E+02  0.45210985947E+02  0.00000000000E+00 0.  1.
         -4   -1    0    0    0  501 -0.00000000000E+00 -0.00000000000E+00 -0.12344165271E+03  0.12344165271E+03  0.00000000000E+00 0. -1.
         23    2    1    2    0    0 -0.88028601455E+00  0.12355875248E+02 -0.10411933643E+03  0.13995306072E+03  0.92696172688E+02 0.  0.
         13    1    3    3    0    0  0.85084884390E+01  0.40842323898E+02 -0.10162583097E+03  0.10985581148E+03  0.00000000000E+00 0. -1.
        -13    1    3    3    0    0 -0.93887744536E+01 -0.28486448650E+02 -0.24935054621E+01  0.30097249241E+02  0.00000000000E+00 0.  1.
         22    1    1    2    0    0  0.88028601455E+00 -0.12355875248E+02  0.25888669664E+02  0.28699577934E+02  0.00000000000E+00 0.  1.
<mgrwt>
<rscale>  0 0.56418587E+02</rscale>
<asrwt>0</asrwt>
<pdfrwt beam="1">  1        4 0.69555363E-02 0.93520174E+02</pdfrwt>
<pdfrwt beam="2">  1       -4 0.18991023E-01 0.93520174E+02</pdfrwt>
<totfact> 0.51052957E+03</totfact>
</mgrwt>
</event>
<event>
 6    1  0.1723639E-002  0.9266440E+02  0.7546771E-02  0.1400487E+00
         -2   -1    0    0    0  501 -0.00000000000E+00  0.00000000000E+00  0.20603427399E+03  0.20603427399E+03  0.00000000000E+00 0.  1.
          2   -1    0    0  501    0  0.00000000000E+00 -0.00000000000E+00 -0.17884908638E+02  0.17884908638E+02  0.00000000000E+00 0. -1.
         23    2    1    2    0    0  0.14762457602E+02  0.50931296740E+01  0.18645421091E+03  0.20821110595E+03  0.91339048332E+02 0.  0.
         11    1    3    3    0    0 -0.16734696824E+02  0.36610730520E+02  0.13115823891E+03  0.13719649886E+03  0.00000000000E+00 0. -1.
        -11    1    3    3    0    0  0.31497154426E+02 -0.31517600846E+02  0.55295972008E+02  0.71014607091E+02  0.00000000000E+00 0.  1.
         22    1    1    2    0    0 -0.14762457602E+02 -0.50931296740E+01  0.16951544407E+01  0.15708076677E+02  0.00000000000E+00 0. -1.
<mgrwt>
<rscale>  0 0.59371706E+02</rscale>
<asrwt>0</asrwt>
<pdfrwt beam="1">  1        2 0.27515246E-02 0.92664405E+02</pdfrwt>
<pdfrwt beam="2">  1       -2 0.31697579E-01 0.92664405E+02</pdfrwt>
<totfact> 0.28510180E+04</totfact>
</mgrwt>
</event>
<event>
 6    1  0.1723639E-002  0.9758402E+02  0.7546771E-02  0.1417818E+00
          2   -1    0    0  501    0  0.00000000000E+00  0.00000000000E+00  0.23163606186E+02  0.23163606186E+02  0.00000000000E+00 0. -1.
         -2   -1    0    0    0  501 -0.00000000000E+00 -0.00000000000E+00 -0.16096888424E+03  0.16096888424E+03  0.00000000000E+00 0.  1.
         23    2    1    2    0    0 -0.92392925473E+01 -0.43201991443E+01 -0.14265533505E+03  0.17283861154E+03  0.97049535666E+02 0.  0.
         13    1    3    3    0    0 -0.31376022295E+02 -0.13848272665E+02 -0.14464605060E+03  0.14865634660E+03  0.00000000000E+00 0.  1.
        -13    1    3    3    0    0  0.22136729747E+02  0.95280735208E+01  0.19907155534E+01  0.24182264934E+02  0.00000000000E+00 0. -1.
         22    1    1    2    0    0  0.92392925473E+01  0.43201991443E+01  0.48500569963E+01  0.11293878886E+02  0.00000000000E+00 0. -1.
<mgrwt>
<rscale>  0 0.55485327E+02</rscale>
<asrwt>0</asrwt>
<pdfrwt beam="1">  1        2 0.35636318E-02 0.97584020E+02</pdfrwt>
<pdfrwt beam="2">  1       -2 0.24764443E-01 0.97584020E+02</pdfrwt>
<totfact> 0.31481846E+04</totfact>
</mgrwt>
</event>
<event>
 6    1  0.1723639E-002  0.9435090E+02  0.7546771E-02  0.1413188E+00
         -2   -1    0    0    0  501 -0.00000000000E+00  0.00000000000E+00  0.30666979096E+03  0.30666979096E+03  0.00000000000E+00 0.  1.
          2   -1    0    0  501    0  0.00000000000E+00 -0.00000000000E+00 -0.10962533262E+02  0.10962533262E+02  0.00000000000E+00 0. -1.
         23    2    1    2    0    0  0.10938509747E+02  0.52261597507E+01  0.28848278639E+03  0.30352003430E+03  0.93568848636E+02 0.  0.
         13    1    3    3    0    0  0.26051733747E+02 -0.92459354263E+01  0.19750785953E+02  0.33974603735E+02  0.00000000000E+00 0. -1.
        -13    1    3    3    0    0 -0.15113224000E+02  0.14472095177E+02  0.26873200044E+03  0.26954543056E+03  0.00000000000E+00 0.  1.
         22    1    1    2    0    0 -0.10938509747E+02 -0.52261597507E+01  0.72244713056E+01  0.14112289923E+02  0.00000000000E+00 0.  1.
<mgrwt>
<rscale>  0 0.56488602E+02</rscale>
<asrwt>0</asrwt>
<pdfrwt beam="1">  1        2 0.16865438E-02 0.94350904E+02</pdfrwt>
<pdfrwt beam="2">  1       -2 0.47179961E-01 0.94350904E+02</pdfrwt>
<totfact> 0.26283363E+04</totfact>
</mgrwt>
</event>
<event>
 6    1  0.1723639E-002  0.9215287E+02  0.7546771E-02  0.1389272E+00
          2   -1    0    0  501    0  0.00000000000E+00  0.00000000000E+00  0.49828754400E+02  0.49828754400E+02  0.00000000000E+00 0.  1.
         -2   -1    0    0    0  501 -0.00000000000E+00 -0.00000000000E+00 -0.98918501595E+02  0.98918501595E+02  0.00000000000E+00 0. -1.
         23    2    1    2    0    0 -0.18271883482E+02 -0.51703895595E+01 -0.73461863641E+02  0.11785073978E+03  0.90175145151E+02 0.  0.
         11    1    3    3    0    0  0.27999140942E+02  0.15537809335E+02 -0.46128004237E+01  0.32352022196E+02  0.00000000000E+00 0.  1.
        -11    1    3    3    0    0 -0.46271024423E+02 -0.20708198895E+02 -0.68849063217E+02  0.85498717584E+02  0.00000000000E+00 0. -1.
         22    1    1    2    0    0  0.18271883482E+02  0.51703895595E+01  0.24372116446E+02  0.30896516215E+02  0.00000000000E+00 0.  1.
<mgrwt>
<rscale>  0 0.62088199E+02</rscale>
<asrwt>0</asrwt>
<pdfrwt beam="1">  1        2 0.76659623E-02 0.92152870E+02</pdfrwt>
<pdfrwt beam="2">  1       -2 0.15218231E-01 0.92152870E+02</pdfrwt>
<totfact> 0.26357162E+04</totfact>
</mgrwt>
</event>
<event>
 6    1  0.1723639E-002  0.9270581E+02  0.7546771E-02  0.1392241E+00
          2   -1    0    0  501    0  0.00000000000E+00  0.00000000000E+00  0.81199233434E+01  0.81199233434E+01  0.00000000000E+00 0. -1.
         -2   -1    0    0    0  501 -0.00000000000E+00 -0.00000000000E+00 -0.63912175079E+03  0.63912175079E+03  0.00000000000E+00 0.  1.
         23    2    1    2    0    0  0.17758799441E+02  0.93619868271E+00 -0.61872610795E+03  0.62563277054E+03  0.90984149640E+02 0.  0.
         13    1    3    3    0    0 -0.17140412559E+02  0.37455959729E+02 -0.23299003101E+03  0.23660324853E+03  0.00000000000E+00 0.  1.
        -13    1    3    3    0    0  0.34899212000E+02 -0.36519761046E+02 -0.38573607694E+03  0.38902952201E+03  0.00000000000E+00 0. -1.
         22    1    1    2    0    0 -0.17758799441E+02 -0.93619868271E+00 -0.12275719502E+02  0.21608903602E+02  0.00000000000E+00 0.  1.
<mgrwt>
<rscale>  0 0.61352783E+02</rscale>
<asrwt>0</asrwt>
<pdfrwt beam="1">  1        2 0.12492190E-02 0.92705808E+02</pdfrwt>
<pdfrwt beam="2">  1       -2 0.98326421E-01 0.92705808E+02</pdfrwt>
<totfact> 0.84406271E+03</totfact>
</mgrwt>
</event>
<event>
 6    1  0.1723639E-002  0.9457216E+02  0.7546771E-02  0.1390804E+00
          2   -1    0    0  501    0  0.00000000000E+00  0.00000000000E+00  0.59836675481E+02  0.59836675481E+02  0.00000000000E+00 0. -1.
         -2   -1    0    0    0  501 -0.00000000000E+00 -0.00000000000E+00 -0.53573320140E+02  0.53573320140E+02  0.00000000000E+00 0.  1.
         23    2    1    2    0    0 -0.13546969831E+01  0.17088072572E+02 -0.15191308080E+01  0.94584361002E+02  0.93005678104E+02 0.  0.
         13    1    3    3    0    0  0.41037504920E+01 -0.14071599123E+02 -0.41262217904E+02  0.43788369419E+02  0.00000000000E+00 0.  1.
        -13    1    3    3    0    0 -0.54584474751E+01  0.31159671695E+02  0.39743087096E+02  0.50795991583E+02  0.00000000000E+00 0. -1.
         22    1    1    2    0    0  0.13546969831E+01 -0.17088072572E+02  0.77824861491E+01  0.18825634619E+02  0.00000000000E+00 0. -1.
<mgrwt>
<rscale>  0 0.61707205E+02</rscale>
<asrwt>0</asrwt>
<pdfrwt beam="1">  1        2 0.92056423E-02 0.94572161E+02</pdfrwt>
<pdfrwt beam="2">  1       -2 0.82420493E-02 0.94572161E+02</pdfrwt>
<totfact> 0.55369998E+04</totfact>
</mgrwt>
</event>
<event>
 6    1  0.1723639E-002  0.9568328E+02  0.7546771E-02  0.1421597E+00
         -1   -1    0    0    0  501 -0.00000000000E+00  0.00000000000E+00  0.23660994824E+02  0.23660994824E+02  0.00000000000E+00 0.  1.
          1   -1    0    0  501    0  0.00000000000E+00 -0.00000000000E+00 -0.12469408421E+03  0.12469408421E+03  0.00000000000E+00 0. -1.
         23    2    1    2    0    0  0.35343285860E+01 -0.95768692321E+01 -0.79035969962E+02  0.12410469417E+03  0.95137178145E+02 0.  0.
         13    1    3    3    0    0 -0.36805697735E+02 -0.13932215480E+02 -0.49882955669E+01  0.39669246358E+02  0.00000000000E+00 0.  1.
        -13    1    3    3    0    0  0.40340026322E+02  0.43553462483E+01 -0.74047674395E+02  0.84435447816E+02  0.00000000000E+00 0. -1.
         22    1    1    2    0    0 -0.35343285860E+01  0.95768692321E+01 -0.21997119420E+02  0.24250384855E+02  0.00000000000E+00 0. -1.
<mgrwt>
<rscale>  0 0.54684549E+02</rscale>
<asrwt>0</asrwt>
<pdfrwt beam="1">  1        1 0.19183705E-01 0.95683283E+02</pdfrwt>
<pdfrwt beam="2">  1       -1 0.36401531E-02 0.95683283E+02</pdfrwt>
<totfact> 0.65911283E+04</totfact>
</mgrwt>
</event>
<event>
 6    1  0.1723639E-002  0.1083130E+03  0.7546771E-02  0.1295077E+00
          1   -1    0    0  501    0  0.00000000000E+00  0.00000000000E+00  0.28888017881E+02  0.28888017881E+02  0.00000000000E+00 0. -1.
         -1   -1    0    0    0  501 -0.00000000000E+00 -0.00000000000E+00 -0.24708954777E+03  0.24708954777E+03  0.00000000000E+00 0.  1.
         23    2    1    2    0    0 -0.32607295347E+02  0.49893790657E+02 -0.12560838833E+03  0.16585892091E+03  0.90438312513E+02 0.  0.
         13    1    3    3    0    0 -0.52815808126E+02  0.17867685766E+02 -0.30643981038E+02  0.63622459529E+02  0.00000000000E+00 0. -1.
        -13    1    3    3    0    0  0.20208512779E+02  0.32026104890E+02 -0.94964407289E+02  0.10223646138E+03  0.00000000000E+00 0.  1.
         22    1    1    2    0    0  0.32607295347E+02 -0.49893790657E+02 -0.92593141558E+02  0.11011864474E+03  0.00000000000E+00 0. -1.
<mgrwt>
<rscale>  0 0.93288743E+02</rscale>
<asrwt>0</asrwt>
<pdfrwt beam="1">  1        1 0.44443104E-02 0.10831304E+03</pdfrwt>
<pdfrwt beam="2">  1       -1 0.38013777E-01 0.10831304E+03</pdfrwt>
<totfact> 0.12158490E+04</totfact>
</mgrwt>
</event>
<event>
 6    1  0.1723639E-002  0.9264922E+02  0.7546771E-02  0.1410481E+00
         -3   -1    0    0    0  501 -0.00000000000E+00  0.00000000000E+00  0.19340956519E+03  0.19340956519E+03  0.00000000000E+00 0.  1.
          3   -1    0    0  501    0  0.00000000000E+00 -0.00000000000E+00 -0.15060211235E+02  0.15060211235E+02  0.00000000000E+00 0. -1.
         23    2    1    2    0    0 -0.57773728363E+01 -0.12039606133E+02  0.16684698140E+03  0.19084494374E+03  0.91681771343E+02 0.  0.
         11    1    3    3    0    0 -0.44860512669E+02 -0.63651101348E+00  0.50349907652E+02  0.67438742157E+02  0.00000000000E+00 0. -1.
        -11    1    3    3    0    0  0.39083139833E+02 -0.11403095119E+02  0.11649707375E+03  0.12340620158E+03  0.00000000000E+00 0.  1.
         22    1    1    2    0    0  0.57773728363E+01  0.12039606133E+02  0.11502372553E+02  0.17624832682E+02  0.00000000000E+00 0. -1.
<mgrwt>
<rscale>  0 0.57086631E+02</rscale>
<asrwt>0</asrwt>
<pdfrwt beam="1">  1        3 0.23169557E-02 0.92649217E+02</pdfrwt>
<pdfrwt beam="2">  1       -3 0.29755316E-01 0.92649217E+02</pdfrwt>
<totfact> 0.17065054E+04</totfact>
</mgrwt>
</event>
<event>
 6    1  0.1723639E-002  0.1002972E+03  0.7546771E-02  0.1329622E+00
          3   -1    0    0  501    0  0.00000000000E+00  0.00000000000E+00  0.24335976194E+03  0.24335976194E+03  0.00000000000E+00 0. -1.
         -3   -1    0    0    0  501 -0.00000000000E+00 -0.00000000000E+00 -0.25126509881E+02  0.25126509881E+02  0.00000000000E+00 0.  1.
         23    2    1    2    0    0 -0.20578619126E+02 -0.34522989088E+02  0.92332613979E+02  0.13632619082E+03  0.91892341135E+02 0.  0.
         11    1    3    3    0    0 -0.29465016065E+02 -0.56221468566E+02  0.93315982444E+02  0.11285793405E+03  0.00000000000E+00 0. -1.
        -11    1    3    3    0    0  0.88863969388E+01  0.21698479478E+02 -0.98336846459E+00  0.23468256769E+02  0.00000000000E+00 0.  1.
         22    1    1    2    0    0  0.20578619126E+02  0.34522989088E+02  0.12590063808E+03  0.13216008100E+03  0.00000000000E+00 0.  1.
<mgrwt>
<rscale>  0 0.79799221E+02</rscale>
<asrwt>0</asrwt>
<pdfrwt beam="1">  1        3 0.37439962E-01 0.10029715E+03</pdfrwt>
<pdfrwt beam="2">  1       -3 0.38656171E-02 0.10029715E+03</pdfrwt>
<totfact> 0.51697599E+03</totfact>
</mgrwt>
</event>
<event>
 6    1  0.1723639E-002  0.9163406E+02  0.7546771E-02  0.1407975E+00
          2   -1    0    0  501    0  0.00000000000E+00  0.00000000000E+00  0.13001805462E+03  0.13001805462E+03  0.00000000000E+00 0.  1.
         -2   -1    0    0    0  501 -0.00000000000E+00 -0.00000000000E+00 -0.22187996310E+02  0.22187996310E+02  0.00000000000E+00 0. -1.
         23    2    1    2    0    0 -0.14269342720E+02 -0.15550959500E+01  0.83577646499E+02  0.12402428477E+03  0.90502860476E+02 0.  0.
         13    1    3    3    0    0 -0.41704178659E+02  0.17344036515E+02  0.14676127890E+02  0.47491502925E+02  0.00000000000E+00 0. -1.
        -13    1    3    3    0    0  0.27434835939E+02 -0.18899132465E+02  0.68901518609E+02  0.76532781849E+02  0.00000000000E+00 0.  1.
         22    1    1    2    0    0  0.14269342720E+02  0.15550959500E+01  0.24252411815E+02  0.28181766160E+02  0.00000000000E+00 0.  1.
<mgrwt>
<rscale>  0 0.57648052E+02</rscale>
<asrwt>0</asrwt>
<pdfrwt beam="1">  1        2 0.20002777E-01 0.91634056E+02</pdfrwt>
<pdfrwt beam="2">  1       -2 0.34135380E-02 0.91634056E+02</pdfrwt>
<totfact> 0.82840042E+04</totfact>
</mgrwt>
</event>
<event>
 6    1  0.1723639E-002  0.9227788E+02  0.7546771E-02  0.1397494E+00
         -3   -1    0    0    0  501 -0.00000000000E+00  0.00000000000E+00  0.84683492075E+02  0.84683492075E+02  0.00000000000E+00 0.  1.
          3   -1    0    0  501    0  0.00000000000E+00 -0.00000000000E+00 -0.37056055809E+02  0.37056055809E+02  0.00000000000E+00 0. -1.
         23    2    1    2    0    0  0.57422336840E+00 -0.16572279610E+02  0.50056612707E+02  0.10498033901E+03  0.90775750720E+02 0.  0.
         13    1    3    3    0    0  0.53222863676E+00 -0.18379065427E+02  0.76396776870E+02  0.78578246541E+02  0.00000000000E+00 0.  1.
        -13    1    3    3    0    0  0.41994731643E-01  0.18067858170E+01 -0.26340164163E+02  0.26402092468E+02  0.00000000000E+00 0. -1.
         22    1    1    2    0    0 -0.57422336840E+00  0.16572279610E+02 -0.24291764409E+01  0.16759208876E+02  0.00000000000E+00 0. -1.
<mgrwt>
<rscale>  0 0.60080551E+02</rscale>
<asrwt>0</asrwt>
<pdfrwt beam="1">  1        3 0.57009317E-02 0.92277880E+02</pdfrwt>
<pdfrwt beam="2">  1       -3 0.13028230E-01 0.92277880E+02</pdfrwt>
<totfact> 0.17919485E+04</totfact>
</mgrwt>
</event>
<event>
 6    1  0.1723639E-002  0.9513971E+02  0.7546771E-02  0.1409076E+00
          4   -1    0    0  501    0  0.00000000000E+00  0.00000000000E+00  0.20553090183E+02  0.20553090183E+02  0.00000000000E+00 0. -1.
         -4   -1    0    0    0  501 -0.00000000000E+00 -0.00000000000E+00 -0.15173738806E+03  0.15173738806E+03  0.00000000000E+00 0.  1.
         23    2    1    2    0    0 -0.10102540393E+02 -0.75399326686E+01 -0.12763839589E+03  0.15919523758E+03  0.94300857131E+02 0.  0.
         11    1    3    3    0    0 -0.47290940229E+02  0.16811120423E+02 -0.59530198899E+02  0.77864570753E+02  0.00000000000E+00 0. -1.
        -11    1    3    3    0    0  0.37188399836E+02 -0.24351053092E+02 -0.68108196990E+02  0.81330666826E+02  0.00000000000E+00 0.  1.
         22    1    1    2    0    0  0.10102540393E+02  0.75399326686E+01 -0.35459019831E+01  0.13095240659E+02  0.00000000000E+00 0.  1.
<mgrwt>
<rscale>  0 0.57400531E+02</rscale>
<asrwt>0</asrwt>
<pdfrwt beam="1">  1        4 0.31620139E-02 0.95139706E+02</pdfrwt>
<pdfrwt beam="2">  1       -4 0.23344214E-01 0.95139706E+02</pdfrwt>
<totfact> 0.12409514E+04</totfact>
</mgrwt>
</event>
<event>
 6    1  0.1723639E-002  0.9208546E+02  0.7546771E-02  0.1396215E+00
         -1   -1    0    0    0  501 -0.00000000000E+00  0.00000000000E+00  0.10464901479E+03  0.10464901479E+03  0.00000000000E+00 0.  1.
          1   -1    0    0  501    0  0.00000000000E+00 -0.00000000000E+00 -0.33783530574E+02  0.33783530574E+02  0.00000000000E+00 0. -1.
         23    2    1    2    0    0 -0.28519602278E+01  0.16788960658E+02  0.77298948233E+02  0.12022836078E+03  0.90497118516E+02 0.  0.
         13    1    3    3    0    0 -0.14855889690E+02  0.67681049250E+01  0.95125154729E+02  0.96515800598E+02  0.00000000000E+00 0.  1.
        -13    1    3    3    0    0  0.12003929462E+02  0.10020855733E+02 -0.17826206496E+02  0.23712560178E+02  0.00000000000E+00 0. -1.
         22    1    1    2    0    0  0.28519602278E+01 -0.16788960658E+02 -0.64334640211E+01  0.18204184585E+02  0.00000000000E+00 0. -1.
<mgrwt>
<rscale>  0 0.60387016E+02</rscale>
<asrwt>0</asrwt>
<pdfrwt beam="1">  1        1 0.51974663E-02 0.92085457E+02</pdfrwt>
<pdfrwt beam="2">  1       -1 0.16099848E-01 0.92085457E+02</pdfrwt>
<totfact> 0.39231102E+04</totfact>
</mgrwt>
</event>
<event>
 6    1  0.1723639E-002  0.9318397E+02  0.7546771E-02  0.1408010E+00
         -1   -1    0    0    0  501 -0.00000000000E+00  0.00000000000E+00  0.71911804666E+02  0.71911804666E+02  0.00000000000E+00 0.  1.
          1   -1    0    0  501    0  0.00000000000E+00 -0.00000000000E+00 -0.86726093100E+02  0.86726093100E+02  0.00000000000E+00 0. -1.
         23    2    1    2    0    0  0.38672346270E+01  0.13082509759E+02  0.40544919696E+02  0.10162255343E+03  0.92179961417E+02 0.  0.
         13    1    3    3    0    0 -0.15946228190E+02 -0.15101310152E+02  0.58704458266E+02  0.62678107679E+02  0.00000000000E+00 0.  1.
        -13    1    3    3    0    0  0.19813462817E+02  0.28183819912E+02 -0.18159538570E+02  0.38944445749E+02  0.00000000000E+00 0. -1.
         22    1    1    2    0    0 -0.38672346270E+01 -0.13082509759E+02 -0.55359208130E+02  0.57015344339E+02  0.00000000000E+00 0. -1.
<mgrwt>
<rscale>  0 0.57640325E+02</rscale>
<asrwt>0</asrwt>
<pdfrwt beam="1">  1        1 0.13342476E-01 0.93183973E+02</pdfrwt>
<pdfrwt beam="2">  1       -1 0.11063355E-01 0.93183973E+02</pdfrwt>
<totfact> 0.20126492E+04</totfact>
</mgrwt>
</event>
<event>
 6    1  0.1723639E-002  0.9828781E+02  0.7546771E-02  0.1350875E+00
          2   -1    0    0  501    0  0.00000000000E+00  0.00000000000E+00  0.58465859720E+03  0.58465859720E+03  0.00000000000E+00 0. -1.
         -2   -1    0    0    0  501 -0.00000000000E+00 -0.00000000000E+00 -0.69940089446E+01  0.69940089446E+01  0.00000000000E+00 0.  1.
         23    2    1    2    0    0  0.14183420484E+02 -0.25929797282E+02  0.45090427451E+03  0.46149231671E+03  0.93738838330E+02 0.  0.
         13    1    3    3    0    0  0.40196956853E+02 -0.42598187432E+02  0.37491598402E+03  0.37946329992E+03  0.00000000000E+00 0. -1.
        -13    1    3    3    0    0 -0.26013536369E+02  0.16668390150E+02  0.75988290487E+02  0.82029016791E+02  0.00000000000E+00 0.  1.
         22    1    1    2    0    0 -0.14183420484E+02  0.25929797282E+02  0.12676031374E+03  0.13016028943E+03  0.00000000000E+00 0.  1.
<mgrwt>
<rscale>  0 0.72783693E+02</rscale>
<asrwt>0</asrwt>
<pdfrwt beam="1">  1        2 0.89947438E-01 0.98287810E+02</pdfrwt>
<pdfrwt beam="2">  1       -2 0.10760018E-02 0.98287810E+02</pdfrwt>
<totfact> 0.87997347E+04</totfact>
</mgrwt>
</event>
<event>
 6    1  0.1723639E-002  0.1048983E+03  0.7546771E-02  0.1309046E+00
          1   -1    0    0  501    0  0.00000000000E+00  0.00000000000E+00  0.30953071044E+02  0.30953071044E+02  0.00000000000E+00 0. -1.
         -1   -1    0    0    0  501 -0.00000000000E+00 -0.00000000000E+00 -0.21169023935E+03  0.21169023935E+03  0.00000000000E+00 0.  1.
         23    2    1    2    0    0  0.49677275946E+02 -0.10435744604E+02 -0.15084848142E+03  0.18373600936E+03  0.91798258586E+02 0.  0.
         13    1    3    3    0    0  0.60628008938E+01  0.16030102511E+02  0.64955892179E+01  0.18327968258E+02  0.00000000000E+00 0. -1.
        -13    1    3    3    0    0  0.43614475052E+02 -0.26465847116E+02 -0.15734407063E+03  0.16540804110E+03  0.00000000000E+00 0.  1.
         22    1    1    2    0    0 -0.49677275946E+02  0.10435744604E+02 -0.29888686887E+02  0.58907301030E+02  0.00000000000E+00 0. -1.
<mgrwt>
<rscale>  0 0.87490347E+02</rscale>
<asrwt>0</asrwt>
<pdfrwt beam="1">  1        1 0.47620111E-02 0.10489832E+03</pdfrwt>
<pdfrwt beam="2">  1       -1 0.32567728E-01 0.10489832E+03</pdfrwt>
<totfact> 0.14363132E+04</totfact>
</mgrwt>
</event>
<event>
 6    1  0.1723639E-002  0.9284619E+02  0.7546771E-02  0.1398729E+00
         -2   -1    0    0    0  501 -0.00000000000E+00  0.00000000000E+00  0.24298055403E+03  0.24298055403E+03  0.00000000000E+00 0.  1.
          2   -1    0    0  501    0  0.00000000000E+00 -0.00000000000E+00 -0.15319718286E+02  0.15319718286E+02  0.00000000000E+00 0. -1.
         23    2    1    2    0    0  0.13332287321E+02  0.87797847871E+01  0.22317597770E+03  0.24171870249E+03  0.91463542490E+02 0.  0.
         13    1    3    3    0    0  0.23257577395E+02  0.31995137029E+02  0.20910728056E+03  0.21281555038E+03  0.00000000000E+00 0.  1.
        -13    1    3    3    0    0 -0.99252900738E+01 -0.23215352241E+02  0.14068697140E+02  0.28903152111E+02  0.00000000000E+00 0. -1.
         22    1    1    2    0    0 -0.13332287321E+02 -0.87797847871E+01  0.44848580383E+01  0.16581569821E+02  0.00000000000E+00 0.  1.
<mgrwt>
<rscale>  0 0.59786803E+02</rscale>
<asrwt>0</asrwt>
<pdfrwt beam="1">  1        2 0.23568799E-02 0.92846185E+02</pdfrwt>
<pdfrwt beam="2">  1       -2 0.37381621E-01 0.92846185E+02</pdfrwt>
<totfact> 0.25957335E+04</totfact>
</mgrwt>
</event>
<event>
 6    1  0.1723639E-002  0.9125994E+02  0.7546771E-02  0.1389577E+00
         -2   -1    0    0    0  501 -0.00000000000E+00  0.00000000000E+00  0.21522822333E+03  0.21522822333E+03  0.00000000000E+00 0.  1.
          2   -1    0    0  501    0  0.00000000000E+00 -0.00000000000E+00 -0.78282208875E+02  0.78282208875E+02  0.00000000000E+00 0. -1.
         23    2    1    2    0    0 -0.32862919381E+01  0.19176775293E+02  0.20411123735E+03  0.22358393086E+03  0.89161810792E+02 0.  0.
         13    1    3    3    0    0 -0.22089628197E+01  0.53979692116E+02  0.97986314361E+02  0.11189282586E+03  0.00000000000E+00 0. -1.
        -13    1    3    3    0    0 -0.10773291185E+01 -0.34802916822E+02  0.10612492298E+03  0.11169110500E+03  0.00000000000E+00 0.  1.
         22    1    1    2    0    0  0.32862919381E+01 -0.19176775293E+02 -0.67165222886E+02  0.69926501347E+02  0.00000000000E+00 0. -1.
<mgrwt>
<rscale>  0 0.62011940E+02</rscale>
<asrwt>0</asrwt>
<pdfrwt beam="1">  1        2 0.12043417E-01 0.91259942E+02</pdfrwt>
<pdfrwt beam="2">  1       -2 0.33112034E-01 0.91259942E+02</pdfrwt>
<totfact> 0.40281711E+03</totfact>
</mgrwt>
</event>
<event>
 6    1  0.1723639E-002  0.9223208E+02  0.7546771E-02  0.1422165E+00
          2   -1    0    0  501    0  0.00000000000E+00  0.00000000000E+00  0.11926942395E+02  0.11926942395E+02  0.00000000000E+00 0. -1.
         -2   -1    0    0    0  501 -0.00000000000E+00 -0.00000000000E+00 -0.22613855004E+03  0.22613855004E+03  0.00000000000E+00 0.  1.
         23    2    1    2    0    0  0.84229931811E+01 -0.75306827073E+01 -0.18428288427E+03  0.20607508014E+03  0.91537419792E+02 0.  0.
         13    1    3    3    0    0 -0.11403621605E+02 -0.81666357844E+01  0.56409646923E+01  0.15118102011E+02  0.00000000000E+00 0. -1.
        -13    1    3    3    0    0  0.19826614786E+02  0.63595307711E+00 -0.18992384896E+03  0.19095697813E+03  0.00000000000E+00 0.  1.
         22    1    1    2    0    0 -0.84229931811E+01  0.75306827073E+01 -0.29928723375E+02  0.31990412299E+02  0.00000000000E+00 0. -1.
<mgrwt>
<rscale>  0 0.54565422E+02</rscale>
<asrwt>0</asrwt>
<pdfrwt beam="1">  1        2 0.18349142E-02 0.92232083E+02</pdfrwt>
<pdfrwt beam="2">  1       -2 0.34790546E-01 0.92232083E+02</pdfrwt>
<totfact> 0.41475136E+04</totfact>
</mgrwt>
</event>
<event>
 6    1  0.1723639E-002  0.9180556E+02  0.7546771E-02  0.1399701E+00
          1   -1    0    0  501    0  0.00000000000E+00  0.00000000000E+00  0.21679609539E+03  0.21679609539E+03  0.00000000000E+00 0. -1.
         -1   -1    0    0    0  501 -0.00000000000E+00 -0.00000000000E+00 -0.13628142015E+02  0.13628142015E+02  0.00000000000E+00 0.  1.
         23    2    1    2    0    0 -0.27113976494E+01 -0.16032308340E+02  0.16274188649E+03  0.18685069645E+03  0.90354161808E+02 0.  0.
         13    1    3    3    0    0  0.53768633252E+01  0.17066705991E+02  0.14906523842E+03  0.15013536698E+03  0.00000000000E+00 0. -1.
        -13    1    3    3    0    0 -0.80882609746E+01 -0.33099014331E+02  0.13676648066E+02  0.36715329463E+02  0.00000000000E+00 0.  1.
         22    1    1    2    0    0  0.27113976494E+01  0.16032308340E+02  0.40426066887E+02  0.43573540961E+02  0.00000000000E+00 0. -1.
<mgrwt>
<rscale>  0 0.59556843E+02</rscale>
<asrwt>0</asrwt>
<pdfrwt beam="1">  1        1 0.33353243E-01 0.91805562E+02</pdfrwt>
<pdfrwt beam="2">  1       -1 0.20966374E-02 0.91805562E+02</pdfrwt>
<totfact> 0.72969298E+04</totfact>
</mgrwt>
</event>
<event>
 6    1  0.1723639E-002  0.9533951E+02  0.7546771E-02  0.1390125E+00
          2   -1    0    0  501    0  0.00000000000E+00  0.00000000000E+00  0.55321895167E+02  0.55321895167E+02  0.00000000000E+00 0. -1.
         -2   -1    0    0    0  501 -0.00000000000E+00 -0.00000000000E+00 -0.10694250509E+03  0.10694250509E+03  0.00000000000E+00 0.  1.
         23    2    1    2    0    0 -0.37935321651E+01  0.16483689727E+02 -0.83136560934E+02  0.12649628482E+03  0.93827071765E+02 0.  0.
         11    1    3    3    0    0  0.85090366759E+01  0.49964461383E+02 -0.73968964761E+02  0.89667490509E+02  0.00000000000E+00 0.  1.
        -11    1    3    3    0    0 -0.12302568841E+02 -0.33480771656E+02 -0.91675961731E+01  0.36828794311E+02  0.00000000000E+00 0. -1.
         22    1    1    2    0    0  0.37935321651E+01 -0.16483689727E+02  0.31515951015E+02  0.35768115434E+02  0.00000000000E+00 0. -1.
<mgrwt>
<rscale>  0 0.61875678E+02</rscale>
<asrwt>0</asrwt>
<pdfrwt beam="1">  1        2 0.85110608E-02 0.95339511E+02</pdfrwt>
<pdfrwt beam="2">  1       -2 0.16452693E-01 0.95339511E+02</pdfrwt>
<totfact> 0.20471431E+04</totfact>
</mgrwt>
</event>
<event>
 6    1  0.1723639E-002  0.9188210E+02  0.7546771E-02  0.1386640E+00
         -2   -1    0    0    0  501 -0.00000000000E+00  0.00000000000E+00  0.11047446208E+02  0.11047446208E+02  0.00000000000E+00 0.  1.
          2   -1    0    0  501    0  0.00000000000E+00 -0.00000000000E+00 -0.28869144559E+03  0.28869144559E+03  0.00000000000E+00 0. -1.
         23    2    1    2    0    0 -0.19109202992E+02  0.58614176371E+01 -0.21041248076E+03  0.22959906750E+03  0.89681669718E+02 0.  0.
         11    1    3    3    0    0 -0.43784385007E+02  0.32992633993E+02 -0.11560819549E+03  0.12794858785E+03  0.00000000000E+00 0. -1.
        -11    1    3    3    0    0  0.24675182015E+02 -0.27131216356E+02 -0.94804285263E+02  0.10165047965E+03  0.00000000000E+00 0.  1.
         22    1    1    2    0    0  0.19109202992E+02 -0.58614176371E+01 -0.67231518626E+02  0.70139824297E+02  0.00000000000E+00 0. -1.
<mgrwt>
<rscale>  0 0.62750212E+02</rscale>
<asrwt>0</asrwt>
<pdfrwt beam="1">  1        2 0.44414071E-01 0.91882097E+02</pdfrwt>
<pdfrwt beam="2">  1       -2 0.16996070E-02 0.91882097E+02</pdfrwt>
<totfact> 0.96351862E+04</totfact>
</mgrwt>
</event>
<event>
 6    1  0.1723639E-002  0.1035724E+03  0.7546771E-02  0.1347116E+00
         -1   -1    0    0    0  501 -0.00000000000E+00  0.00000000000E+00  0.12133393642E+02  0.12133393642E+02  0.00000000000E+00 0.  1.
          1   -1    0    0  501    0  0.00000000000E+00 -0.00000000000E+00 -0.36340412159E+03  0.36340412159E+03  0.00000000000E+00 0. -1.
         23    2    1    2    0    0  0.23097443372E+02 -0.13854893936E+02 -0.24682581853E+03  0.26767561705E+03  0.10000900606E+03 0.  0.
         11    1    3    3    0    0  0.28141606238E+01 -0.56161034176E+02 -0.14651176987E+03  0.15693208713E+03  0.00000000000E+00 0.  1.
        -11    1    3    3    0    0  0.20283282748E+02  0.42306140240E+02 -0.10031404866E+03  0.11074352992E+03  0.00000000000E+00 0. -1.
         22    1    1    2    0    0 -0.23097443372E+02  0.13854893936E+02 -0.10444490942E+03  0.10786189818E+03  0.00000000000E+00 0.  1.
<mgrwt>
<rscale>  0 0.73962078E+02</rscale>
<asrwt>0</asrwt>
<pdfrwt beam="1">  1        1 0.55908333E-01 0.10357244E+03</pdfrwt>
<pdfrwt beam="2">  1       -1 0.18666757E-02 0.10357244E+03</pdfrwt>
<totfact> 0.46482214E+04</totfact>
</mgrwt>
</event>
<event>
 6    1  0.1723639E-002  0.9364969E+02  0.7546771E-02  0.1372649E+00
         -3   -1    0    0    0  501 -0.00000000000E+00  0.00000000000E+00  0.20365465682E+02  0.20365465682E+02  0.00000000000E+00 0.  1.
          3   -1    0    0  501    0  0.00000000000E+00 -0.00000000000E+00 -0.24489058244E+03  0.24489058244E+03  0.00000000000E+00 0. -1.
         23    2    1    2    0    0 -0.14164176352E+02 -0.19025699829E+02 -0.94346870316E+02  0.13293455708E+03  0.90596155442E+02 0.  0.
         11    1    3    3    0    0 -0.12564740366E+02 -0.53883881762E+02 -0.39707286409E+02  0.68102966222E+02  0.00000000000E+00 0. -1.
        -11    1    3    3    0    0 -0.15994359862E+01  0.34858181933E+02 -0.54639583907E+02  0.64831590855E+02  0.00000000000E+00 0.  1.
         22    1    1    2    0    0  0.14164176352E+02  0.19025699829E+02 -0.13017824644E+03  0.13232149104E+03  0.00000000000E+00 0. -1.
<mgrwt>
<rscale>  0 0.66436208E+02</rscale>
<asrwt>0</asrwt>
<pdfrwt beam="1">  1        3 0.37675475E-01 0.93649690E+02</pdfrwt>
<pdfrwt beam="2">  1       -3 0.31331485E-02 0.93649690E+02</pdfrwt>
<totfact> 0.69582943E+03</totfact>
</mgrwt>
</event>
<event>
 6    1  0.1723639E-002  0.9188438E+02  0.7546771E-02  0.1415812E+00
         -2   -1    0    0    0  501 -0.00000000000E+00  0.00000000000E+00  0.70413933397E+01  0.70413933397E+01  0.00000000000E+00 0.  1.
          2   -1    0    0  501    0  0.00000000000E+00 -0.00000000000E+00 -0.38800762712E+03  0.38800762712E+03  0.00000000000E+00 0. -1.
         23    2    1    2    0    0  0.12602175891E+02 -0.51195788368E-01 -0.33895569309E+03  0.35118898184E+03  0.91016051513E+02 0.  0.
         11    1    3    3    0    0  0.54932442662E+01  0.39571186507E+02 -0.83315251344E+02  0.92398515360E+02  0.00000000000E+00 0.  1.
        -11    1    3    3    0    0  0.71089316251E+01 -0.39622382295E+02 -0.25564044174E+03  0.25879046648E+03  0.00000000000E+00 0. -1.
         22    1    1    2    0    0 -0.12602175891E+02  0.51195788368E-01 -0.42010540695E+02  0.43860038620E+02  0.00000000000E+00 0. -1.
<mgrwt>
<rscale>  0 0.55916959E+02</rscale>
<asrwt>0</asrwt>
<pdfrwt beam="1">  1        2 0.59693484E-01 0.91884379E+02</pdfrwt>
<pdfrwt beam="2">  1       -2 0.10832912E-02 0.91884379E+02</pdfrwt>
<totfact> 0.13427160E+05</totfact>
</mgrwt>
</event>
<event>
 6    1  0.1723639E-002  0.9421538E+02  0.7546771E-02  0.1412115E+00
          1   -1    0    0  501    0  0.00000000000E+00  0.00000000000E+00  0.25169771912E+03  0.25169771912E+03  0.00000000000E+00 0. -1.
         -1   -1    0    0    0  501 -0.00000000000E+00 -0.00000000000E+00 -0.12024341315E+02  0.12024341315E+02  0.00000000000E+00 0.  1.
         23    2    1    2    0    0  0.12166935694E+02  0.22866516583E+01  0.18434589633E+03  0.20702644062E+03  0.93398471729E+02 0.  0.
         11    1    3    3    0    0  0.13938310581E+02  0.25741186904E+02  0.18090112321E+03  0.18325419936E+03  0.00000000000E+00 0. -1.
        -11    1    3    3    0    0 -0.17713748873E+01 -0.23454535245E+02  0.34447731215E+01  0.23772241258E+02  0.00000000000E+00 0.  1.
         22    1    1    2    0    0 -0.12166935694E+02 -0.22866516583E+01  0.55327481475E+02  0.56695619816E+02  0.00000000000E+00 0.  1.
<mgrwt>
<rscale>  0 0.56724549E+02</rscale>
<asrwt>0</asrwt>
<pdfrwt beam="1">  1        1 0.38722722E-01 0.94215379E+02</pdfrwt>
<pdfrwt beam="2">  1       -1 0.18498989E-02 0.94215379E+02</pdfrwt>
<totfact> 0.72959018E+04</totfact>
</mgrwt>
</event>
<event>
 6    1  0.1723639E-002  0.9117664E+02  0.7546771E-02  0.1411163E+00
          2   -1    0    0  501    0  0.00000000000E+00  0.00000000000E+00  0.10575351720E+03  0.10575351720E+03  0.00000000000E+00 0. -1.
         -2   -1    0    0    0  501 -0.00000000000E+00 -0.00000000000E+00 -0.33176587507E+02  0.33176587507E+02  0.00000000000E+00 0.  1.
         23    2    1    2    0    0 -0.10794289752E+02  0.86991829861E+01  0.32949508961E+02  0.96947668502E+02  0.90116523520E+02 0.  0.
         11    1    3    3    0    0 -0.61569792254E+01 -0.28108905517E+02  0.48761978175E+02  0.56619338375E+02  0.00000000000E+00 0. -1.
        -11    1    3    3    0    0 -0.46373105264E+01  0.36808088503E+02 -0.15812469214E+02  0.40328330126E+02  0.00000000000E+00 0.  1.
         22    1    1    2    0    0  0.10794289752E+02 -0.86991829861E+01  0.39627420732E+02  0.41982436206E+02  0.00000000000E+00 0. -1.
<mgrwt>
<rscale>  0 0.56935055E+02</rscale>
<asrwt>0</asrwt>
<pdfrwt beam="1">  1        2 0.16269772E-01 0.91176643E+02</pdfrwt>
<pdfrwt beam="2">  1       -2 0.51040904E-02 0.91176643E+02</pdfrwt>
<totfact> 0.57803028E+04</totfact>
</mgrwt>
</event>
<event>
 6    1  0.1723639E-002  0.9429033E+02  0.7546771E-02  0.1373694E+00
          3   -1    0    0  501    0  0.00000000000E+00  0.00000000000E+00  0.34015195145E+02  0.34015195145E+02  0.00000000000E+00 0. -1.
         -3   -1    0    0    0  501 -0.00000000000E+00 -0.00000000000E+00 -0.12974667751E+03  0.12974667751E+03  0.00000000000E+00 0.  1.
         23    2    1    2    0    0 -0.22836904681E+02 -0.49195548425E+00 -0.10314361329E+03  0.13974717049E+03  0.91481694677E+02 0.  0.
         11    1    3    3    0    0 -0.95583857401E+01 -0.22131872128E+02  0.82627293284E+01  0.25484410878E+02  0.00000000000E+00 0. -1.
        -11    1    3    3    0    0 -0.13278518941E+02  0.21639916644E+02 -0.11140634262E+03  0.11426275961E+03  0.00000000000E+00 0.  1.
         22    1    1    2    0    0  0.22836904681E+02  0.49195548425E+00  0.74121309227E+01  0.24014702172E+02  0.00000000000E+00 0. -1.
<mgrwt>
<rscale>  0 0.66150765E+02</rscale>
<asrwt>0</asrwt>
<pdfrwt beam="1">  1        3 0.52331069E-02 0.94290332E+02</pdfrwt>
<pdfrwt beam="2">  1       -3 0.19961027E-01 0.94290332E+02</pdfrwt>
<totfact> 0.99479895E+03</totfact>
</mgrwt>
</event>
<event>
 6    1  0.1723639E-002  0.9314560E+02  0.7546771E-02  0.1393261E+00
          2   -1    0    0  501    0  0.00000000000E+00  0.00000000000E+00  0.14660220413E+03  0.14660220413E+03  0.00000000000E+00 0. -1.
         -2   -1    0    0    0  501 -0.00000000000E+00 -0.00000000000E+00 -0.26236567744E+02  0.26236567744E+02  0.00000000000E+00 0.  1.
         23    2    1    2    0    0  0.10062825094E+02 -0.14009218059E+02  0.61791792356E+02  0.11177803290E+03  0.91534607647E+02 0.  0.
         13    1    3    3    0    0 -0.12801547010E+02  0.35780597334E+02  0.30144980632E+02  0.48506191447E+02  0.00000000000E+00 0. -1.
        -13    1    3    3    0    0  0.22864372103E+02 -0.49789815394E+02  0.31646811725E+02  0.63271841454E+02  0.00000000000E+00 0.  1.
         22    1    1    2    0    0 -0.10062825094E+02  0.14009218059E+02  0.58573844030E+02  0.61060738973E+02  0.00000000000E+00 0. -1.
<mgrwt>
<rscale>  0 0.61102789E+02</rscale>
<asrwt>0</asrwt>
<pdfrwt beam="1">  1        2 0.22554185E-01 0.93145601E+02</pdfrwt>
<pdfrwt beam="2">  1       -2 0.40363951E-02 0.93145601E+02</pdfrwt>
<totfact> 0.56841216E+04</totfact>
</mgrwt>
</event>
<event>
 6    1  0.1723639E-002  0.9549980E+02  0.7546771E-02  0.1409767E+00
         -2   -1    0    0    0  501 -0.00000000000E+00  0.00000000000E+00  0.45481071583E+01  0.45481071583E+01  0.00000000000E+00 0.  1.
          2   -1    0    0  501    0  0.00000000000E+00 -0.00000000000E+00 -0.64931493161E+03  0.64931493161E+03  0.00000000000E+00 0. -1.
         23    2    1    2    0    0  0.12301649109E+02  0.83784507229E+00 -0.59349917569E+03  0.60113349899E+03  0.94700472617E+02 0.  0.
         13    1    3    3    0    0 -0.25179046618E+02  0.35434743656E+02 -0.22984176718E+03  0.23391631706E+03  0.00000000000E+00 0.  1.
        -13    1    3    3    0    0  0.37480695728E+02 -0.34596898584E+02 -0.36365740851E+03  0.36721718193E+03  0.00000000000E+00 0. -1.
         22    1    1    2    0    0 -0.12301649109E+02 -0.83784507229E+00 -0.51267648768E+02  0.52729539779E+02  0.00000000000E+00 0. -1.
<mgrwt>
<rscale>  0 0.57245839E+02</rscale>
<asrwt>0</asrwt>
<pdfrwt beam="1">  1        2 0.99894603E-01 0.95499801E+02</pdfrwt>
<pdfrwt beam="2">  1       -2 0.69970880E-03 0.95499801E+02</pdfrwt>
<totfact> 0.14310921E+05</totfact>
</mgrwt>
</event>
<event>
 6    1  0.1723639E-002  0.9195461E+02  0.7546771E-02  0.1429284E+00
         -2   -1    0    0    0  501 -0.00000000000E+00  0.00000000000E+00  0.89121409866E+03  0.89121409866E+03  0.00000000000E+00 0.  1.
          2   -1    0    0  501    0  0.00000000000E+00 -0.00000000000E+00 -0.31203960944E+01  0.31203960944E+01  0.00000000000E+00 0. -1.
         23    2    1    2    0    0 -0.47944036438E+00 -0.10216639996E+02  0.84742355731E+03  0.85239799143E+03  0.91384028779E+02 0.  0.
         11    1    3    3    0    0 -0.17789436277E+02 -0.42478047891E+02  0.64850960482E+03  0.65014271982E+03  0.00000000000E+00 0.  1.
        -11    1    3    3    0    0  0.17309995913E+02  0.32261407895E+02  0.19891395249E+03  0.20225527161E+03  0.00000000000E+00 0. -1.
         22    1    1    2    0    0  0.47944036438E+00  0.10216639996E+02  0.40670145258E+02  0.41936503325E+02  0.00000000000E+00 0. -1.
<mgrwt>
<rscale>  0 0.53103919E+02</rscale>
<asrwt>0</asrwt>
<pdfrwt beam="1">  1        2 0.48006165E-03 0.91954610E+02</pdfrwt>
<pdfrwt beam="2">  1       -2 0.13710966E+00 0.91954610E+02</pdfrwt>
<totfact> 0.14265640E+04</totfact>
</mgrwt>
</event>
<event>
 6    1  0.1723639E-002  0.1041001E+03  0.7546771E-02  0.1308988E+00
          2   -1    0    0  501    0  0.00000000000E+00  0.00000000000E+00  0.42052220487E+02  0.42052220487E+02  0.00000000000E+00 0. -1.
         -2   -1    0    0    0  501 -0.00000000000E+00 -0.00000000000E+00 -0.21002232638E+03  0.21002232638E+03  0.00000000000E+00 0.  1.
         23    2    1    2    0    0 -0.44730928276E+02  0.26502761813E+02 -0.17077919892E+03  0.20000590628E+03  0.90186337301E+02 0.  0.
         11    1    3    3    0    0  0.12650094781E+02  0.28239252850E+02 -0.15815864453E+02  0.34750854204E+02  0.00000000000E+00 0. -1.
        -11    1    3    3    0    0 -0.57381023057E+02 -0.17364910374E+01 -0.15496333447E+03  0.16525505208E+03  0.00000000000E+00 0.  1.
         22    1    1    2    0    0  0.44730928276E+02 -0.26502761813E+02  0.28090930334E+01  0.52068640580E+02  0.00000000000E+00 0. -1.
<mgrwt>
<rscale>  0 0.87513315E+02</rscale>
<asrwt>0</asrwt>
<pdfrwt beam="1">  1        2 0.64695722E-02 0.10410009E+03</pdfrwt>
<pdfrwt beam="2">  1       -2 0.32311128E-01 0.10410009E+03</pdfrwt>
<totfact> 0.91433008E+03</totfact>
</mgrwt>
</event>
<event>
 6    1  0.1723639E-002  0.9608385E+02  0.7546771E-02  0.1353994E+00
         -2   -1    0    0    0  501 -0.00000000000E+00  0.00000000000E+00  0.22952282093E+02  0.22952282093E+02  0.00000000000E+00 0. -1.
          2   -1    0    0  501    0  0.00000000000E+00 -0.00000000000E+00 -0.21487897121E+03  0.21487897121E+03  0.00000000000E+00 0.  1.
         23    2    1    2    0    0 -0.28131542456E+02 -0.10428380001E+02 -0.90257306009E+02  0.13182748803E+03  0.91279628187E+02 0.  0.
         11    1    3    3    0    0 -0.42255472719E+02  0.15225139722E+02 -0.92117382706E+02  0.10248386239E+03  0.00000000000E+00 0.  1.
        -11    1    3    3    0    0  0.14123930263E+02 -0.25653519723E+02  0.18600766966E+01  0.29343625638E+02  0.00000000000E+00 0. -1.
         22    1    1    2    0    0  0.28131542456E+02  0.10428380001E+02 -0.10166938311E+03  0.10600376528E+03  0.00000000000E+00 0.  1.
<mgrwt>
<rscale>  0 0.71825098E+02</rscale>
<asrwt>0</asrwt>
<pdfrwt beam="1">  1        2 0.33058303E-01 0.96083845E+02</pdfrwt>
<pdfrwt beam="2">  1       -2 0.35311203E-02 0.96083845E+02</pdfrwt>
<totfact> 0.45939048E+04</totfact>
</mgrwt>
</event>
<event>
 6    1  0.1723639E-002  0.9353440E+02  0.7546771E-02  0.1374977E+00
          4   -1    0    0  501    0  0.00000000000E+00  0.00000000000E+00  0.50658176606E+02  0.50658176606E+02  0.00000000000E+00 0. -1.
         -4   -1    0    0    0  501 -0.00000000000E+00 -0.00000000000E+00 -0.71895539793E+02  0.71895539793E+02  0.00000000000E+00 0.  1.
         23    2    1    2    0    0  0.54499418187E+01 -0.22254494706E+02 -0.29687999684E+02  0.98132871663E+02  0.90684721840E+02 0.  0.
         13    1    3    3    0    0 -0.71460834099E+01 -0.64902420657E+01 -0.60519825375E+02  0.61284900372E+02  0.00000000000E+00 0.  1.
        -13    1    3    3    0    0  0.12596025229E+02 -0.15764252640E+02  0.30831825691E+02  0.36847971291E+02  0.00000000000E+00 0. -1.
         22    1    1    2    0    0 -0.54499418187E+01  0.22254494706E+02  0.84506364967E+01  0.24420844736E+02  0.00000000000E+00 0. -1.
<mgrwt>
<rscale>  0 0.65802856E+02</rscale>
<asrwt>0</asrwt>
<pdfrwt beam="1">  1        4 0.77935656E-02 0.93534396E+02</pdfrwt>
<pdfrwt beam="2">  1       -4 0.11060852E-01 0.93534396E+02</pdfrwt>
<totfact> 0.10783993E+04</totfact>
</mgrwt>
</event>
<event>
 6    1  0.1723639E-002  0.9317250E+02  0.7546771E-02  0.1372106E+00
          2   -1    0    0  501    0  0.00000000000E+00  0.00000000000E+00  0.32260872362E+03  0.32260872362E+03  0.00000000000E+00 0. -1.
         -2   -1    0    0    0  501 -0.00000000000E+00 -0.00000000000E+00 -0.10834748215E+02  0.10834748215E+02  0.00000000000E+00 0.  1.
         23    2    1    2    0    0  0.23830274307E+02 -0.47673563184E+01  0.26151895290E+03  0.27762074397E+03  0.89947235053E+02 0.  0.
         13    1    3    3    0    0 -0.39610900899E+01  0.35813488026E+02  0.58313533524E+02  0.68547533517E+02  0.00000000000E+00 0.  1.
        -13    1    3    3    0    0  0.27791364397E+02 -0.40580844345E+02  0.20320541938E+03  0.20907321045E+03  0.00000000000E+00 0. -1.
         22    1    1    2    0    0 -0.23830274307E+02  0.47673563184E+01  0.50255022501E+02  0.55822727866E+02  0.00000000000E+00 0.  1.
<mgrwt>
<rscale>  0 0.66585303E+02</rscale>
<asrwt>0</asrwt>
<pdfrwt beam="1">  1        2 0.49632104E-01 0.93172500E+02</pdfrwt>
<pdfrwt beam="2">  1       -2 0.16668846E-02 0.93172500E+02</pdfrwt>
<totfact> 0.88386387E+04</totfact>
</mgrwt>
</event>
<event>
 6    1  0.1723639E-002  0.9304510E+02  0.7546771E-02  0.1396363E+00
          2   -1    0    0  501    0  0.00000000000E+00  0.00000000000E+00  0.87142901954E+01  0.87142901954E+01  0.00000000000E+00 0. -1.
         -2   -1    0    0    0  501 -0.00000000000E+00 -0.00000000000E+00 -0.34674492228E+03  0.34674492228E+03  0.00000000000E+00 0.  1.
         23    2    1    2    0    0 -0.56724487135E+01 -0.15461360198E+02 -0.27508770208E+03  0.29039737442E+03  0.91575984302E+02 0.  0.
         11    1    3    3    0    0  0.61515386695E+01 -0.52585582548E+02 -0.13556575811E+03  0.14553748552E+03  0.00000000000E+00 0.  1.
        -11    1    3    3    0    0 -0.11823987383E+02  0.37124222349E+02 -0.13952194397E+03  0.14485988890E+03  0.00000000000E+00 0. -1.
         22    1    1    2    0    0  0.56724487135E+01  0.15461360198E+02 -0.62942930010E+02  0.65061838060E+02  0.00000000000E+00 0. -1.
<mgrwt>
<rscale>  0 0.60351410E+02</rscale>
<asrwt>0</asrwt>
<pdfrwt beam="1">  1        2 0.13406603E-02 0.93045103E+02</pdfrwt>
<pdfrwt beam="2">  1       -2 0.53345364E-01 0.93045103E+02</pdfrwt>
<totfact> 0.28158402E+04</totfact>
</mgrwt>
</event>
<event>
 6    1  0.1723639E-002  0.8737995E+02  0.7546771E-02  0.1380330E+00
          1   -1    0    0  501    0  0.00000000000E+00  0.00000000000E+00  0.26566099902E+03  0.26566099902E+03  0.00000000000E+00 0. -1.
         -1   -1    0    0    0  501 -0.00000000000E+00 -0.00000000000E+00 -0.12256530544E+02  0.12256530544E+02  0.00000000000E+00 0.  1.
         23    2    1    2    0    0  0.20411824622E+02  0.15688994798E+02  0.20997608551E+03  0.22743177326E+03  0.83501304552E+02 0.  0.
         13    1    3    3    0    0 -0.31802723624E+02 -0.12106190967E+01  0.91086067440E+02  0.96486011993E+02  0.00000000000E+00 0. -1.
        -13    1    3    3    0    0  0.52214548246E+02  0.16899613895E+02  0.11889001807E+03  0.13094576127E+03  0.00000000000E+00 0.  1.
         22    1    1    2    0    0 -0.20411824622E+02 -0.15688994798E+02  0.43428382968E+02  0.50485756302E+02  0.00000000000E+00 0. -1.
<mgrwt>
<rscale>  0 0.64376978E+02</rscale>
<asrwt>0</asrwt>
<pdfrwt beam="1">  1        1 0.40870919E-01 0.87379946E+02</pdfrwt>
<pdfrwt beam="2">  1       -1 0.18856203E-02 0.87379946E+02</pdfrwt>
<totfact> 0.65759677E+04</totfact>
</mgrwt>
</event>
<event>
 6    1  0.1723639E-002  0.8929564E+02  0.7546771E-02  0.1416542E+00
          2   -1    0    0  501    0  0.00000000000E+00  0.00000000000E+00  0.63419798313E+02  0.63419798313E+02  0.00000000000E+00 0. -1.
         -2   -1    0    0    0  501 -0.00000000000E+00 -0.00000000000E+00 -0.52519177423E+02  0.52519177423E+02  0.00000000000E+00 0.  1.
         23    2    1    2    0    0 -0.12327192227E+02  0.56880469079E+01 -0.11206392526E+02  0.89996084841E+02  0.88257569123E+02 0.  0.
         11    1    3    3    0    0  0.12699217952E+02  0.18190126574E+02 -0.42548577111E+02  0.47984708560E+02  0.00000000000E+00 0.  1.
        -11    1    3    3    0    0 -0.25026410179E+02 -0.12502079666E+02  0.31342184585E+02  0.42011376281E+02  0.00000000000E+00 0. -1.
         22    1    1    2    0    0  0.12327192227E+02 -0.56880469079E+01  0.22107013416E+02  0.25942890895E+02  0.00000000000E+00 0. -1.
<mgrwt>
<rscale>  0 0.55759306E+02</rscale>
<asrwt>0</asrwt>
<pdfrwt beam="1">  1        2 0.97568920E-02 0.89295644E+02</pdfrwt>
<pdfrwt beam="2">  1       -2 0.80798735E-02 0.89295644E+02</pdfrwt>
<totfact> 0.52744564E+04</totfact>
</mgrwt>
</event>
<event>
 6    1  0.1723639E-002  0.9316834E+02  0.7546771E-02  0.1395849E+00
          2   -1    0    0  501    0  0.00000000000E+00  0.00000000000E+00  0.12755076751E+03  0.12755076751E+03  0.00000000000E+00 0.  1.
         -2   -1    0    0    0  501 -0.00000000000E+00 -0.00000000000E+00 -0.40251300082E+02  0.40251300082E+02  0.00000000000E+00 0. -1.
         23    2    1    2    0    0 -0.16512757375E+02 -0.92244248763E+00  0.15903908859E+02  0.94515999069E+02  0.91688699994E+02 0.  0.
         13    1    3    3    0    0 -0.28539915849E+02 -0.30523540013E+02 -0.20107296933E+02  0.46373663663E+02  0.00000000000E+00 0. -1.
        -13    1    3    3    0    0  0.12027158474E+02  0.29601097525E+02  0.36011205792E+02  0.48142335405E+02  0.00000000000E+00 0.  1.
         22    1    1    2    0    0  0.16512757375E+02  0.92244248763E+00  0.71395558572E+02  0.73286068526E+02  0.00000000000E+00 0.  1.
<mgrwt>
<rscale>  0 0.60474922E+02</rscale>
<asrwt>0</asrwt>
<pdfrwt beam="1">  1        2 0.19623195E-01 0.93168341E+02</pdfrwt>
<pdfrwt beam="2">  1       -2 0.61925078E-02 0.93168341E+02</pdfrwt>
<totfact> 0.35111206E+04</totfact>
</mgrwt>
</event>
<event>
 6    1  0.1723639E-002  0.8524205E+02  0.7546771E-02  0.1432652E+00
         -2   -1    0    0    0  501 -0.00000000000E+00  0.00000000000E+00  0.37335644166E+02  0.37335644166E+02  0.00000000000E+00 0.  1.
          2   -1    0    0  501    0  0.00000000000E+00 -0.00000000000E+00 -0.65176866565E+02  0.65176866565E+02  0.00000000000E+00 0. -1.
         23    2    1    2    0    0  0.30783891788E+01  0.11806366962E+02 -0.18705729882E+02  0.87270332267E+02  0.84364327668E+02 0.  0.
         11    1    3    3    0    0  0.98495166695E+01 -0.21989264617E+02  0.22901019904E+02  0.33241501917E+02  0.00000000000E+00 0.  1.
        -11    1    3    3    0    0 -0.67711274907E+01  0.33795631579E+02 -0.41606749786E+02  0.54028830351E+02  0.00000000000E+00 0. -1.
         22    1    1    2    0    0 -0.30783891788E+01 -0.11806366962E+02 -0.91354925176E+01  0.15242178464E+02  0.00000000000E+00 0.  1.
<mgrwt>
<rscale>  0 0.52431240E+02</rscale>
<asrwt>0</asrwt>
<pdfrwt beam="1">  1        2 0.10027210E-01 0.85242047E+02</pdfrwt>
<pdfrwt beam="2">  1       -2 0.57439454E-02 0.85242047E+02</pdfrwt>
<totfact> 0.84841395E+04</totfact>
</mgrwt>
</event>
<event>
 6    1  0.1723639E-002  0.8965073E+02  0.7546771E-02  0.1424487E+00
          2   -1    0    0  501    0  0.00000000000E+00  0.00000000000E+00  0.39570907487E+02  0.39570907487E+02  0.00000000000E+00 0. -1.
         -2   -1    0    0    0  501 -0.00000000000E+00 -0.00000000000E+00 -0.11140992098E+03  0.11140992098E+03  0.00000000000E+00 0.  1.
         23    2    1    2    0    0  0.38536703943E+01 -0.11230550499E+02 -0.91444720090E+02  0.12806010049E+03  0.88860995190E+02 0.  0.
         11    1    3    3    0    0  0.62580003334E+01 -0.48694857108E+02 -0.35090961525E+02  0.60346725327E+02  0.00000000000E+00 0. -1.
        -11    1    3    3    0    0 -0.24043299391E+01  0.37464306609E+02 -0.56353758565E+02  0.67713375167E+02  0.00000000000E+00 0.  1.
         22    1    1    2    0    0 -0.38536703943E+01  0.11230550499E+02  0.19605706593E+02  0.22920727978E+02  0.00000000000E+00 0. -1.
<mgrwt>
<rscale>  0 0.54082719E+02</rscale>
<asrwt>0</asrwt>
<pdfrwt beam="1">  1        2 0.60878319E-02 0.89650725E+02</pdfrwt>
<pdfrwt beam="2">  1       -2 0.17139988E-01 0.89650725E+02</pdfrwt>
<totfact> 0.28910540E+04</totfact>
</mgrwt>
</event>
<event>
 6    1  0.1723639E-002  0.1188137E+03  0.7546771E-02  0.1356265E+00
          2   -1    0    0  501    0  0.00000000000E+00  0.00000000000E+00  0.25256998408E+02  0.25256998408E+02  0.00000000000E+00 0.  1.
         -2   -1    0    0    0  501 -0.00000000000E+00 -0.00000000000E+00 -0.17906908513E+03  0.17906908513E+03  0.00000000000E+00 0. -1.
         23    2    1    2    0    0  0.14975227240E+02 -0.29801248987E+01 -0.14107600236E+03  0.18444276339E+03  0.11782850228E+03 0.  0.
         13    1    3    3    0    0 -0.40198227060E+02 -0.69264891170E+01 -0.11738161724E+03  0.12426712266E+03  0.00000000000E+00 0. -1.
        -13    1    3    3    0    0  0.55173454301E+02  0.39463642183E+01 -0.23694385122E+02  0.60175640722E+02  0.00000000000E+00 0.  1.
         22    1    1    2    0    0 -0.14975227240E+02  0.29801248987E+01 -0.12736084360E+02  0.19883320148E+02  0.00000000000E+00 0.  1.
<mgrwt>
<rscale>  0 0.71138000E+02</rscale>
<asrwt>0</asrwt>
<pdfrwt beam="1">  1        2 0.38856922E-02 0.11881370E+03</pdfrwt>
<pdfrwt beam="2">  1       -2 0.27549089E-01 0.11881370E+03</pdfrwt>
<totfact> 0.23889900E+04</totfact>
</mgrwt>
</event>
<event>
 6    1  0.1723639E-002  0.2437074E+03  0.7546771E-02  0.1121576E+00
         -2   -1    0    0    0  501 -0.00000000000E+00  0.00000000000E+00  0.65341875831E+02  0.65341875831E+02  0.00000000000E+00 0.  1.
          2   -1    0    0  501    0  0.00000000000E+00 -0.00000000000E+00 -0.10675058361E+04  0.10675058361E+04  0.00000000000E+00 0. -1.
         23    2    1    2    0    0 -0.71292341763E+02  0.20730927597E+03 -0.79391415108E+03  0.83047754652E+03  0.10645910994E+03 0.  0.
         11    1    3    3    0    0  0.21429468960E+02  0.68791660347E+02 -0.16908337276E+03  0.18379527094E+03  0.00000000000E+00 0. -1.
        -11    1    3    3    0    0 -0.92721810723E+02  0.13851761562E+03 -0.62483077832E+03  0.64668227558E+03  0.00000000000E+00 0.  1.
         22    1    1    2    0    0  0.71292341763E+02 -0.20730927597E+03 -0.20824980914E+03  0.30237016537E+03  0.00000000000E+00 0. -1.
<mgrwt>
<rscale>  0 0.23734176E+03</rscale>
<asrwt>0</asrwt>
<pdfrwt beam="1">  1        2 0.16423166E+00 0.24370736E+03</pdfrwt>
<pdfrwt beam="2">  1       -2 0.10052597E-01 0.24370736E+03</pdfrwt>
<totfact> 0.15722368E+03</totfact>
</mgrwt>
</event>
<event>
 6    1  0.1723639E-002  0.1066878E+03  0.7546771E-02  0.1303826E+00
          2   -1    0    0  501    0  0.00000000000E+00  0.00000000000E+00  0.37609889204E+03  0.37609889204E+03  0.00000000000E+00 0. -1.
         -2   -1    0    0    0  501 -0.00000000000E+00 -0.00000000000E+00 -0.21508881044E+02  0.21508881044E+02  0.00000000000E+00 0.  1.
         23    2    1    2    0    0 -0.51031857970E+02 -0.14574632906E+02  0.13701337902E+03  0.17365183717E+03  0.92550656764E+02 0.  0.
         13    1    3    3    0    0 -0.43475144685E+02 -0.50401973608E+02  0.65900926510E+02  0.93666318727E+02  0.00000000000E+00 0.  1.
        -13    1    3    3    0    0 -0.75567132856E+01  0.35827340703E+02  0.71112452513E+02  0.79985518438E+02  0.00000000000E+00 0. -1.
         22    1    1    2    0    0  0.51031857970E+02  0.14574632906E+02  0.21757663197E+03  0.22395593592E+03  0.00000000000E+00 0. -1.
<mgrwt>
<rscale>  0 0.89599005E+02</rscale>
<asrwt>0</asrwt>
<pdfrwt beam="1">  1        2 0.57861363E-01 0.10668784E+03</pdfrwt>
<pdfrwt beam="2">  1       -2 0.33090589E-02 0.10668784E+03</pdfrwt>
<totfact> 0.28368722E+04</totfact>
</mgrwt>
</event>
<event>
 6    1  0.1723639E-002  0.9083166E+02  0.7546771E-02  0.1432262E+00
         -1   -1    0    0    0  501 -0.00000000000E+00  0.00000000000E+00  0.62051740130E+02  0.62051740130E+02  0.00000000000E+00 0.  1.
          1   -1    0    0  501    0  0.00000000000E+00 -0.00000000000E+00 -0.43870941961E+02  0.43870941961E+02  0.00000000000E+00 0. -1.
         23    2    1    2    0    0 -0.83050603543E+01  0.58246181793E+01  0.24364337120E+02  0.94042599668E+02  0.90263444564E+02 0.  0.
         11    1    3    3    0    0  0.18435517267E+02 -0.36305083368E+02  0.14165909627E+02  0.43111487690E+02  0.00000000000E+00 0.  1.
        -11    1    3    3    0    0 -0.26740577622E+02  0.42129701547E+02  0.10198427494E+02  0.50931111978E+02  0.00000000000E+00 0. -1.
         22    1    1    2    0    0  0.83050603543E+01 -0.58246181793E+01 -0.61835389515E+01  0.11880082423E+02  0.00000000000E+00 0.  1.
<mgrwt>
<rscale>  0 0.52508541E+02</rscale>
<asrwt>0</asrwt>
<pdfrwt beam="1">  1        1 0.67493757E-02 0.90831655E+02</pdfrwt>
<pdfrwt beam="2">  1       -1 0.95464216E-02 0.90831655E+02</pdfrwt>
<totfact> 0.61366481E+04</totfact>
</mgrwt>
</event>
<event>
 6    1  0.1723639E-002  0.8766414E+02  0.7546771E-02  0.1379355E+00
          4   -1    0    0  501    0  0.00000000000E+00  0.00000000000E+00  0.26446765121E+02  0.26446765121E+02  0.00000000000E+00 0. -1.
         -4   -1    0    0    0  501 -0.00000000000E+00 -0.00000000000E+00 -0.14191282413E+03  0.14191282413E+03  0.00000000000E+00 0.  1.
         23    2    1    2    0    0 -0.14024167767E+02 -0.21779469612E+02 -0.11199378681E+03  0.14222380435E+03  0.83749505438E+02 0.  0.
         11    1    3    3    0    0 -0.17633910094E+02 -0.26035702404E+02 -0.13866361369E+01  0.31475948670E+02  0.00000000000E+00 0. -1.
        -11    1    3    3    0    0  0.36097423266E+01  0.42562327920E+01 -0.11060715068E+03  0.11074785568E+03  0.00000000000E+00 0.  1.
         22    1    1    2    0    0  0.14024167767E+02  0.21779469612E+02 -0.34722721959E+01  0.26135784900E+02  0.00000000000E+00 0. -1.
<mgrwt>
<rscale>  0 0.64633644E+02</rscale>
<asrwt>0</asrwt>
<pdfrwt beam="1">  1        4 0.40687331E-02 0.87664145E+02</pdfrwt>
<pdfrwt beam="2">  1       -4 0.21832742E-01 0.87664145E+02</pdfrwt>
<totfact> 0.92076515E+03</totfact>
</mgrwt>
</event>
<event>
 6    1  0.1723639E-002  0.1005417E+03  0.7546771E-02  0.1331345E+00
         -1   -1    0    0    0  501 -0.00000000000E+00  0.00000000000E+00  0.80249891536E+01  0.80249891536E+01  0.00000000000E+00 0.  1.
          1   -1    0    0  501    0  0.00000000000E+00 -0.00000000000E+00 -0.60410808643E+03  0.60410808643E+03  0.00000000000E+00 0. -1.
         23    2    1    2    0    0  0.38226403914E+02  0.60890970305E+01 -0.43259414563E+03  0.44412422948E+03  0.92791709320E+02 0.  0.
         13    1    3    3    0    0  0.39430827586E+02  0.18865641198E+02 -0.42839823031E+03  0.43062251023E+03  0.00000000000E+00 0. -1.
        -13    1    3    3    0    0 -0.12044236719E+01 -0.12776544167E+02 -0.41959153121E+01  0.13501719244E+02  0.00000000000E+00 0.  1.
         22    1    1    2    0    0 -0.38226403914E+02 -0.60890970305E+01 -0.16348895165E+03  0.16800884611E+03  0.00000000000E+00 0.  1.
<mgrwt>
<rscale>  0 0.79197383E+02</rscale>
<asrwt>0</asrwt>
<pdfrwt beam="1">  1        1 0.92939731E-01 0.10054171E+03</pdfrwt>
<pdfrwt beam="2">  1       -1 0.12346134E-02 0.10054171E+03</pdfrwt>
<totfact> 0.43515370E+04</totfact>
</mgrwt>
</event>
<event>
 6    1  0.1723639E-002  0.1203317E+03  0.7546771E-02  0.1264013E+00
         -2   -1    0    0    0  501 -0.00000000000E+00  0.00000000000E+00  0.57097594850E+02  0.57097594850E+02  0.00000000000E+00 0.  1.
          2   -1    0    0  501    0  0.00000000000E+00 -0.00000000000E+00 -0.27963878062E+03  0.27963878062E+03  0.00000000000E+00 0. -1.
         23    2    1    2    0    0  0.73606240727E+02  0.27427822057E+02 -0.23295583839E+02  0.12256594337E+03  0.91156799809E+02 0.  0.
         11    1    3    3    0    0  0.88917726515E+02  0.19630740187E+02  0.30527561292E+01  0.91110083793E+02  0.00000000000E+00 0.  1.
        -11    1    3    3    0    0 -0.15311485787E+02  0.77970818701E+01 -0.26348339968E+02  0.31455859578E+02  0.00000000000E+00 0. -1.
         22    1    1    2    0    0 -0.73606240727E+02 -0.27427822057E+02 -0.19924560193E+03  0.21417043210E+03  0.00000000000E+00 0. -1.
<mgrwt>
<rscale>  0 0.10816138E+03</rscale>
<asrwt>0</asrwt>
<pdfrwt beam="1">  1        2 0.43021350E-01 0.12033173E+03</pdfrwt>
<pdfrwt beam="2">  1       -2 0.87842454E-02 0.12033173E+03</pdfrwt>
<totfact> 0.90386448E+03</totfact>
</mgrwt>
</event>
<event>
 6    1  0.1723639E-002  0.9897856E+02  0.7546771E-02  0.1338609E+00
          2   -1    0    0  501    0  0.00000000000E+00  0.00000000000E+00  0.17681943079E+03  0.17681943079E+03  0.00000000000E+00 0. -1.
         -2   -1    0    0    0  501 -0.00000000000E+00 -0.00000000000E+00 -0.60715433578E+02  0.60715433578E+02  0.00000000000E+00 0.  1.
         23    2    1    2    0    0  0.20938312686E+02 -0.28962798645E+02 -0.16371420826E+02  0.10032337422E+03  0.92301134078E+02 0.  0.
         11    1    3    3    0    0  0.24820881301E+02 -0.26736325360E+02  0.33931210016E+02  0.49822025806E+02  0.00000000000E+00 0. -1.
        -11    1    3    3    0    0 -0.38825686148E+01 -0.22264732850E+01 -0.50302630841E+02  0.50501348417E+02  0.00000000000E+00 0.  1.
         22    1    1    2    0    0 -0.20938312686E+02  0.28962798645E+02  0.13247541804E+03  0.13721149015E+03  0.00000000000E+00 0. -1.
<mgrwt>
<rscale>  0 0.76725660E+02</rscale>
<asrwt>0</asrwt>
<pdfrwt beam="1">  1        2 0.27202989E-01 0.98978563E+02</pdfrwt>
<pdfrwt beam="2">  1       -2 0.93408360E-02 0.98978563E+02</pdfrwt>
<totfact> 0.13175538E+04</totfact>
</mgrwt>
</event>
<event>
 6    1  0.1723639E-002  0.9377472E+02  0.7546771E-02  0.1377572E+00
          1   -1    0    0  501    0  0.00000000000E+00  0.00000000000E+00  0.69448984236E+03  0.69448984236E+03  0.00000000000E+00 0. -1.
         -1   -1    0    0    0  501 -0.00000000000E+00 -0.00000000000E+00 -0.48448110099E+01  0.48448110099E+01  0.00000000000E+00 0.  1.
         23    2    1    2    0    0 -0.32551249340E+01 -0.21544548827E+02  0.58203016908E+03  0.58953610145E+03  0.91208189161E+02 0.  0.
         13    1    3    3    0    0  0.21623537597E+02  0.19088376849E+02  0.41049753559E+03  0.41150962350E+03  0.00000000000E+00 0. -1.
        -13    1    3    3    0    0 -0.24878662531E+02 -0.40632925676E+02  0.17153263349E+03  0.17802647794E+03  0.00000000000E+00 0.  1.
         22    1    1    2    0    0  0.32551249340E+01  0.21544548827E+02  0.10761486227E+03  0.10979855192E+03  0.00000000000E+00 0.  1.
<mgrwt>
<rscale>  0 0.65106443E+02</rscale>
<asrwt>0</asrwt>
<pdfrwt beam="1">  1        1 0.10684451E+00 0.93774715E+02</pdfrwt>
<pdfrwt beam="2">  1       -1 0.74535609E-03 0.93774715E+02</pdfrwt>
<totfact> 0.72646013E+04</totfact>
</mgrwt>
</event>
<event>
 6    1  0.1723639E-002  0.9926831E+02  0.7546771E-02  0.1332874E+00
          2   -1    0    0  501    0  0.00000000000E+00  0.00000000000E+00  0.46667771749E+02  0.46667771749E+02  0.00000000000E+00 0. -1.
         -2   -1    0    0    0  501 -0.00000000000E+00 -0.00000000000E+00 -0.10290142814E+03  0.10290142814E+03  0.00000000000E+00 0.  1.
         23    2    1    2    0    0  0.37700990687E+02  0.10563327944E+02 -0.43675804669E+02  0.10845170683E+03  0.91220875924E+02 0.  0.
         13    1    3    3    0    0 -0.27257059069E+02  0.14543976510E+02 -0.15616923985E+01  0.30934016954E+02  0.00000000000E+00 0. -1.
        -13    1    3    3    0    0  0.64958049755E+02 -0.39806485655E+01 -0.42114112270E+02  0.77517689874E+02  0.00000000000E+00 0.  1.
         22    1    1    2    0    0 -0.37700990687E+02 -0.10563327944E+02 -0.12557851727E+02  0.41117493066E+02  0.00000000000E+00 0. -1.
<mgrwt>
<rscale>  0 0.78668145E+02</rscale>
<asrwt>0</asrwt>
<pdfrwt beam="1">  1        2 0.71796572E-02 0.99268307E+02</pdfrwt>
<pdfrwt beam="2">  1       -2 0.15830989E-01 0.99268307E+02</pdfrwt>
<totfact> 0.27074469E+04</totfact>
</mgrwt>
</event>
<event>
 6    1  0.1723639E-002  0.1092476E+03  0.7546771E-02  0.1294259E+00
         -2   -1    0    0    0  501 -0.00000000000E+00  0.00000000000E+00  0.20614783814E+02  0.20614783814E+02  0.00000000000E+00 0.  1.
          2   -1    0    0  501    0  0.00000000000E+00 -0.00000000000E+00 -0.34875213281E+03  0.34875213281E+03  0.00000000000E+00 0. -1.
         23    2    1    2    0    0 -0.56014588877E+02 -0.18459942727E+02 -0.19005749868E+03  0.21921882734E+03  0.91959979353E+02 0.  0.
         13    1    3    3    0    0 -0.54660803616E+02 -0.11187475420E+02 -0.19953922884E+03  0.20719282542E+03  0.00000000000E+00 0. -1.
        -13    1    3    3    0    0 -0.13537852606E+01 -0.72724673076E+01  0.94817301627E+01  0.12026001919E+02  0.00000000000E+00 0.  1.
         22    1    1    2    0    0  0.56014588877E+02  0.18459942727E+02 -0.13807985032E+03  0.15014808928E+03  0.00000000000E+00 0. -1.
<mgrwt>
<rscale>  0 0.93644327E+02</rscale>
<asrwt>0</asrwt>
<pdfrwt beam="1">  1        2 0.53654172E-01 0.10924762E+03</pdfrwt>
<pdfrwt beam="2">  1       -2 0.31715053E-02 0.10924762E+03</pdfrwt>
<totfact> 0.32778017E+04</totfact>
</mgrwt>
</event>
<event>
 6    1  0.1723639E-002  0.9421687E+02  0.7546771E-02  0.1388894E+00
         -2   -1    0    0    0  501 -0.00000000000E+00  0.00000000000E+00  0.95580407569E+01  0.95580407569E+01  0.00000000000E+00 0.  1.
          2   -1    0    0  501    0  0.00000000000E+00 -0.00000000000E+00 -0.33196907368E+03  0.33196907368E+03  0.00000000000E+00 0. -1.
         23    2    1    2    0    0 -0.84634762222E+01  0.15746336215E+02 -0.25733682481E+03  0.27404207835E+03  0.92505360762E+02 0.  0.
         13    1    3    3    0    0  0.27171113849E+02  0.99160965612E+01 -0.22075304015E+03  0.22263985074E+03  0.00000000000E+00 0. -1.
        -13    1    3    3    0    0 -0.35634590071E+02  0.58302396538E+01 -0.36583784657E+02  0.51402227615E+02  0.00000000000E+00 0.  1.
         22    1    1    2    0    0  0.84634762222E+01 -0.15746336215E+02 -0.65074208108E+02  0.67485036081E+02  0.00000000000E+00 0. -1.
<mgrwt>
<rscale>  0 0.62182553E+02</rscale>
<asrwt>0</asrwt>
<pdfrwt beam="1">  1        2 0.51072152E-01 0.94216874E+02</pdfrwt>
<pdfrwt beam="2">  1       -2 0.14704682E-02 0.94216874E+02</pdfrwt>
<totfact> 0.10277888E+05</totfact>
</mgrwt>
</event>
<event>
 6    1  0.1723639E-002  0.9429007E+02  0.7546771E-02  0.1368596E+00
         -4   -1    0    0    0  501 -0.00000000000E+00  0.00000000000E+00  0.72968194831E+02  0.72968194831E+02  0.00000000000E+00 0.  1.
          4   -1    0    0  501    0  0.00000000000E+00 -0.00000000000E+00 -0.50127223438E+02  0.50127223438E+02  0.00000000000E+00 0. -1.
         23    2    1    2    0    0 -0.24764786733E+02  0.20627101251E+01  0.26580714268E+02  0.97965055921E+02  0.90956409205E+02 0.  0.
         13    1    3    3    0    0  0.27295094568E+02  0.97010791907E+01 -0.13365388385E+02  0.31902456514E+02  0.00000000000E+00 0. -1.
        -13    1    3    3    0    0 -0.52059881302E+02 -0.76383690656E+01  0.39946102653E+02  0.66062599406E+02  0.00000000000E+00 0.  1.
         22    1    1    2    0    0  0.24764786733E+02 -0.20627101251E+01 -0.37397428749E+01  0.25130362349E+02  0.00000000000E+00 0.  1.
<mgrwt>
<rscale>  0 0.67559036E+02</rscale>
<asrwt>0</asrwt>
<pdfrwt beam="1">  1        4 0.77118805E-02 0.94290073E+02</pdfrwt>
<pdfrwt beam="2">  1       -4 0.11225876E-01 0.94290073E+02</pdfrwt>
<totfact> 0.10726684E+04</totfact>
</mgrwt>
</event>
<event>
 6    1  0.1723639E-002  0.9251763E+02  0.7546771E-02  0.1416069E+00
         -3   -1    0    0    0  501 -0.00000000000E+00  0.00000000000E+00  0.64096456721E+01  0.64096456721E+01  0.00000000000E+00 0.  1.
          3   -1    0    0  501    0  0.00000000000E+00 -0.00000000000E+00 -0.43477475824E+03  0.43477475824E+03  0.00000000000E+00 0. -1.
         23    2    1    2    0    0  0.85090294628E+01  0.88764856449E+01 -0.35850316745E+03  0.37024860932E+03  0.91696870430E+02 0.  0.
         13    1    3    3    0    0 -0.78349720910E+00  0.43103211236E+02 -0.94438821608E+02  0.10381325404E+03  0.00000000000E+00 0.  1.
        -13    1    3    3    0    0  0.92925266719E+01 -0.34226725591E+02 -0.26406434585E+03  0.26643535528E+03  0.00000000000E+00 0. -1.
         22    1    1    2    0    0 -0.85090294628E+01 -0.88764856449E+01 -0.69861945114E+02  0.70935794596E+02  0.00000000000E+00 0.  1.
<mgrwt>
<rscale>  0 0.55861264E+02</rscale>
<asrwt>0</asrwt>
<pdfrwt beam="1">  1        3 0.66888393E-01 0.92517629E+02</pdfrwt>
<pdfrwt beam="2">  1       -3 0.98609980E-03 0.92517629E+02</pdfrwt>
<totfact> 0.12679448E+04</totfact>
</mgrwt>
</event>
<event>
 6    1  0.1723639E-002  0.9742307E+02  0.7546771E-02  0.1410035E+00
          1   -1    0    0  501    0  0.00000000000E+00  0.00000000000E+00  0.28524256712E+03  0.28524256712E+03  0.00000000000E+00 0. -1.
         -1   -1    0    0    0  501 -0.00000000000E+00 -0.00000000000E+00 -0.10473007281E+02  0.10473007281E+02  0.00000000000E+00 0.  1.
         23    2    1    2    0    0  0.10704038414E+02 -0.43806491056E+01  0.23792404850E+03  0.25709746685E+03  0.96734110226E+02 0.  0.
         11    1    3    3    0    0 -0.40124124281E+02 -0.15933046008E+02  0.13486908076E+03  0.14161029712E+03  0.00000000000E+00 0. -1.
        -11    1    3    3    0    0  0.50828162695E+02  0.11552396903E+02  0.10305496774E+03  0.11548716973E+03  0.00000000000E+00 0.  1.
         22    1    1    2    0    0 -0.10704038414E+02  0.43806491056E+01  0.36845511341E+02  0.38618107553E+02  0.00000000000E+00 0.  1.
<mgrwt>
<rscale>  0 0.57186009E+02</rscale>
<asrwt>0</asrwt>
<pdfrwt beam="1">  1        1 0.43883466E-01 0.97423070E+02</pdfrwt>
<pdfrwt beam="2">  1       -1 0.16112321E-02 0.97423070E+02</pdfrwt>
<totfact> 0.76604065E+04</totfact>
</mgrwt>
</event>
<event>
 6    1  0.1723639E-002  0.1115924E+03  0.7546771E-02  0.1384335E+00
          2   -1    0    0  501    0  0.00000000000E+00  0.00000000000E+00  0.35379307504E+02  0.35379307504E+02  0.00000000000E+00 0. -1.
         -2   -1    0    0    0  501 -0.00000000000E+00 -0.00000000000E+00 -0.10926664992E+03  0.10926664992E+03  0.00000000000E+00 0.  1.
         23    2    1    2    0    0  0.83902064010E+01  0.79828336294E+01 -0.72275032331E+02  0.13295319299E+03  0.11098986454E+03 0.  0.
         13    1    3    3    0    0  0.43434622300E+02 -0.35214545975E+02 -0.38247189757E+02  0.67745687589E+02  0.00000000000E+00 0.  1.
        -13    1    3    3    0    0 -0.35044415899E+02  0.43197379605E+02 -0.34027842573E+02  0.65207505401E+02  0.00000000000E+00 0. -1.
         22    1    1    2    0    0 -0.83902064010E+01 -0.79828336294E+01 -0.16123100808E+01  0.11692764429E+02  0.00000000000E+00 0.  1.
<mgrwt>
<rscale>  0 0.63337839E+02</rscale>
<asrwt>0</asrwt>
<pdfrwt beam="1">  1        2 0.54429705E-02 0.11159243E+03</pdfrwt>
<pdfrwt beam="2">  1       -2 0.16810253E-01 0.11159243E+03</pdfrwt>
<totfact> 0.35426753E+04</totfact>
</mgrwt>
</event>
<event>
 6    1  0.1723639E-002  0.9165425E+02  0.7546771E-02  0.1418793E+00
          2   -1    0    0  501    0  0.00000000000E+00  0.00000000000E+00  0.90369504267E+01  0.90369504267E+01  0.00000000000E+00 0. -1.
         -2   -1    0    0    0  501 -0.00000000000E+00 -0.00000000000E+00 -0.31002229878E+03  0.31002229878E+03  0.00000000000E+00 0.  1.
         23    2    1    2    0    0  0.44308410487E+01 -0.11287662896E+02 -0.28210201264E+03  0.29661767944E+03  0.90848547227E+02 0.  0.
         13    1    3    3    0    0 -0.24386102994E+02 -0.33685214154E+02 -0.70179776994E+02  0.81575589307E+02  0.00000000000E+00 0. -1.
        -13    1    3    3    0    0  0.28816944043E+02  0.22397551258E+02 -0.21192223565E+03  0.21504209013E+03  0.00000000000E+00 0.  1.
         22    1    1    2    0    0 -0.44308410487E+01  0.11287662896E+02 -0.18883335712E+02  0.22441569768E+02  0.00000000000E+00 0.  1.
<mgrwt>
<rscale>  0 0.55277102E+02</rscale>
<asrwt>0</asrwt>
<pdfrwt beam="1">  1        2 0.13903003E-02 0.91654254E+02</pdfrwt>
<pdfrwt beam="2">  1       -2 0.47695732E-01 0.91654254E+02</pdfrwt>
<totfact> 0.33322881E+04</totfact>
</mgrwt>
</event>
<event>
 6    1  0.1723639E-002  0.8858675E+02  0.7546771E-02  0.1436402E+00
          2   -1    0    0  501    0  0.00000000000E+00  0.00000000000E+00  0.13928708002E+02  0.13928708002E+02  0.00000000000E+00 0. -1.
         -2   -1    0    0    0  501 -0.00000000000E+00 -0.00000000000E+00 -0.30379823626E+03  0.30379823626E+03  0.00000000000E+00 0.  1.
         23    2    1    2    0    0  0.96607319864E+01 -0.34955754028E+01 -0.29369484257E+03  0.30676419737E+03  0.87988996160E+02 0.  0.
         13    1    3    3    0    0  0.11670830026E+02  0.13487138969E+01 -0.29904289243E+03  0.29927358523E+03  0.00000000000E+00 0.  1.
        -13    1    3    3    0    0 -0.20100980391E+01 -0.48442892996E+01  0.53480498594E+01  0.74906121408E+01  0.00000000000E+00 0. -1.
         22    1    1    2    0    0 -0.96607319864E+01  0.34955754028E+01  0.38253143100E+01  0.10962746895E+02  0.00000000000E+00 0. -1.
<mgrwt>
<rscale>  0 0.51696154E+02</rscale>
<asrwt>0</asrwt>
<pdfrwt beam="1">  1        2 0.21428782E-02 0.88586750E+02</pdfrwt>
<pdfrwt beam="2">  1       -2 0.46738189E-01 0.88586750E+02</pdfrwt>
<totfact> 0.19205397E+04</totfact>
</mgrwt>
</event>
<event>
 6    1  0.1723639E-002  0.5795808E+02  0.7546771E-02  0.1519212E+00
          3   -1    0    0  501    0  0.00000000000E+00  0.00000000000E+00  0.19170660161E+01  0.19170660161E+01  0.00000000000E+00 0. -1.
         -3   -1    0    0    0  501 -0.00000000000E+00 -0.00000000000E+00 -0.66941711427E+03  0.66941711427E+03  0.00000000000E+00 0.  1.
         23    2    1    2    0    0  0.11290965786E+02  0.10105165992E+01 -0.60857505167E+03  0.61132866159E+03  0.56838648013E+02 0.  0.
         13    1    3    3    0    0  0.58827667618E+01 -0.88542400069E+01 -0.20029992852E+02  0.22676091474E+02  0.00000000000E+00 0. -1.
        -13    1    3    3    0    0  0.54081990240E+01  0.98647566061E+01 -0.58854505882E+03  0.58865257011E+03  0.00000000000E+00 0.  1.
         22    1    1    2    0    0 -0.11290965786E+02 -0.10105165992E+01 -0.58924996582E+02  0.60005518699E+02  0.00000000000E+00 0. -1.
<mgrwt>
<rscale>  0 0.38543519E+02</rscale>
<asrwt>0</asrwt>
<pdfrwt beam="1">  1        3 0.29493282E-03 0.57958079E+02</pdfrwt>
<pdfrwt beam="2">  1       -3 0.10298739E+00 0.57958079E+02</pdfrwt>
<totfact> 0.25425961E+04</totfact>
</mgrwt>
</event>
<event>
 6    1  0.1723639E-002  0.9573511E+02  0.7546771E-02  0.1369487E+00
         -2   -1    0    0    0  501 -0.00000000000E+00  0.00000000000E+00  0.15677684268E+02  0.15677684268E+02  0.00000000000E+00 0.  1.
          2   -1    0    0  501    0  0.00000000000E+00 -0.00000000000E+00 -0.27117934256E+03  0.27117934256E+03  0.00000000000E+00 0. -1.
         23    2    1    2    0    0  0.98604375688E+01 -0.21214577412E+02 -0.14394540987E+03  0.17287420757E+03  0.92832774905E+02 0.  0.
         13    1    3    3    0    0  0.35251193059E+02 -0.54532632077E+01 -0.13782871169E+03  0.14236972452E+03  0.00000000000E+00 0. -1.
        -13    1    3    3    0    0 -0.25390755490E+02 -0.15761314204E+02 -0.61166981765E+01  0.30504483054E+02  0.00000000000E+00 0.  1.
         22    1    1    2    0    0 -0.98604375688E+01  0.21214577412E+02 -0.11155624842E+03  0.11398281926E+03  0.00000000000E+00 0. -1.
<mgrwt>
<rscale>  0 0.67310104E+02</rscale>
<asrwt>0</asrwt>
<pdfrwt beam="1">  1        2 0.41719894E-01 0.95735107E+02</pdfrwt>
<pdfrwt beam="2">  1       -2 0.24119517E-02 0.95735107E+02</pdfrwt>
<totfact> 0.62544191E+04</totfact>
</mgrwt>
</event>
<event>
 6    1  0.1723639E-002  0.1028892E+03  0.7546771E-02  0.1325656E+00
          4   -1    0    0  501    0  0.00000000000E+00  0.00000000000E+00  0.63543819128E+02  0.63543819128E+02  0.00000000000E+00 0. -1.
         -4   -1    0    0    0  501 -0.00000000000E+00 -0.00000000000E+00 -0.83182100008E+02  0.83182100008E+02  0.00000000000E+00 0.  1.
         23    2    1    2    0    0 -0.34472237451E+02 -0.20150756588E+02 -0.26413250278E+02  0.10622544560E+03  0.94825088229E+02 0.  0.
         13    1    3    3    0    0 -0.39547904657E+02  0.18521870027E+02  0.17895665451E+02  0.47194822534E+02  0.00000000000E+00 0. -1.
        -13    1    3    3    0    0  0.50756672054E+01 -0.38672626616E+02 -0.44308915729E+02  0.59030623070E+02  0.00000000000E+00 0.  1.
         22    1    1    2    0    0  0.34472237451E+02  0.20150756588E+02  0.67749693985E+01  0.40500473532E+02  0.00000000000E+00 0.  1.
<mgrwt>
<rscale>  0 0.81208515E+02</rscale>
<asrwt>0</asrwt>
<pdfrwt beam="1">  1        4 0.97759722E-02 0.10288919E+03</pdfrwt>
<pdfrwt beam="2">  1       -4 0.12797246E-01 0.10288919E+03</pdfrwt>
<totfact> 0.59450215E+03</totfact>
</mgrwt>
</event>
<event>
 6    1  0.1723639E-002  0.9115908E+02  0.7546771E-02  0.1409434E+00
          2   -1    0    0  501    0  0.00000000000E+00  0.00000000000E+00  0.72084039630E+02  0.72084039630E+02  0.00000000000E+00 0. -1.
         -2   -1    0    0    0  501 -0.00000000000E+00 -0.00000000000E+00 -0.41517399790E+02  0.41517399790E+02  0.00000000000E+00 0.  1.
         23    2    1    2    0    0  0.91425124753E+01 -0.10931527453E+02  0.14806511627E+02  0.92353722646E+02  0.90038288929E+02 0.  0.
         11    1    3    3    0    0  0.24065205637E+01 -0.46896295476E+02 -0.10176554005E+02  0.48048060544E+02  0.00000000000E+00 0.  1.
        -11    1    3    3    0    0  0.67359919116E+01  0.35964768023E+02  0.24983065632E+02  0.44305662102E+02  0.00000000000E+00 0. -1.
         22    1    1    2    0    0 -0.91425124753E+01  0.10931527453E+02  0.15760128213E+02  0.21247716774E+02  0.00000000000E+00 0. -1.
<mgrwt>
<rscale>  0 0.57320419E+02</rscale>
<asrwt>0</asrwt>
<pdfrwt beam="1">  1        2 0.11089852E-01 0.91159077E+02</pdfrwt>
<pdfrwt beam="2">  1       -2 0.63872923E-02 0.91159077E+02</pdfrwt>
<totfact> 0.64753709E+04</totfact>
</mgrwt>
</event>
<event>
 6    1  0.1723639E-002  0.1069011E+03  0.7546771E-02  0.1303730E+00
          2   -1    0    0  501    0  0.00000000000E+00  0.00000000000E+00  0.90346580202E+03  0.90346580202E+03  0.00000000000E+00 0. -1.
         -2   -1    0    0    0  501 -0.00000000000E+00 -0.00000000000E+00 -0.80016111889E+01  0.80016111889E+01  0.00000000000E+00 0.  1.
         23    2    1    2    0    0 -0.43165021157E+02 -0.30490557853E+02  0.72953132251E+03  0.73732204302E+03  0.92924439343E+02 0.  0.
         11    1    3    3    0    0  0.67706104755E+01  0.61020731542E+01  0.48467679751E+03  0.48476249289E+03  0.00000000000E+00 0. -1.
        -11    1    3    3    0    0 -0.49935631633E+02 -0.36592631007E+02  0.24485452500E+03  0.25255955013E+03  0.00000000000E+00 0.  1.
         22    1    1    2    0    0  0.43165021157E+02  0.30490557853E+02  0.16593286832E+03  0.17414537019E+03  0.00000000000E+00 0.  1.
<mgrwt>
<rscale>  0 0.89638259E+02</rscale>
<asrwt>0</asrwt>
<pdfrwt beam="1">  1        2 0.13899466E+00 0.10690110E+03</pdfrwt>
<pdfrwt beam="2">  1       -2 0.12310178E-02 0.10690110E+03</pdfrwt>
<totfact> 0.43661007E+04</totfact>
</mgrwt>
</event>
<event>
 6    1  0.1723639E-002  0.9362904E+02  0.7546771E-02  0.1403619E+00
         -1   -1    0    0    0  501 -0.00000000000E+00  0.00000000000E+00  0.10602371116E+02  0.10602371116E+02  0.00000000000E+00 0.  1.
          1   -1    0    0  501    0  0.00000000000E+00 -0.00000000000E+00 -0.28355010673E+03  0.28355010673E+03  0.00000000000E+00 0. -1.
         23    2    1    2    0    0  0.14098621019E+02 -0.29711681256E+01 -0.21617999162E+03  0.23558477588E+03  0.92513776799E+02 0.  0.
         13    1    3    3    0    0  0.31395320354E+02 -0.36374472682E+02 -0.16635275252E+03  0.17315313071E+03  0.00000000000E+00 0. -1.
        -13    1    3    3    0    0 -0.17296699335E+02  0.33403304557E+02 -0.49827239098E+02  0.62431645175E+02  0.00000000000E+00 0.  1.
         22    1    1    2    0    0 -0.14098621019E+02  0.29711681256E+01 -0.56767744001E+02  0.58567701967E+02  0.00000000000E+00 0. -1.
<mgrwt>
<rscale>  0 0.58642312E+02</rscale>
<asrwt>0</asrwt>
<pdfrwt beam="1">  1        1 0.43623101E-01 0.93629044E+02</pdfrwt>
<pdfrwt beam="2">  1       -1 0.16311337E-02 0.93629044E+02</pdfrwt>
<totfact> 0.75400150E+04</totfact>
</mgrwt>
</event>
<event>
 6    1  0.1723639E-002  0.9144811E+02  0.7546771E-02  0.1425843E+00
         -2   -1    0    0    0  501 -0.00000000000E+00  0.00000000000E+00  0.12049876401E+03  0.12049876401E+03  0.00000000000E+00 0.  1.
          2   -1    0    0  501    0  0.00000000000E+00 -0.00000000000E+00 -0.21768527512E+02  0.21768527512E+02  0.00000000000E+00 0. -1.
         23    2    1    2    0    0  0.56715747318E+01 -0.93757263320E+01  0.87150326935E+02  0.12632472869E+03  0.90789242698E+02 0.  0.
         11    1    3    3    0    0  0.38125086115E+02  0.13582283190E+02  0.13559660103E+02  0.42683310439E+02  0.00000000000E+00 0. -1.
        -11    1    3    3    0    0 -0.32453511383E+02 -0.22958009522E+02  0.73590666831E+02  0.83641418251E+02  0.00000000000E+00 0.  1.
         22    1    1    2    0    0 -0.56715747318E+01  0.93757263320E+01  0.11579909568E+02  0.15942562837E+02  0.00000000000E+00 0. -1.
<mgrwt>
<rscale>  0 0.53803538E+02</rscale>
<asrwt>0</asrwt>
<pdfrwt beam="1">  1        2 0.33490043E-02 0.91448114E+02</pdfrwt>
<pdfrwt beam="2">  1       -2 0.18538271E-01 0.91448114E+02</pdfrwt>
<totfact> 0.55307455E+04</totfact>
</mgrwt>
</event>
<event>
 6    1  0.1723639E-002  0.9240455E+02  0.7546771E-02  0.1412126E+00
          4   -1    0    0  501    0  0.00000000000E+00  0.00000000000E+00  0.67864002733E+02  0.67864002733E+02  0.00000000000E+00 0. -1.
         -4   -1    0    0    0  501 -0.00000000000E+00 -0.00000000000E+00 -0.41498951146E+02  0.41498951146E+02  0.00000000000E+00 0.  1.
         23    2    1    2    0    0 -0.13110766961E+02 -0.48641911212E+00  0.19071450310E+02  0.94352110017E+02  0.91468418779E+02 0.  0.
         13    1    3    3    0    0 -0.46635097140E+02 -0.61454680741E+01  0.33158385363E+02  0.57550652325E+02  0.00000000000E+00 0. -1.
        -13    1    3    3    0    0  0.33524330179E+02  0.56590489620E+01 -0.14086935053E+02  0.36801457692E+02  0.00000000000E+00 0.  1.
         22    1    1    2    0    0  0.13110766961E+02  0.48641911212E+00  0.72936012770E+01  0.15010843862E+02  0.00000000000E+00 0. -1.
<mgrwt>
<rscale>  0 0.56722022E+02</rscale>
<asrwt>0</asrwt>
<pdfrwt beam="1">  1        4 0.10440616E-01 0.92404548E+02</pdfrwt>
<pdfrwt beam="2">  1       -4 0.63844540E-02 0.92404548E+02</pdfrwt>
<totfact> 0.16383243E+04</totfact>
</mgrwt>
</event>
<event>
 6    1  0.1723639E-002  0.9299390E+02  0.7546771E-02  0.1393112E+00
         -1   -1    0    0    0  501 -0.00000000000E+00  0.00000000000E+00  0.18391218881E+03  0.18391218881E+03  0.00000000000E+00 0.  1.
          1   -1    0    0  501    0  0.00000000000E+00 -0.00000000000E+00 -0.17316406506E+02  0.17316406506E+02  0.00000000000E+00 0. -1.
         23    2    1    2    0    0 -0.16000239527E+02 -0.67728437117E+01  0.15349826969E+03  0.17947028855E+03  0.91356371398E+02 0.  0.
         13    1    3    3    0    0  0.99932964796E+01 -0.65283694703E+01  0.15300602824E+03  0.15347094272E+03  0.00000000000E+00 0.  1.
        -13    1    3    3    0    0 -0.25993536007E+02 -0.24447424140E+00  0.49224145768E+00  0.25999345827E+02  0.00000000000E+00 0. -1.
         22    1    1    2    0    0  0.16000239527E+02  0.67728437117E+01  0.13097512606E+02  0.21758306766E+02  0.00000000000E+00 0.  1.
<mgrwt>
<rscale>  0 0.61139232E+02</rscale>
<asrwt>0</asrwt>
<pdfrwt beam="1">  1        1 0.26640627E-02 0.92993901E+02</pdfrwt>
<pdfrwt beam="2">  1       -1 0.28294182E-01 0.92993901E+02</pdfrwt>
<totfact> 0.39591573E+04</totfact>
</mgrwt>
</event>
<event>
 6    1  0.1723639E-002  0.9547216E+02  0.7546771E-02  0.1412949E+00
          2   -1    0    0  501    0  0.00000000000E+00  0.00000000000E+00  0.22208906459E+03  0.22208906459E+03  0.00000000000E+00 0. -1.
         -2   -1    0    0    0  501 -0.00000000000E+00 -0.00000000000E+00 -0.13377329106E+02  0.13377329106E+02  0.00000000000E+00 0.  1.
         23    2    1    2    0    0  0.23240741534E+00  0.11741863493E+02  0.16955411942E+03  0.19458553916E+03  0.94747069968E+02 0.  0.
         11    1    3    3    0    0 -0.29873988173E+02  0.16357994421E+02  0.15860234125E+03  0.16221819196E+03  0.00000000000E+00 0. -1.
        -11    1    3    3    0    0  0.30106395588E+02 -0.46161309276E+01  0.10951778165E+02  0.32367347204E+02  0.00000000000E+00 0.  1.
         22    1    1    2    0    0 -0.23240741534E+00 -0.11741863493E+02  0.39157616070E+02  0.40880854539E+02  0.00000000000E+00 0.  1.
<mgrwt>
<rscale>  0 0.56540946E+02</rscale>
<asrwt>0</asrwt>
<pdfrwt beam="1">  1        2 0.34167546E-01 0.95472156E+02</pdfrwt>
<pdfrwt beam="2">  1       -2 0.20580508E-02 0.95472156E+02</pdfrwt>
<totfact> 0.97021436E+04</totfact>
</mgrwt>
</event>
<event>
 6    1  0.1723639E-002  0.8814655E+02  0.7546771E-02  0.1434974E+00
         -2   -1    0    0    0  501 -0.00000000000E+00  0.00000000000E+00  0.19254875178E+02  0.19254875178E+02  0.00000000000E+00 0.  1.
          2   -1    0    0  501    0  0.00000000000E+00 -0.00000000000E+00 -0.13229172089E+03  0.13229172089E+03  0.00000000000E+00 0. -1.
         23    2    1    2    0    0  0.63520129548E+01  0.85541520722E+01 -0.89043275530E+02  0.12529372963E+03  0.87500241031E+02 0.  0.
         13    1    3    3    0    0  0.72622258380E+01 -0.37378374856E+02 -0.21864986879E+02  0.43908546802E+02  0.00000000000E+00 0.  1.
        -13    1    3    3    0    0 -0.91021288324E+00  0.45932526928E+02 -0.67178288651E+02  0.81385182825E+02  0.00000000000E+00 0. -1.
         22    1    1    2    0    0 -0.63520129548E+01 -0.85541520722E+01 -0.23993570180E+02  0.26252866439E+02  0.00000000000E+00 0.  1.
<mgrwt>
<rscale>  0 0.51974316E+02</rscale>
<asrwt>0</asrwt>
<pdfrwt beam="1">  1        2 0.20352573E-01 0.88146547E+02</pdfrwt>
<pdfrwt beam="2">  1       -2 0.29622885E-02 0.88146547E+02</pdfrwt>
<totfact> 0.99298424E+04</totfact>
</mgrwt>
</event>
<event>
 6    1  0.1723639E-002  0.9552999E+02  0.7546771E-02  0.1395125E+00
          3   -1    0    0  501    0  0.00000000000E+00  0.00000000000E+00  0.82733449023E+02  0.82733449023E+02  0.00000000000E+00 0. -1.
         -3   -1    0    0    0  501 -0.00000000000E+00 -0.00000000000E+00 -0.37395944565E+02  0.37395944565E+02  0.00000000000E+00 0.  1.
         23    2    1    2    0    0  0.15323687411E+02 -0.24622974490E+01  0.36471841130E+02  0.10225543793E+03  0.94260814162E+02 0.  0.
         11    1    3    3    0    0  0.23587828945E+01 -0.26513835282E+02 -0.24035839021E+02  0.35864590832E+02  0.00000000000E+00 0.  1.
        -11    1    3    3    0    0  0.12964904516E+02  0.24051537833E+02  0.60507680151E+02  0.66390847099E+02  0.00000000000E+00 0. -1.
         22    1    1    2    0    0 -0.15323687411E+02  0.24622974490E+01  0.88656633279E+01  0.17873955657E+02  0.00000000000E+00 0. -1.
<mgrwt>
<rscale>  0 0.60649820E+02</rscale>
<asrwt>0</asrwt>
<pdfrwt beam="1">  1        3 0.12728223E-01 0.95529992E+02</pdfrwt>
<pdfrwt beam="2">  1       -3 0.57532223E-02 0.95529992E+02</pdfrwt>
<totfact> 0.18523749E+04</totfact>
</mgrwt>
</event>
<event>
 6    1  0.1723639E-002  0.9660079E+02  0.7546771E-02  0.1349611E+00
         -2   -1    0    0    0  501 -0.00000000000E+00  0.00000000000E+00  0.88659046453E+01  0.88659046453E+01  0.00000000000E+00 0.  1.
          2   -1    0    0  501    0  0.00000000000E+00 -0.00000000000E+00 -0.63058434259E+03  0.63058434259E+03  0.00000000000E+00 0. -1.
         23    2    1    2    0    0  0.16557372048E+01 -0.31766409578E+02 -0.57419045420E+03  0.58225972807E+03  0.91213304946E+02 0.  0.
         11    1    3    3    0    0  0.42609651315E+02 -0.35417036292E+02 -0.31801149037E+03  0.32280219462E+03  0.00000000000E+00 0. -1.
        -11    1    3    3    0    0 -0.40953914110E+02  0.36506267138E+01 -0.25617896382E+03  0.25945753345E+03  0.00000000000E+00 0.  1.
         22    1    1    2    0    0 -0.16557372048E+01  0.31766409578E+02 -0.47527983749E+02  0.57190519166E+02  0.00000000000E+00 0.  1.
<mgrwt>
<rscale>  0 0.73177039E+02</rscale>
<asrwt>0</asrwt>
<pdfrwt beam="1">  1        2 0.97012966E-01 0.96600793E+02</pdfrwt>
<pdfrwt beam="2">  1       -2 0.13639855E-02 0.96600793E+02</pdfrwt>
<totfact> 0.57539034E+04</totfact>
</mgrwt>
</event>
<event>
 6    1  0.1723639E-002  0.9506442E+02  0.7546771E-02  0.1376810E+00
         -2   -1    0    0    0  501 -0.00000000000E+00  0.00000000000E+00  0.29995650574E+03  0.29995650574E+03  0.00000000000E+00 0.  1.
          2   -1    0    0  501    0  0.00000000000E+00 -0.00000000000E+00 -0.14539437353E+02  0.14539437353E+02  0.00000000000E+00 0. -1.
         23    2    1    2    0    0  0.14142184228E+02 -0.15762439703E+02  0.27485622933E+03  0.29083189438E+03  0.92675714756E+02 0.  0.
         11    1    3    3    0    0 -0.15037521696E+02  0.21973873008E+02  0.25205332662E+02  0.36664518929E+02  0.00000000000E+00 0. -1.
        -11    1    3    3    0    0  0.29179705924E+02 -0.37736312712E+02  0.24965089667E+03  0.25416737545E+03  0.00000000000E+00 0.  1.
         22    1    1    2    0    0 -0.14142184228E+02  0.15762439703E+02  0.10560839061E+02  0.23664048720E+02  0.00000000000E+00 0. -1.
<mgrwt>
<rscale>  0 0.65309817E+02</rscale>
<asrwt>0</asrwt>
<pdfrwt beam="1">  1        2 0.22368367E-02 0.95064420E+02</pdfrwt>
<pdfrwt beam="2">  1       -2 0.46147150E-01 0.95064420E+02</pdfrwt>
<totfact> 0.18750627E+04</totfact>
</mgrwt>
</event>
<event>
 6    1  0.1723639E-002  0.9050277E+02  0.7546771E-02  0.1412876E+00
         -1   -1    0    0    0  501 -0.00000000000E+00  0.00000000000E+00  0.23535568894E+02  0.23535568894E+02  0.00000000000E+00 0.  1.
          1   -1    0    0  501    0  0.00000000000E+00 -0.00000000000E+00 -0.11624980539E+03  0.11624980539E+03  0.00000000000E+00 0. -1.
         23    2    1    2    0    0  0.13167925526E+02 -0.41373245428E+01 -0.76598465626E+02  0.11856675539E+03  0.89444054194E+02 0.  0.
         13    1    3    3    0    0 -0.24113809317E+01  0.39100567673E+02 -0.55657085657E+02  0.68061592210E+02  0.00000000000E+00 0. -1.
        -13    1    3    3    0    0  0.15579306458E+02 -0.43237892215E+02 -0.20941379969E+02  0.50505163181E+02  0.00000000000E+00 0.  1.
         22    1    1    2    0    0 -0.13167925526E+02  0.41373245428E+01 -0.16115770872E+02  0.21218618895E+02  0.00000000000E+00 0. -1.
<mgrwt>
<rscale>  0 0.56557030E+02</rscale>
<asrwt>0</asrwt>
<pdfrwt beam="1">  1        1 0.17884586E-01 0.90502765E+02</pdfrwt>
<pdfrwt beam="2">  1       -1 0.36208567E-02 0.90502765E+02</pdfrwt>
<totfact> 0.71987165E+04</totfact>
</mgrwt>
</event>
<event>
 6    1  0.1723639E-002  0.9401854E+02  0.7546771E-02  0.1379813E+00
          2   -1    0    0  501    0  0.00000000000E+00  0.00000000000E+00  0.16009838449E+03  0.16009838449E+03  0.00000000000E+00 0. -1.
         -2   -1    0    0    0  501 -0.00000000000E+00 -0.00000000000E+00 -0.28493666071E+02  0.28493666071E+02  0.00000000000E+00 0.  1.
         23    2    1    2    0    0  0.96864006045E+01  0.18454613193E+02  0.54397819003E+02  0.10862140331E+03  0.91679263955E+02 0.  0.
         11    1    3    3    0    0 -0.35355641313E+01 -0.52863049503E+01 -0.24428369391E+02  0.25242631893E+02  0.00000000000E+00 0.  1.
        -11    1    3    3    0    0  0.13221964736E+02  0.23740918144E+02  0.78826188394E+02  0.83378771414E+02  0.00000000000E+00 0. -1.
         22    1    1    2    0    0 -0.96864006045E+01 -0.18454613193E+02  0.77206899417E+02  0.79970647255E+02  0.00000000000E+00 0. -1.
<mgrwt>
<rscale>  0 0.64512854E+02</rscale>
<asrwt>0</asrwt>
<pdfrwt beam="1">  1        2 0.24630520E-01 0.94018544E+02</pdfrwt>
<pdfrwt beam="2">  1       -2 0.43836411E-02 0.94018544E+02</pdfrwt>
<totfact> 0.45748856E+04</totfact>
</mgrwt>
</event>
<event>
 6    1  0.1723639E-002  0.9857872E+02  0.7546771E-02  0.1338677E+00
          2   -1    0    0  501    0  0.00000000000E+00  0.00000000000E+00  0.55250919221E+03  0.55250919221E+03  0.00000000000E+00 0. -1.
         -2   -1    0    0    0  501 -0.00000000000E+00 -0.00000000000E+00 -0.87060345707E+01  0.87060345707E+01  0.00000000000E+00 0.  1.
         23    2    1    2    0    0 -0.11228920714E+02  0.34343851944E+02  0.45051077405E+03  0.46116994872E+03  0.91717911225E+02 0.  0.
         13    1    3    3    0    0 -0.24032015472E+02  0.20202658773E+01  0.39456546015E+03  0.39530181075E+03  0.00000000000E+00 0. -1.
        -13    1    3    3    0    0  0.12803094758E+02  0.32323586067E+02  0.55945313898E+02  0.65868137963E+02  0.00000000000E+00 0.  1.
         22    1    1    2    0    0  0.11228920714E+02 -0.34343851944E+02  0.93292383594E+02  0.10004527807E+03  0.00000000000E+00 0.  1.
<mgrwt>
<rscale>  0 0.76703147E+02</rscale>
<asrwt>0</asrwt>
<pdfrwt beam="1">  1        2 0.85001387E-01 0.98578720E+02</pdfrwt>
<pdfrwt beam="2">  1       -2 0.13393904E-02 0.98578720E+02</pdfrwt>
<totfact> 0.68634262E+04</totfact>
</mgrwt>
</event>
<event>
 6    1  0.1723639E-002  0.9502460E+02  0.7546771E-02  0.1367592E+00
         -4   -1    0    0    0  501 -0.00000000000E+00  0.00000000000E+00  0.35541681207E+02  0.35541681207E+02  0.00000000000E+00 0.  1.
          4   -1    0    0  501    0  0.00000000000E+00 -0.00000000000E+00 -0.13781749775E+03  0.13781749775E+03  0.00000000000E+00 0. -1.
         23    2    1    2    0    0 -0.24020633243E+02  0.56957302773E+01 -0.34276884615E+02  0.10101771845E+03  0.91761879107E+02 0.  0.
         13    1    3    3    0    0  0.18329239080E+02  0.30661845481E+02 -0.37448679478E+02  0.51754356032E+02  0.00000000000E+00 0. -1.
        -13    1    3    3    0    0 -0.42349872323E+02 -0.24966115204E+02  0.31717948637E+01  0.49263362419E+02  0.00000000000E+00 0.  1.
         22    1    1    2    0    0  0.24020633243E+02 -0.56957302773E+01 -0.67998931931E+02  0.72341460509E+02  0.00000000000E+00 0.  1.
<mgrwt>
<rscale>  0 0.67841073E+02</rscale>
<asrwt>0</asrwt>
<pdfrwt beam="1">  1        4 0.21202691E-01 0.95024600E+02</pdfrwt>
<pdfrwt beam="2">  1       -4 0.54679511E-02 0.95024600E+02</pdfrwt>
<totfact> 0.62134464E+03</totfact>
</mgrwt>
</event>
<event>
 6    1  0.1723639E-002  0.9188222E+02  0.7546771E-02  0.1402779E+00
          1   -1    0    0  501    0  0.00000000000E+00  0.00000000000E+00  0.19344136815E+03  0.19344136815E+03  0.00000000000E+00 0. -1.
         -1   -1    0    0    0  501 -0.00000000000E+00 -0.00000000000E+00 -0.14918483614E+02  0.14918483614E+02  0.00000000000E+00 0.  1.
         23    2    1    2    0    0  0.12742140948E+02  0.87355499610E+01  0.14940036344E+03  0.17539330472E+03  0.90574117470E+02 0.  0.
         13    1    3    3    0    0 -0.73023149871E+01  0.44694724949E+01 -0.10859443027E+02  0.13828502862E+02  0.00000000000E+00 0.  1.
        -13    1    3    3    0    0  0.20044455935E+02  0.42660774661E+01  0.16025980647E+03  0.16156480186E+03  0.00000000000E+00 0. -1.
         22    1    1    2    0    0 -0.12742140948E+02 -0.87355499610E+01  0.29122521098E+02  0.32966547046E+02  0.00000000000E+00 0.  1.
<mgrwt>
<rscale>  0 0.58836767E+02</rscale>
<asrwt>0</asrwt>
<pdfrwt beam="1">  1        1 0.29760209E-01 0.91882222E+02</pdfrwt>
<pdfrwt beam="2">  1       -1 0.22951515E-02 0.91882222E+02</pdfrwt>
<totfact> 0.73742092E+04</totfact>
</mgrwt>
</event>
<event>
 6    1  0.1723639E-002  0.9315563E+02  0.7546771E-02  0.1407274E+00
          2   -1    0    0  501    0  0.00000000000E+00  0.00000000000E+00  0.16903929248E+02  0.16903929248E+02  0.00000000000E+00 0. -1.
         -2   -1    0    0    0  501 -0.00000000000E+00 -0.00000000000E+00 -0.17121784938E+03  0.17121784938E+03  0.00000000000E+00 0.  1.
         23    2    1    2    0    0 -0.29798935805E+01 -0.13487479448E+02 -0.14057639508E+03  0.16864072470E+03  0.92125888358E+02 0.  0.
         13    1    3    3    0    0 -0.25600510257E+02 -0.29831854545E+02 -0.13443609737E+03  0.14006566298E+03  0.00000000000E+00 0. -1.
        -13    1    3    3    0    0  0.22620616677E+02  0.16344375097E+02 -0.61402977124E+01  0.28575061717E+02  0.00000000000E+00 0.  1.
         22    1    1    2    0    0  0.29798935805E+01  0.13487479448E+02 -0.13737525047E+02  0.19481053925E+02  0.00000000000E+00 0.  1.
<mgrwt>
<rscale>  0 0.57806518E+02</rscale>
<asrwt>0</asrwt>
<pdfrwt beam="1">  1        2 0.26006046E-02 0.93155629E+02</pdfrwt>
<pdfrwt beam="2">  1       -2 0.26341207E-01 0.93155629E+02</pdfrwt>
<totfact> 0.42706692E+04</totfact>
</mgrwt>
</event>
<event>
 6    1  0.1723639E-002  0.9571606E+02  0.7546771E-02  0.1373615E+00
          2   -1    0    0  501    0  0.00000000000E+00  0.00000000000E+00  0.95321128126E+01  0.95321128126E+01  0.00000000000E+00 0. -1.
         -2   -1    0    0    0  501 -0.00000000000E+00 -0.00000000000E+00 -0.36861487869E+03  0.36861487869E+03  0.00000000000E+00 0.  1.
         23    2    1    2    0    0  0.20071740891E+02 -0.86719913896E+01 -0.30936472486E+03  0.32383344053E+03  0.93185224141E+02 0.  0.
         11    1    3    3    0    0  0.56731457656E+02 -0.97434334889E+00 -0.15722191324E+03  0.16714705392E+03  0.00000000000E+00 0.  1.
        -11    1    3    3    0    0 -0.36659716765E+02 -0.76976480407E+01 -0.15214281162E+03  0.15668638661E+03  0.00000000000E+00 0. -1.
         22    1    1    2    0    0 -0.20071740891E+02  0.86719913896E+01 -0.49718041019E+02  0.54313550978E+02  0.00000000000E+00 0. -1.
<mgrwt>
<rscale>  0 0.66172262E+02</rscale>
<asrwt>0</asrwt>
<pdfrwt beam="1">  1        2 0.14664790E-02 0.95716060E+02</pdfrwt>
<pdfrwt beam="2">  1       -2 0.56709977E-01 0.95716060E+02</pdfrwt>
<totfact> 0.22133001E+04</totfact>
</mgrwt>
</event>
<event>
 6    1  0.1723639E-002  0.9814021E+02  0.7546771E-02  0.1352535E+00
         -2   -1    0    0    0  501 -0.00000000000E+00  0.00000000000E+00  0.24609703706E+02  0.24609703706E+02  0.00000000000E+00 0.  1.
          2   -1    0    0  501    0  0.00000000000E+00 -0.00000000000E+00 -0.15808903378E+04  0.15808903378E+04  0.00000000000E+00 0. -1.
         23    2    1    2    0    0  0.28765034856E+02  0.23632638080E+01 -0.15703345422E+04  0.15733982568E+04  0.93800255450E+02 0.  0.
         11    1    3    3    0    0  0.44535241414E+01 -0.13504826886E+02 -0.14310311904E+04  0.14311018420E+04  0.00000000000E+00 0.  1.
        -11    1    3    3    0    0  0.24311510714E+02  0.15868090694E+02 -0.13930335174E+03  0.14229641479E+03  0.00000000000E+00 0. -1.
         22    1    1    2    0    0 -0.28765034856E+02 -0.23632638080E+01  0.14053908109E+02  0.32101784673E+02  0.00000000000E+00 0.  1.
<mgrwt>
<rscale>  0 0.72271430E+02</rscale>
<asrwt>0</asrwt>
<pdfrwt beam="1">  1        2 0.24321387E+00 0.98140207E+02</pdfrwt>
<pdfrwt beam="2">  1       -2 0.37861087E-02 0.98140207E+02</pdfrwt>
<totfact> 0.36411271E+03</totfact>
</mgrwt>
</event>
<event>
 6    1  0.1723639E-002  0.8833458E+02  0.7546771E-02  0.1438516E+00
         -2   -1    0    0    0  501 -0.00000000000E+00  0.00000000000E+00  0.83814491787E+02  0.83814491787E+02  0.00000000000E+00 0.  1.
          2   -1    0    0  501    0  0.00000000000E+00 -0.00000000000E+00 -0.32074815209E+02  0.32074815209E+02  0.00000000000E+00 0. -1.
         23    2    1    2    0    0 -0.87855646933E+01  0.48564389130E+01  0.32380789265E+02  0.94082480912E+02  0.87762329933E+02 0.  0.
         11    1    3    3    0    0 -0.25899061816E+02  0.17973970516E+02 -0.20070646903E+02  0.37371859550E+02  0.00000000000E+00 0. -1.
        -11    1    3    3    0    0  0.17113497123E+02 -0.13117531603E+02  0.52451436169E+02  0.56710621362E+02  0.00000000000E+00 0.  1.
         22    1    1    2    0    0  0.87855646933E+01 -0.48564389130E+01  0.19358887312E+02  0.21806826084E+02  0.00000000000E+00 0.  1.
<mgrwt>
<rscale>  0 0.51287919E+02</rscale>
<asrwt>0</asrwt>
<pdfrwt beam="1">  1        2 0.49345870E-02 0.88334578E+02</pdfrwt>
<pdfrwt beam="2">  1       -2 0.12894537E-01 0.88334578E+02</pdfrwt>
<totfact> 0.59787109E+04</totfact>
</mgrwt>
</event>
<event>
 6    1  0.1723639E-002  0.9393683E+02  0.7546771E-02  0.1420638E+00
         -1   -1    0    0    0  501 -0.00000000000E+00  0.00000000000E+00  0.10239627369E+04  0.10239627369E+04  0.00000000000E+00 0.  1.
          1   -1    0    0  501    0  0.00000000000E+00 -0.00000000000E+00 -0.53885808200E+01  0.53885808200E+01  0.00000000000E+00 0. -1.
         23    2    1    2    0    0 -0.95540247723E+01  0.53463532366E+01  0.10124661401E+04  0.10168145422E+04  0.93296652516E+02 0.  0.
         13    1    3    3    0    0 -0.97735789346E-01 -0.39493013813E+02  0.26299733440E+03  0.26594605767E+03  0.00000000000E+00 0. -1.
        -13    1    3    3    0    0 -0.94562889829E+01  0.44839367049E+02  0.74946880573E+03  0.75086848449E+03  0.00000000000E+00 0.  1.
         22    1    1    2    0    0  0.95540247723E+01 -0.53463532366E+01  0.61080159393E+01  0.12536775542E+02  0.00000000000E+00 0.  1.
<mgrwt>
<rscale>  0 0.54886119E+02</rscale>
<asrwt>0</asrwt>
<pdfrwt beam="1">  1        1 0.82901325E-03 0.93936831E+02</pdfrwt>
<pdfrwt beam="2">  1       -1 0.15753257E+00 0.93936831E+02</pdfrwt>
<totfact> 0.64573323E+03</totfact>
</mgrwt>
</event>
<event>
 6    1  0.1723639E-002  0.9915670E+02  0.7546771E-02  0.1341045E+00
         -2   -1    0    0    0  501 -0.00000000000E+00  0.00000000000E+00  0.85580797850E+02  0.85580797850E+02  0.00000000000E+00 0.  1.
          2   -1    0    0  501    0  0.00000000000E+00 -0.00000000000E+00 -0.54822046877E+02  0.54822046877E+02  0.00000000000E+00 0. -1.
         23    2    1    2    0    0 -0.13828499786E+02 -0.31145149803E+02  0.36855646707E+02  0.10578464286E+03  0.93117153142E+02 0.  0.
         13    1    3    3    0    0  0.22930805688E+02  0.10526576594E+02 -0.15355237056E+02  0.29536654674E+02  0.00000000000E+00 0. -1.
        -13    1    3    3    0    0 -0.36759305473E+02 -0.41671726397E+02  0.52210883763E+02  0.76247988191E+02  0.00000000000E+00 0.  1.
         22    1    1    2    0    0  0.13828499786E+02  0.31145149803E+02 -0.60968957345E+01  0.34618201862E+02  0.00000000000E+00 0. -1.
<mgrwt>
<rscale>  0 0.75920170E+02</rscale>
<asrwt>0</asrwt>
<pdfrwt beam="1">  1        2 0.84341611E-02 0.99156704E+02</pdfrwt>
<pdfrwt beam="2">  1       -2 0.13166276E-01 0.99156704E+02</pdfrwt>
<totfact> 0.29824464E+04</totfact>
</mgrwt>
</event>
<event>
 6    1  0.1723639E-002  0.9711690E+02  0.7546771E-02  0.1337992E+00
         -4   -1    0    0    0  501 -0.00000000000E+00  0.00000000000E+00  0.13497998599E+03  0.13497998599E+03  0.00000000000E+00 0. -1.
          4   -1    0    0  501    0  0.00000000000E+00 -0.00000000000E+00 -0.34151306339E+02  0.34151306339E+02  0.00000000000E+00 0.  1.
         23    2    1    2    0    0  0.21844167972E+02 -0.31388226044E+02  0.78277653615E+02  0.12473605403E+03  0.89270956702E+02 0.  0.
         13    1    3    3    0    0 -0.48742012814E+01 -0.89505703261E+01  0.87943272890E+02  0.88531857508E+02  0.00000000000E+00 0. -1.
        -13    1    3    3    0    0  0.26718369253E+02 -0.22437655718E+02 -0.96656192749E+01  0.36204196520E+02  0.00000000000E+00 0.  1.
         22    1    1    2    0    0 -0.21844167972E+02  0.31388226044E+02  0.22551026038E+02  0.44395238302E+02  0.00000000000E+00 0. -1.
<mgrwt>
<rscale>  0 0.76931455E+02</rscale>
<asrwt>0</asrwt>
<pdfrwt beam="1">  1        4 0.52540472E-02 0.97116899E+02</pdfrwt>
<pdfrwt beam="2">  1       -4 0.20766151E-01 0.97116899E+02</pdfrwt>
<totfact> 0.69179201E+03</totfact>
</mgrwt>
</event>
<event>
 6    1  0.1723639E-002  0.9330215E+02  0.7546771E-02  0.1356767E+00
         -2   -1    0    0    0  501 -0.00000000000E+00  0.00000000000E+00  0.15038822425E+03  0.15038822425E+03  0.00000000000E+00 0.  1.
          2   -1    0    0  501    0  0.00000000000E+00 -0.00000000000E+00 -0.75376209166E+02  0.75376209166E+02  0.00000000000E+00 0. -1.
         23    2    1    2    0    0  0.91023344411E+01 -0.29910287356E+02  0.13147869532E+03  0.16122015590E+03  0.87907983489E+02 0.  0.
         13    1    3    3    0    0 -0.23624768447E+02 -0.22480611472E+02  0.84389156311E+01  0.33685647884E+02  0.00000000000E+00 0. -1.
        -13    1    3    3    0    0  0.32727102888E+02 -0.74296758843E+01  0.12303977969E+03  0.12753450801E+03  0.00000000000E+00 0.  1.
         22    1    1    2    0    0 -0.91023344411E+01  0.29910287356E+02 -0.56466680245E+02  0.64544277515E+02  0.00000000000E+00 0. -1.
<mgrwt>
<rscale>  0 0.70987536E+02</rscale>
<asrwt>0</asrwt>
<pdfrwt beam="1">  1        2 0.11596340E-01 0.93302151E+02</pdfrwt>
<pdfrwt beam="2">  1       -2 0.23136650E-01 0.93302151E+02</pdfrwt>
<totfact> 0.79331986E+03</totfact>
</mgrwt>
</event>
<event>
 6    1  0.1723639E-002  0.9151382E+02  0.7546771E-02  0.1373178E+00
         -3   -1    0    0    0  501 -0.00000000000E+00  0.00000000000E+00  0.23404996849E+03  0.23404996849E+03  0.00000000000E+00 0.  1.
          3   -1    0    0  501    0  0.00000000000E+00 -0.00000000000E+00 -0.32490818385E+02  0.32490818385E+02  0.00000000000E+00 0. -1.
         23    2    1    2    0    0 -0.98765881038E+01 -0.23181997544E+02  0.21801642921E+03  0.23644437449E+03  0.87976285558E+02 0.  0.
         11    1    3    3    0    0 -0.48826988336E+01  0.88982127966E+01 -0.48334339782E+01  0.11241931457E+02  0.00000000000E+00 0. -1.
        -11    1    3    3    0    0 -0.49938892702E+01 -0.32080210340E+02  0.22284986319E+03  0.22520244303E+03  0.00000000000E+00 0.  1.
         22    1    1    2    0    0  0.98765881038E+01  0.23181997544E+02 -0.16457279107E+02  0.30096412382E+02  0.00000000000E+00 0. -1.
<mgrwt>
<rscale>  0 0.66291465E+02</rscale>
<asrwt>0</asrwt>
<pdfrwt beam="1">  1        3 0.49985876E-02 0.91513818E+02</pdfrwt>
<pdfrwt beam="2">  1       -3 0.36007686E-01 0.91513818E+02</pdfrwt>
<totfact> 0.36535896E+03</totfact>
</mgrwt>
</event>
<event>
 6    1  0.1723639E-002  0.9352781E+02  0.7546771E-02  0.1375824E+00
         -2   -1    0    0    0  501 -0.00000000000E+00  0.00000000000E+00  0.73443522513E+03  0.73443522513E+03  0.00000000000E+00 0.  1.
          2   -1    0    0  501    0  0.00000000000E+00 -0.00000000000E+00 -0.47397838493E+01  0.47397838493E+01  0.00000000000E+00 0. -1.
         23    2    1    2    0    0 -0.13731897417E+02 -0.17950302821E+02  0.63308373274E+03  0.63995504826E+03  0.90756116902E+02 0.  0.
         13    1    3    3    0    0  0.11237987905E+02  0.10145749251E+02  0.17155760656E+02  0.22881187113E+02  0.00000000000E+00 0. -1.
        -13    1    3    3    0    0 -0.24969885322E+02 -0.28096052072E+02  0.61592797208E+03  0.61707386114E+03  0.00000000000E+00 0.  1.
         22    1    1    2    0    0  0.13731897417E+02  0.17950302821E+02  0.96611708543E+02  0.99219960722E+02  0.00000000000E+00 0. -1.
<mgrwt>
<rscale>  0 0.65574447E+02</rscale>
<asrwt>0</asrwt>
<pdfrwt beam="1">  1        2 0.72919810E-03 0.93527809E+02</pdfrwt>
<pdfrwt beam="2">  1       -2 0.11298994E+00 0.93527809E+02</pdfrwt>
<totfact> 0.12809464E+04</totfact>
</mgrwt>
</event>
<event>
 6    1  0.1723639E-002  0.9993064E+02  0.7546771E-02  0.1328868E+00
         -2   -1    0    0    0  501 -0.00000000000E+00  0.00000000000E+00  0.15334497657E+02  0.15334497657E+02  0.00000000000E+00 0.  1.
          2   -1    0    0  501    0  0.00000000000E+00 -0.00000000000E+00 -0.33356528614E+03  0.33356528614E+03  0.00000000000E+00 0. -1.
         23    2    1    2    0    0 -0.40800254448E+02 -0.55673035968E+01 -0.24963078026E+03  0.26888967968E+03  0.91052060679E+02 0.  0.
         13    1    3    3    0    0  0.22759599099E+01 -0.74845877569E+00  0.76328983854E+01  0.80000826128E+01  0.00000000000E+00 0.  1.
        -13    1    3    3    0    0 -0.43076214358E+02 -0.48188448211E+01 -0.25726367864E+03  0.26088959707E+03  0.00000000000E+00 0. -1.
         22    1    1    2    0    0  0.40800254448E+02  0.55673035968E+01 -0.68600008227E+02  0.80010104119E+02  0.00000000000E+00 0.  1.
<mgrwt>
<rscale>  0 0.80064725E+02</rscale>
<asrwt>0</asrwt>
<pdfrwt beam="1">  1        2 0.51317730E-01 0.99930643E+02</pdfrwt>
<pdfrwt beam="2">  1       -2 0.23591538E-02 0.99930643E+02</pdfrwt>
<totfact> 0.52275105E+04</totfact>
</mgrwt>
</event>
<event>
 6    1  0.1723639E-002  0.9187980E+02  0.7546771E-02  0.1425665E+00
          2   -1    0    0  501    0  0.00000000000E+00  0.00000000000E+00  0.24085368452E+02  0.24085368452E+02  0.00000000000E+00 0. -1.
         -2   -1    0    0    0  501 -0.00000000000E+00 -0.00000000000E+00 -0.33514196058E+03  0.33514196058E+03  0.00000000000E+00 0.  1.
         23    2    1    2    0    0  0.77367181138E+01  0.75832611778E+01 -0.32716115233E+03  0.33981806535E+03  0.91238891294E+02 0.  0.
         11    1    3    3    0    0  0.35126558595E+01  0.65399663768E+00 -0.33087435380E+03  0.33089364525E+03  0.00000000000E+00 0.  1.
        -11    1    3    3    0    0  0.42240622543E+01  0.69292645401E+01  0.37132014677E+01  0.89244201008E+01  0.00000000000E+00 0. -1.
         22    1    1    2    0    0 -0.77367181138E+01 -0.75832611778E+01  0.16104560206E+02  0.19409263682E+02  0.00000000000E+00 0. -1.
<mgrwt>
<rscale>  0 0.53840152E+02</rscale>
<asrwt>0</asrwt>
<pdfrwt beam="1">  1        2 0.37054417E-02 0.91879802E+02</pdfrwt>
<pdfrwt beam="2">  1       -2 0.51560297E-01 0.91879802E+02</pdfrwt>
<totfact> 0.76823522E+03</totfact>
</mgrwt>
</event>
<event>
 6    1  0.1723639E-002  0.9122692E+02  0.7546771E-02  0.1406385E+00
         -3   -1    0    0    0  501 -0.00000000000E+00  0.00000000000E+00  0.14087437785E+03  0.14087437785E+03  0.00000000000E+00 0.  1.
          3   -1    0    0  501    0  0.00000000000E+00 -0.00000000000E+00 -0.21391829645E+02  0.21391829645E+02  0.00000000000E+00 0. -1.
         23    2    1    2    0    0 -0.11386350720E+02  0.96320554794E+01  0.11480191825E+03  0.14663502800E+03  0.89999586263E+02 0.  0.
         11    1    3    3    0    0 -0.19114077802E+02  0.27842822309E+02  0.39163829434E+01  0.33998658499E+02  0.00000000000E+00 0. -1.
        -11    1    3    3    0    0  0.77277270818E+01 -0.18210766830E+02  0.11088553531E+03  0.11263636950E+03  0.00000000000E+00 0.  1.
         22    1    1    2    0    0  0.11386350720E+02 -0.96320554794E+01  0.46806299499E+01  0.15631179489E+02  0.00000000000E+00 0.  1.
<mgrwt>
<rscale>  0 0.58008325E+02</rscale>
<asrwt>0</asrwt>
<pdfrwt beam="1">  1        3 0.32910508E-02 0.91226920E+02</pdfrwt>
<pdfrwt beam="2">  1       -3 0.21672981E-01 0.91226920E+02</pdfrwt>
<totfact> 0.17565437E+04</totfact>
</mgrwt>
</event>
<event>
 6    1  0.1723639E-002  0.9137954E+02  0.7546771E-02  0.1423204E+00
          1   -1    0    0  501    0  0.00000000000E+00  0.00000000000E+00  0.82633336109E+02  0.82633336109E+02  0.00000000000E+00 0. -1.
         -1   -1    0    0    0  501 -0.00000000000E+00 -0.00000000000E+00 -0.34032829437E+02  0.34032829437E+02  0.00000000000E+00 0.  1.
         23    2    1    2    0    0 -0.86128257131E+01 -0.75208931394E+01  0.32643144737E+02  0.97035016820E+02  0.90661320256E+02 0.  0.
         11    1    3    3    0    0 -0.10803368896E+02 -0.29523243634E+02 -0.21810990934E+02  0.38262958846E+02  0.00000000000E+00 0.  1.
        -11    1    3    3    0    0  0.21905431829E+01  0.22002350494E+02  0.54454135671E+02  0.58772057973E+02  0.00000000000E+00 0. -1.
         22    1    1    2    0    0  0.86128257131E+01  0.75208931394E+01  0.15957361935E+02  0.19631148726E+02  0.00000000000E+00 0. -1.
<mgrwt>
<rscale>  0 0.54348765E+02</rscale>
<asrwt>0</asrwt>
<pdfrwt beam="1">  1        1 0.12712821E-01 0.91379536E+02</pdfrwt>
<pdfrwt beam="2">  1       -1 0.52358199E-02 0.91379536E+02</pdfrwt>
<totfact> 0.65172080E+04</totfact>
</mgrwt>
</event>
<event>
 6    1  0.1723639E-002  0.9089782E+02  0.7546771E-02  0.1426863E+00
         -2   -1    0    0    0  501 -0.00000000000E+00  0.00000000000E+00  0.77096141390E+02  0.77096141390E+02  0.00000000000E+00 0.  1.
          2   -1    0    0  501    0  0.00000000000E+00 -0.00000000000E+00 -0.33731320167E+02  0.33731320167E+02  0.00000000000E+00 0. -1.
         23    2    1    2    0    0  0.62027893854E+01  0.90672486038E+01  0.40234006427E+02  0.99404169795E+02  0.90231502847E+02 0.  0.
         11    1    3    3    0    0  0.37313959204E+02  0.31819422216E+02  0.91420465051E+01  0.49883706718E+02  0.00000000000E+00 0. -1.
        -11    1    3    3    0    0 -0.31111169819E+02 -0.22752173612E+02  0.31091959922E+02  0.49520463077E+02  0.00000000000E+00 0.  1.
         22    1    1    2    0    0 -0.62027893854E+01 -0.90672486038E+01  0.31308147960E+01  0.11423291762E+02  0.00000000000E+00 0.  1.
<mgrwt>
<rscale>  0 0.53594945E+02</rscale>
<asrwt>0</asrwt>
<pdfrwt beam="1">  1        2 0.51894339E-02 0.90897820E+02</pdfrwt>
<pdfrwt beam="2">  1       -2 0.11860945E-01 0.90897820E+02</pdfrwt>
<totfact> 0.64245302E+04</totfact>
</mgrwt>
</event>
<event>
 6    1  0.1723639E-002  0.9355934E+02  0.7546771E-02  0.1406666E+00
         -3   -1    0    0    0  501 -0.00000000000E+00  0.00000000000E+00  0.38307134975E+03  0.38307134975E+03  0.00000000000E+00 0.  1.
          3   -1    0    0  501    0  0.00000000000E+00 -0.00000000000E+00 -0.10687664137E+02  0.10687664137E+02  0.00000000000E+00 0. -1.
         23    2    1    2    0    0  0.10033298136E+02  0.94241804216E+01  0.36739030802E+03  0.37911606105E+03  0.92541164189E+02 0.  0.
         13    1    3    3    0    0 -0.50285346463E+01  0.15910753485E+02  0.65858526070E+01  0.17939110672E+02  0.00000000000E+00 0. -1.
        -13    1    3    3    0    0  0.15061832783E+02 -0.64865730633E+01  0.36080445542E+03  0.36117695038E+03  0.00000000000E+00 0.  1.
         22    1    1    2    0    0 -0.10033298136E+02 -0.94241804216E+01  0.49933775954E+01  0.14642952842E+02  0.00000000000E+00 0. -1.
<mgrwt>
<rscale>  0 0.57944392E+02</rscale>
<asrwt>0</asrwt>
<pdfrwt beam="1">  1        3 0.16442563E-02 0.93559336E+02</pdfrwt>
<pdfrwt beam="2">  1       -3 0.58934043E-01 0.93559336E+02</pdfrwt>
<totfact> 0.76926624E+03</totfact>
</mgrwt>
</event>
<event>
 6    1  0.1723639E-002  0.1031272E+03  0.7546771E-02  0.1377905E+00
         -2   -1    0    0    0  501 -0.00000000000E+00  0.00000000000E+00  0.27476167847E+03  0.27476167847E+03  0.00000000000E+00 0.  1.
          2   -1    0    0  501    0  0.00000000000E+00 -0.00000000000E+00 -0.34513314675E+02  0.34513314675E+02  0.00000000000E+00 0. -1.
         23    2    1    2    0    0  0.89719877516E+01  0.13600383890E+02  0.26230706461E+03  0.28185140316E+03  0.10183197099E+03 0.  0.
         13    1    3    3    0    0 -0.99482629569E+01 -0.31545882396E+02  0.19949072221E+03  0.20221438841E+03  0.00000000000E+00 0.  1.
        -13    1    3    3    0    0  0.18920250709E+02  0.45146266286E+02  0.62816342398E+02  0.79637014753E+02  0.00000000000E+00 0. -1.
         22    1    1    2    0    0 -0.89719877516E+01 -0.13600383890E+02 -0.22058700811E+02  0.27423589984E+02  0.00000000000E+00 0. -1.
<mgrwt>
<rscale>  0 0.65017641E+02</rscale>
<asrwt>0</asrwt>
<pdfrwt beam="1">  1        2 0.53097409E-02 0.10312719E+03</pdfrwt>
<pdfrwt beam="2">  1       -2 0.42271026E-01 0.10312719E+03</pdfrwt>
<totfact> 0.71461533E+03</totfact>
</mgrwt>
</event>
<event>
 6    1  0.1723639E-002  0.9474281E+02  0.7546771E-02  0.1371004E+00
          1   -1    0    0  501    0  0.00000000000E+00  0.00000000000E+00  0.17236637552E+03  0.17236637552E+03  0.00000000000E+00 0. -1.
         -1   -1    0    0    0  501 -0.00000000000E+00 -0.00000000000E+00 -0.24858007641E+02  0.24858007641E+02  0.00000000000E+00 0.  1.
         23    2    1    2    0    0 -0.13321918375E+01  0.23500468945E+02  0.74530969896E+02  0.12054487226E+03  0.91772294177E+02 0.  0.
         11    1    3    3    0    0 -0.45837603701E+02  0.67542410499E+01  0.44885227252E+02  0.64508831261E+02  0.00000000000E+00 0.  1.
        -11    1    3    3    0    0  0.44505411863E+02  0.16746227896E+02  0.29645742645E+02  0.56036040998E+02  0.00000000000E+00 0. -1.
         22    1    1    2    0    0  0.13321918375E+01 -0.23500468945E+02  0.72977397984E+02  0.76679510903E+02  0.00000000000E+00 0. -1.
<mgrwt>
<rscale>  0 0.66888740E+02</rscale>
<asrwt>0</asrwt>
<pdfrwt beam="1">  1        1 0.26517903E-01 0.94742814E+02</pdfrwt>
<pdfrwt beam="2">  1       -1 0.38243090E-02 0.94742814E+02</pdfrwt>
<totfact> 0.40898982E+04</totfact>
</mgrwt>
</event>
<event>
 6    1  0.1723639E-002  0.9523984E+02  0.7546771E-02  0.1370268E+00
         -4   -1    0    0    0  501 -0.00000000000E+00  0.00000000000E+00  0.15937613521E+03  0.15937613521E+03  0.00000000000E+00 0.  1.
          4   -1    0    0  501    0  0.00000000000E+00 -0.00000000000E+00 -0.22438217855E+02  0.22438217855E+02  0.00000000000E+00 0. -1.
         23    2    1    2    0    0  0.14655756210E+02  0.18313222091E+02  0.11818467810E+03  0.15178354762E+03  0.92306348080E+02 0.  0.
         13    1    3    3    0    0  0.30381591768E+02  0.39503884176E+02  0.11483608622E+03  0.12518356395E+03  0.00000000000E+00 0.  1.
        -13    1    3    3    0    0 -0.15725835558E+02 -0.21190662085E+02  0.33485918757E+01  0.26599983668E+02  0.00000000000E+00 0. -1.
         22    1    1    2    0    0 -0.14655756210E+02 -0.18313222091E+02  0.18753239260E+02  0.30030805454E+02  0.00000000000E+00 0. -1.
<mgrwt>
<rscale>  0 0.67092758E+02</rscale>
<asrwt>0</asrwt>
<pdfrwt beam="1">  1        4 0.34520336E-02 0.95239840E+02</pdfrwt>
<pdfrwt beam="2">  1       -4 0.24519405E-01 0.95239840E+02</pdfrwt>
<totfact> 0.98971747E+03</totfact>
</mgrwt>
</event>
<event>
 6    1  0.1723639E-002  0.1118741E+03  0.7546771E-02  0.1285966E+00
          4   -1    0    0  501    0  0.00000000000E+00  0.00000000000E+00  0.38590345895E+02  0.38590345895E+02  0.00000000000E+00 0. -1.
         -4   -1    0    0    0  501 -0.00000000000E+00 -0.00000000000E+00 -0.23453895338E+03  0.23453895338E+03  0.00000000000E+00 0.  1.
         23    2    1    2    0    0  0.20183314082E+02 -0.60889894469E+02 -0.70510462897E+02  0.13224042983E+03  0.91656208127E+02 0.  0.
         11    1    3    3    0    0 -0.85086293496E+01 -0.77469941858E+02 -0.56505543729E+02  0.96264558053E+02  0.00000000000E+00 0. -1.
        -11    1    3    3    0    0  0.28691943432E+02  0.16580047389E+02 -0.14004919167E+02  0.35975871778E+02  0.00000000000E+00 0.  1.
         22    1    1    2    0    0 -0.20183314082E+02  0.60889894469E+02 -0.12543814459E+03  0.14088886945E+03  0.00000000000E+00 0.  1.
<mgrwt>
<rscale>  0 0.97351482E+02</rscale>
<asrwt>0</asrwt>
<pdfrwt beam="1">  1        4 0.59369763E-02 0.11187406E+03</pdfrwt>
<pdfrwt beam="2">  1       -4 0.36082916E-01 0.11187406E+03</pdfrwt>
<totfact> 0.21130649E+03</totfact>
</mgrwt>
</event>
<event>
 6    1  0.1723639E-002  0.9140840E+02  0.7546771E-02  0.1430847E+00
         -1   -1    0    0    0  501 -0.00000000000E+00  0.00000000000E+00  0.43147649533E+03  0.43147649533E+03  0.00000000000E+00 0.  1.
          1   -1    0    0  501    0  0.00000000000E+00 -0.00000000000E+00 -0.62280253766E+01  0.62280253766E+01  0.00000000000E+00 0. -1.
         23    2    1    2    0    0  0.99121500618E+01 -0.22688655010E+01  0.40308844448E+03  0.41332286370E+03  0.90841054114E+02 0.  0.
         11    1    3    3    0    0 -0.26813422710E+02  0.21992483676E+02  0.28841090118E+03  0.29048834210E+03  0.00000000000E+00 0. -1.
        -11    1    3    3    0    0  0.36725572771E+02 -0.24261349177E+02  0.11467754330E+03  0.12283452160E+03  0.00000000000E+00 0.  1.
         22    1    1    2    0    0 -0.99121500618E+01  0.22688655010E+01  0.22160025471E+02  0.24381657007E+02  0.00000000000E+00 0. -1.
<mgrwt>
<rscale>  0 0.52790265E+02</rscale>
<asrwt>0</asrwt>
<pdfrwt beam="1">  1        1 0.95815809E-03 0.91408400E+02</pdfrwt>
<pdfrwt beam="2">  1       -1 0.66380976E-01 0.91408400E+02</pdfrwt>
<totfact> 0.35885490E+04</totfact>
</mgrwt>
</event>
<event>
 6    1  0.1723639E-002  0.9272619E+02  0.7546771E-02  0.1382119E+00
          2   -1    0    0  501    0  0.00000000000E+00  0.00000000000E+00  0.35299156975E+03  0.35299156975E+03  0.00000000000E+00 0. -1.
         -2   -1    0    0    0  501 -0.00000000000E+00 -0.00000000000E+00 -0.99999410980E+01  0.99999410980E+01  0.00000000000E+00 0.  1.
         23    2    1    2    0    0  0.10327453958E+02  0.18199107422E+02  0.22839952540E+03  0.24650454186E+03  0.90334279975E+02 0.  0.
         11    1    3    3    0    0 -0.21594857953E+01  0.93534314790E+01 -0.61862737987E+01  0.11420159493E+02  0.00000000000E+00 0.  1.
        -11    1    3    3    0    0  0.12486939754E+02  0.88456759429E+01  0.23458579920E+03  0.23508438237E+03  0.00000000000E+00 0. -1.
         22    1    1    2    0    0 -0.10327453958E+02 -0.18199107422E+02  0.11459210325E+03  0.11648696898E+03  0.00000000000E+00 0. -1.
<mgrwt>
<rscale>  0 0.63910054E+02</rscale>
<asrwt>0</asrwt>
<pdfrwt beam="1">  1        2 0.54306386E-01 0.92726188E+02</pdfrwt>
<pdfrwt beam="2">  1       -2 0.15384527E-02 0.92726188E+02</pdfrwt>
<totfact> 0.90144039E+04</totfact>
</mgrwt>
</event>
<event>
 6    1  0.1723639E-002  0.9205152E+02  0.7546771E-02  0.1425755E+00
         -4   -1    0    0    0  501 -0.00000000000E+00  0.00000000000E+00  0.71883354288E+03  0.71883354288E+03  0.00000000000E+00 0.  1.
          4   -1    0    0  501    0  0.00000000000E+00 -0.00000000000E+00 -0.43904543863E+01  0.43904543863E+01  0.00000000000E+00 0. -1.
         23    2    1    2    0    0 -0.28805474505E+01 -0.10365321348E+02  0.69441325285E+03  0.70048786399E+03  0.91420700216E+02 0.  0.
         11    1    3    3    0    0  0.34324529053E+02  0.12684721450E+02  0.49389413902E+03  0.49524791368E+03  0.00000000000E+00 0.  1.
        -11    1    3    3    0    0 -0.37205076503E+02 -0.23050042798E+02  0.20051911383E+03  0.20523995031E+03  0.00000000000E+00 0. -1.
         22    1    1    2    0    0  0.28805474505E+01  0.10365321348E+02  0.20029835640E+02  0.22736133269E+02  0.00000000000E+00 0. -1.
<mgrwt>
<rscale>  0 0.53821705E+02</rscale>
<asrwt>0</asrwt>
<pdfrwt beam="1">  1        4 0.67545509E-03 0.92051517E+02</pdfrwt>
<pdfrwt beam="2">  1       -4 0.11058968E+00 0.92051517E+02</pdfrwt>
<totfact> 0.53050705E+03</totfact>
</mgrwt>
</event>
<event>
 6    1  0.1723639E-002  0.9165579E+02  0.7546771E-02  0.1416335E+00
         -4   -1    0    0    0  501 -0.00000000000E+00  0.00000000000E+00  0.23807213575E+03  0.23807213575E+03  0.00000000000E+00 0.  1.
          4   -1    0    0  501    0  0.00000000000E+00 -0.00000000000E+00 -0.11836796697E+02  0.11836796697E+02  0.00000000000E+00 0. -1.
         23    2    1    2    0    0  0.34021652512E+01 -0.12126163224E+02  0.21161754440E+03  0.23061389465E+03  0.90786368726E+02 0.  0.
         11    1    3    3    0    0  0.73747604816E+01 -0.39808312659E+02  0.40640921172E+02  0.57365262334E+02  0.00000000000E+00 0. -1.
        -11    1    3    3    0    0 -0.39725952303E+01  0.27682149435E+02  0.17097662323E+03  0.17324863232E+03  0.00000000000E+00 0.  1.
         22    1    1    2    0    0 -0.34021652512E+01  0.12126163224E+02  0.14617794653E+02  0.19295037794E+02  0.00000000000E+00 0. -1.
<mgrwt>
<rscale>  0 0.55803851E+02</rscale>
<asrwt>0</asrwt>
<pdfrwt beam="1">  1        4 0.18210458E-02 0.91655787E+02</pdfrwt>
<pdfrwt beam="2">  1       -4 0.36626479E-01 0.91655787E+02</pdfrwt>
<totfact> 0.12365692E+04</totfact>
</mgrwt>
</event>
<event>
 6    1  0.1723639E-002  0.9206277E+02  0.7546771E-02  0.1413357E+00
         -2   -1    0    0    0  501 -0.00000000000E+00  0.00000000000E+00  0.14410289457E+02  0.14410289457E+02  0.00000000000E+00 0. -1.
          2   -1    0    0  501    0  0.00000000000E+00 -0.00000000000E+00 -0.19155511823E+03  0.19155511823E+03  0.00000000000E+00 0.  1.
         23    2    1    2    0    0  0.64491167669E+01  0.11304884972E+02 -0.15541766203E+03  0.18063832128E+03  0.91138147401E+02 0.  0.
         13    1    3    3    0    0  0.24521424394E+02 -0.26024640229E+02 -0.12272538637E+03  0.12782841082E+03  0.00000000000E+00 0.  1.
        -13    1    3    3    0    0 -0.18072307627E+02  0.37329525201E+02 -0.32692275663E+02  0.52809910459E+02  0.00000000000E+00 0. -1.
         22    1    1    2    0    0 -0.64491167669E+01 -0.11304884972E+02 -0.21727166746E+02  0.25327086412E+02  0.00000000000E+00 0. -1.
<mgrwt>
<rscale>  0 0.56451370E+02</rscale>
<asrwt>0</asrwt>
<pdfrwt beam="1">  1        2 0.29470016E-01 0.92062769E+02</pdfrwt>
<pdfrwt beam="2">  1       -2 0.22169678E-02 0.92062769E+02</pdfrwt>
<totfact> 0.10149174E+05</totfact>
</mgrwt>
</event>
<event>
 6    1  0.1723639E-002  0.9522654E+02  0.7546771E-02  0.1357554E+00
          2   -1    0    0  501    0  0.00000000000E+00  0.00000000000E+00  0.57669644000E+02  0.57669644000E+02  0.00000000000E+00 0. -1.
         -2   -1    0    0    0  501 -0.00000000000E+00 -0.00000000000E+00 -0.92945208257E+02  0.92945208257E+02  0.00000000000E+00 0.  1.
         23    2    1    2    0    0  0.72330055102E+01 -0.28103330783E+02 -0.59948006703E+02  0.11252491939E+03  0.90697190725E+02 0.  0.
         13    1    3    3    0    0  0.14879884628E+02 -0.59879508805E+02 -0.46139578021E+02  0.77044319721E+02  0.00000000000E+00 0.  1.
        -13    1    3    3    0    0 -0.76468791178E+01  0.31776178022E+02 -0.13808428682E+02  0.35480599665E+02  0.00000000000E+00 0. -1.
         22    1    1    2    0    0 -0.72330055102E+01  0.28103330783E+02  0.24672442447E+02  0.38089932871E+02  0.00000000000E+00 0. -1.
<mgrwt>
<rscale>  0 0.70752182E+02</rscale>
<asrwt>0</asrwt>
<pdfrwt beam="1">  1        2 0.88722530E-02 0.95226540E+02</pdfrwt>
<pdfrwt beam="2">  1       -2 0.14299263E-01 0.95226540E+02</pdfrwt>
<totfact> 0.24422265E+04</totfact>
</mgrwt>
</event>
<event>
 6    1  0.1723639E-002  0.1346495E+03  0.7546771E-02  0.1235173E+00
         -2   -1    0    0    0  501 -0.00000000000E+00  0.00000000000E+00  0.18228946244E+03  0.18228946244E+03  0.00000000000E+00 0.  1.
          2   -1    0    0  501    0  0.00000000000E+00 -0.00000000000E+00 -0.75478464811E+02  0.75478464811E+02  0.00000000000E+00 0. -1.
         23    2    1    2    0    0  0.51131799176E+02  0.85698919114E+02  0.56720528716E+02  0.14610853132E+03  0.90397560376E+02 0.  0.
         13    1    3    3    0    0  0.37298661063E+02  0.80457167176E+02  0.79398561034E+02  0.11903225345E+03  0.00000000000E+00 0.  1.
        -13    1    3    3    0    0  0.13833138113E+02  0.52417519378E+01 -0.22678032318E+02  0.27076277869E+02  0.00000000000E+00 0. -1.
         22    1    1    2    0    0 -0.51131799176E+02 -0.85698919114E+02  0.50090468913E+02  0.11165939593E+03  0.00000000000E+00 0. -1.
<mgrwt>
<rscale>  0 0.12493359E+03</rscale>
<asrwt>0</asrwt>
<pdfrwt beam="1">  1        2 0.11612072E-01 0.13464949E+03</pdfrwt>
<pdfrwt beam="2">  1       -2 0.28044533E-01 0.13464949E+03</pdfrwt>
<totfact> 0.58337939E+03</totfact>
</mgrwt>
</event>
<event>
 6    1  0.1723639E-002  0.9670571E+02  0.7546771E-02  0.1372157E+00
          2   -1    0    0  501    0  0.00000000000E+00  0.00000000000E+00  0.12336085917E+03  0.12336085917E+03  0.00000000000E+00 0. -1.
         -2   -1    0    0    0  501 -0.00000000000E+00 -0.00000000000E+00 -0.28510947536E+02  0.28510947536E+02  0.00000000000E+00 0.  1.
         23    2    1    2    0    0  0.10722250469E+02 -0.18884690244E+02  0.80679428155E+02  0.12594111480E+03  0.94235853520E+02 0.  0.
         11    1    3    3    0    0  0.22364880942E+02 -0.33213840073E+01 -0.15761171768E+02  0.27561459083E+02  0.00000000000E+00 0.  1.
        -11    1    3    3    0    0 -0.11642630473E+02 -0.15563306237E+02  0.96440599923E+02  0.98379655716E+02  0.00000000000E+00 0. -1.
         22    1    1    2    0    0 -0.10722250469E+02  0.18884690244E+02  0.14170483480E+02  0.25930691907E+02  0.00000000000E+00 0. -1.
<mgrwt>
<rscale>  0 0.66571080E+02</rscale>
<asrwt>0</asrwt>
<pdfrwt beam="1">  1        2 0.18978593E-01 0.96705710E+02</pdfrwt>
<pdfrwt beam="2">  1       -2 0.43862997E-02 0.96705710E+02</pdfrwt>
<totfact> 0.61253361E+04</totfact>
</mgrwt>
</event>
<event>
 6    1  0.1723639E-002  0.9187334E+02  0.7546771E-02  0.1413643E+00
          2   -1    0    0  501    0  0.00000000000E+00  0.00000000000E+00  0.32415032599E+03  0.32415032599E+03  0.00000000000E+00 0. -1.
         -2   -1    0    0    0  501 -0.00000000000E+00 -0.00000000000E+00 -0.89486699841E+01  0.89486699841E+01  0.00000000000E+00 0.  1.
         23    2    1    2    0    0  0.11512232743E+02 -0.61198003199E+01  0.24420828384E+03  0.26091837288E+03  0.90943542661E+02 0.  0.
         13    1    3    3    0    0 -0.26352891334E+02  0.52764744801E+00  0.20244846118E+03  0.20415712755E+03  0.00000000000E+00 0. -1.
        -13    1    3    3    0    0  0.37865124077E+02 -0.66474477679E+01  0.41759822653E+02  0.56761245328E+02  0.00000000000E+00 0.  1.
         22    1    1    2    0    0 -0.11512232743E+02  0.61198003199E+01  0.70993372166E+02  0.72180623093E+02  0.00000000000E+00 0.  1.
<mgrwt>
<rscale>  0 0.56388816E+02</rscale>
<asrwt>0</asrwt>
<pdfrwt beam="1">  1        2 0.49869272E-01 0.91873344E+02</pdfrwt>
<pdfrwt beam="2">  1       -2 0.13767187E-02 0.91873344E+02</pdfrwt>
<totfact> 0.11531857E+05</totfact>
</mgrwt>
</event>
<event>
 6    1  0.1723639E-002  0.7784536E+02  0.7546771E-02  0.1403952E+00
         -4   -1    0    0    0  501 -0.00000000000E+00  0.00000000000E+00  0.10295187524E+03  0.10295187524E+03  0.00000000000E+00 0.  1.
          4   -1    0    0  501    0  0.00000000000E+00 -0.00000000000E+00 -0.34643482979E+02  0.34643482979E+02  0.00000000000E+00 0. -1.
         23    2    1    2    0    0  0.21257284919E+02 -0.13040609507E+02  0.78592543536E+02  0.11061956489E+03  0.73742596770E+02 0.  0.
         13    1    3    3    0    0  0.63166807008E+01  0.13811790536E+02 -0.90956214841E+01  0.17703003787E+02  0.00000000000E+00 0. -1.
        -13    1    3    3    0    0  0.14940604218E+02 -0.26852400043E+02  0.87688165020E+02  0.92916561103E+02  0.00000000000E+00 0.  1.
         22    1    1    2    0    0 -0.21257284919E+02  0.13040609507E+02 -0.10284151274E+02  0.26975793331E+02  0.00000000000E+00 0. -1.
<mgrwt>
<rscale>  0 0.58565548E+02</rscale>
<asrwt>0</asrwt>
<pdfrwt beam="1">  1        4 0.53297667E-02 0.77845361E+02</pdfrwt>
<pdfrwt beam="2">  1       -4 0.15838750E-01 0.77845361E+02</pdfrwt>
<totfact> 0.10197863E+04</totfact>
</mgrwt>
</event>
<event>
 6    1  0.1723639E-002  0.9229281E+02  0.7546771E-02  0.1382374E+00
          2   -1    0    0  501    0  0.00000000000E+00  0.00000000000E+00  0.14984995049E+03  0.14984995049E+03  0.00000000000E+00 0. -1.
         -2   -1    0    0    0  501 -0.00000000000E+00 -0.00000000000E+00 -0.21503296415E+02  0.21503296415E+02  0.00000000000E+00 0.  1.
         23    2    1    2    0    0  0.18800396089E+02 -0.96525155794E+01  0.10150685456E+03  0.13719185367E+03  0.89840621319E+02 0.  0.
         13    1    3    3    0    0  0.27701031251E+02 -0.31716238514E+02  0.10501489113E+03  0.11314324671E+03  0.00000000000E+00 0. -1.
        -13    1    3    3    0    0 -0.89006351616E+01  0.22063722934E+02 -0.35080365632E+01  0.24048606956E+02  0.00000000000E+00 0.  1.
         22    1    1    2    0    0 -0.18800396089E+02  0.96525155794E+01  0.26839799509E+02  0.34161393236E+02  0.00000000000E+00 0. -1.
<mgrwt>
<rscale>  0 0.63843826E+02</rscale>
<asrwt>0</asrwt>
<pdfrwt beam="1">  1        2 0.23053838E-01 0.92292812E+02</pdfrwt>
<pdfrwt beam="2">  1       -2 0.33081995E-02 0.92292812E+02</pdfrwt>
<totfact> 0.74175998E+04</totfact>
</mgrwt>
</event>
<event>
 6    1  0.1723639E-002  0.9224563E+02  0.7546771E-02  0.1409389E+00
          3   -1    0    0  501    0  0.00000000000E+00  0.00000000000E+00  0.19225697475E+02  0.19225697475E+02  0.00000000000E+00 0. -1.
         -3   -1    0    0    0  501 -0.00000000000E+00 -0.00000000000E+00 -0.16113604572E+03  0.16113604572E+03  0.00000000000E+00 0.  1.
         23    2    1    2    0    0 -0.36638515386E+01  0.13265944150E+02 -0.13811155830E+03  0.16608449250E+03  0.91213195486E+02 0.  0.
         11    1    3    3    0    0  0.19648468700E+02  0.22655835365E+02 -0.47349144442E+01  0.30360642502E+02  0.00000000000E+00 0. -1.
        -11    1    3    3    0    0 -0.23312320239E+02 -0.93898912144E+01 -0.13337664386E+03  0.13572385000E+03  0.00000000000E+00 0.  1.
         22    1    1    2    0    0  0.36638515386E+01 -0.13265944150E+02 -0.37987899415E+01  0.14277250692E+02  0.00000000000E+00 0. -1.
<mgrwt>
<rscale>  0 0.57330331E+02</rscale>
<asrwt>0</asrwt>
<pdfrwt beam="1">  1        3 0.29577995E-02 0.92245629E+02</pdfrwt>
<pdfrwt beam="2">  1       -3 0.24790162E-01 0.92245629E+02</pdfrwt>
<totfact> 0.16347694E+04</totfact>
</mgrwt>
</event>
<event>
 6    1  0.1723639E-002  0.9793688E+02  0.7546771E-02  0.1346530E+00
          2   -1    0    0  501    0  0.00000000000E+00  0.00000000000E+00  0.31029319967E+03  0.31029319967E+03  0.00000000000E+00 0. -1.
         -2   -1    0    0    0  501 -0.00000000000E+00 -0.00000000000E+00 -0.19294592720E+02  0.19294592720E+02  0.00000000000E+00 0.  1.
         23    2    1    2    0    0  0.15089069076E+02  0.28420771462E+02  0.11672840487E+03  0.15237175590E+03  0.92499790467E+02 0.  0.
         11    1    3    3    0    0  0.31917775268E+02  0.29748584460E+02  0.12583947580E+03  0.13318894971E+03  0.00000000000E+00 0. -1.
        -11    1    3    3    0    0 -0.16828706192E+02 -0.13278129981E+01 -0.91110709369E+01  0.19182806183E+02  0.00000000000E+00 0.  1.
         22    1    1    2    0    0 -0.15089069076E+02 -0.28420771462E+02  0.17427020208E+03  0.17721603649E+03  0.00000000000E+00 0. -1.
<mgrwt>
<rscale>  0 0.74147970E+02</rscale>
<asrwt>0</asrwt>
<pdfrwt beam="1">  1        2 0.47737412E-01 0.97936875E+02</pdfrwt>
<pdfrwt beam="2">  1       -2 0.29683991E-02 0.97936875E+02</pdfrwt>
<totfact> 0.40302643E+04</totfact>
</mgrwt>
</event>
<event>
 6    1  0.1723639E-002  0.9192995E+02  0.7546771E-02  0.1410227E+00
          2   -1    0    0  501    0  0.00000000000E+00  0.00000000000E+00  0.58039310602E+02  0.58039310602E+02  0.00000000000E+00 0.  1.
         -2   -1    0    0    0  501 -0.00000000000E+00 -0.00000000000E+00 -0.57298601618E+02  0.57298601618E+02  0.00000000000E+00 0. -1.
         23    2    1    2    0    0 -0.26691565958E+01  0.13462142662E+02 -0.16398407903E+02  0.93381067965E+02  0.90899738122E+02 0.  0.
         11    1    3    3    0    0  0.17233580615E+02  0.16812254780E+02 -0.49252977353E+02  0.54822477049E+02  0.00000000000E+00 0. -1.
        -11    1    3    3    0    0 -0.19902737211E+02 -0.33501121186E+01  0.32854569451E+02  0.38558590916E+02  0.00000000000E+00 0.  1.
         22    1    1    2    0    0  0.26691565958E+01 -0.13462142662E+02  0.17139116887E+02  0.21956844255E+02  0.00000000000E+00 0.  1.
<mgrwt>
<rscale>  0 0.57143198E+02</rscale>
<asrwt>0</asrwt>
<pdfrwt beam="1">  1        2 0.89291248E-02 0.91929952E+02</pdfrwt>
<pdfrwt beam="2">  1       -2 0.88151694E-02 0.91929952E+02</pdfrwt>
<totfact> 0.51634675E+04</totfact>
</mgrwt>
</event>
<event>
 6    1  0.1723639E-002  0.8907368E+02  0.7546771E-02  0.1390924E+00
         -2   -1    0    0    0  501 -0.00000000000E+00  0.00000000000E+00  0.89554507757E+01  0.89554507757E+01  0.00000000000E+00 0.  1.
          2   -1    0    0  501    0  0.00000000000E+00 -0.00000000000E+00 -0.34011063490E+03  0.34011063490E+03  0.00000000000E+00 0. -1.
         23    2    1    2    0    0 -0.20428281409E+02 -0.14078357312E+01 -0.28442347380E+03  0.29804501716E+03  0.86688079470E+02 0.  0.
         13    1    3    3    0    0 -0.51547634163E+02  0.26075358510E+01 -0.22502374050E+03  0.23086715146E+03  0.00000000000E+00 0. -1.
        -13    1    3    3    0    0  0.31119352754E+02 -0.40153715822E+01 -0.59399733293E+02  0.67177865700E+02  0.00000000000E+00 0.  1.
         22    1    1    2    0    0  0.20428281409E+02  0.14078357312E+01 -0.46731710329E+02  0.51021068522E+02  0.00000000000E+00 0. -1.
<mgrwt>
<rscale>  0 0.61677564E+02</rscale>
<asrwt>0</asrwt>
<pdfrwt beam="1">  1        2 0.52324712E-01 0.89073676E+02</pdfrwt>
<pdfrwt beam="2">  1       -2 0.13777617E-02 0.89073676E+02</pdfrwt>
<totfact> 0.10903083E+05</totfact>
</mgrwt>
</event>
<event>
 6    1  0.1723639E-002  0.1018941E+03  0.7546771E-02  0.1324114E+00
          2   -1    0    0  501    0  0.00000000000E+00  0.00000000000E+00  0.72221044766E+02  0.72221044766E+02  0.00000000000E+00 0. -1.
         -2   -1    0    0    0  501 -0.00000000000E+00 -0.00000000000E+00 -0.87708748975E+02  0.87708748975E+02  0.00000000000E+00 0.  1.
         23    2    1    2    0    0 -0.66785481137E+01 -0.41720104731E+02 -0.41822662917E+02  0.11014324743E+03  0.92721247171E+02 0.  0.
         11    1    3    3    0    0  0.15579257119E+02 -0.18080480177E+02 -0.65660242870E+02  0.69863327359E+02  0.00000000000E+00 0.  1.
        -11    1    3    3    0    0 -0.22257805233E+02 -0.23639624553E+02  0.23837579953E+02  0.40279920070E+02  0.00000000000E+00 0. -1.
         22    1    1    2    0    0  0.66785481137E+01  0.41720104731E+02  0.26334958708E+02  0.49786546313E+02  0.00000000000E+00 0. -1.
<mgrwt>
<rscale>  0 0.81765784E+02</rscale>
<asrwt>0</asrwt>
<pdfrwt beam="1">  1        2 0.11110930E-01 0.10189406E+03</pdfrwt>
<pdfrwt beam="2">  1       -2 0.13493654E-01 0.10189406E+03</pdfrwt>
<totfact> 0.20551872E+04</totfact>
</mgrwt>
</event>
<event>
 6    1  0.1723639E-002  0.9323246E+02  0.7546771E-02  0.1404194E+00
         -2   -1    0    0    0  501 -0.00000000000E+00  0.00000000000E+00  0.13136790133E+02  0.13136790133E+02  0.00000000000E+00 0.  1.
          2   -1    0    0  501    0  0.00000000000E+00 -0.00000000000E+00 -0.22475504116E+03  0.22475504116E+03  0.00000000000E+00 0. -1.
         23    2    1    2    0    0  0.32676050893E+01  0.14087471148E+02 -0.17082495631E+03  0.19461103902E+03  0.92104053775E+02 0.  0.
         11    1    3    3    0    0 -0.27606206171E+02 -0.83078000860E+01 -0.11925938949E+02  0.31198560564E+02  0.00000000000E+00 0.  1.
        -11    1    3    3    0    0  0.30873811260E+02  0.22395271234E+02 -0.15889901736E+03  0.16341247845E+03  0.00000000000E+00 0. -1.
         22    1    1    2    0    0 -0.32676050893E+01 -0.14087471148E+02 -0.40793294720E+02  0.43280792281E+02  0.00000000000E+00 0. -1.
<mgrwt>
<rscale>  0 0.58509777E+02</rscale>
<asrwt>0</asrwt>
<pdfrwt beam="1">  1        2 0.34577696E-01 0.93232456E+02</pdfrwt>
<pdfrwt beam="2">  1       -2 0.20210448E-02 0.93232456E+02</pdfrwt>
<totfact> 0.97990090E+04</totfact>
</mgrwt>
</event>
<event>
 6    1  0.1723639E-002  0.9221469E+02  0.7546771E-02  0.1429252E+00
          2   -1    0    0  501    0  0.00000000000E+00  0.00000000000E+00  0.32655080769E+01  0.32655080769E+01  0.00000000000E+00 0. -1.
         -2   -1    0    0    0  501 -0.00000000000E+00 -0.00000000000E+00 -0.84127011634E+03  0.84127011634E+03  0.00000000000E+00 0.  1.
         23    2    1    2    0    0  0.91768106216E+01 -0.43290356412E+01 -0.79596498017E+03  0.80128883572E+03  0.91654755373E+02 0.  0.
         11    1    3    3    0    0 -0.23702466922E+02  0.31096178928E+02 -0.23348790975E+03  0.23673906159E+03  0.00000000000E+00 0. -1.
        -11    1    3    3    0    0  0.32879277544E+02 -0.35425214569E+02 -0.56247707042E+03  0.56454977413E+03  0.00000000000E+00 0.  1.
         22    1    1    2    0    0 -0.91768106216E+01  0.43290356412E+01 -0.42039628089E+02  0.43246788698E+02  0.00000000000E+00 0. -1.
<mgrwt>
<rscale>  0 0.53110537E+02</rscale>
<asrwt>0</asrwt>
<pdfrwt beam="1">  1        2 0.50238616E-03 0.92214687E+02</pdfrwt>
<pdfrwt beam="2">  1       -2 0.12942609E+00 0.92214687E+02</pdfrwt>
<totfact> 0.15434184E+04</totfact>
</mgrwt>
</event>
<event>
 6    1  0.1723639E-002  0.9163673E+02  0.7546771E-02  0.1411051E+00
         -2   -1    0    0    0  501 -0.00000000000E+00  0.00000000000E+00  0.45158389089E+03  0.45158389089E+03  0.00000000000E+00 0.  1.
          2   -1    0    0  501    0  0.00000000000E+00 -0.00000000000E+00 -0.96596984558E+01  0.96596984558E+01  0.00000000000E+00 0. -1.
         23    2    1    2    0    0  0.83092712897E+01  0.10866669787E+02  0.43730836954E+03  0.44680633467E+03  0.90609944977E+02 0.  0.
         11    1    3    3    0    0 -0.11015686962E+02  0.29524877788E+02  0.39770943190E+03  0.39895595745E+03  0.00000000000E+00 0.  1.
        -11    1    3    3    0    0  0.19324958252E+02 -0.18658208001E+02  0.39598937646E+02  0.47850377218E+02  0.00000000000E+00 0. -1.
         22    1    1    2    0    0 -0.83092712897E+01 -0.10866669787E+02  0.46158228946E+01  0.14437254677E+02  0.00000000000E+00 0. -1.
<mgrwt>
<rscale>  0 0.56959961E+02</rscale>
<asrwt>0</asrwt>
<pdfrwt beam="1">  1        2 0.14861078E-02 0.91636732E+02</pdfrwt>
<pdfrwt beam="2">  1       -2 0.69474428E-01 0.91636732E+02</pdfrwt>
<totfact> 0.14226427E+04</totfact>
</mgrwt>
</event>
<event>
 6    1  0.1723639E-002  0.9185861E+02  0.7546771E-02  0.1389535E+00
          2   -1    0    0  501    0  0.00000000000E+00  0.00000000000E+00  0.16094827843E+02  0.16094827843E+02  0.00000000000E+00 0.  1.
         -2   -1    0    0    0  501 -0.00000000000E+00 -0.00000000000E+00 -0.43033484725E+03  0.43033484725E+03  0.00000000000E+00 0. -1.
         23    2    1    2    0    0  0.19086411170E+02  0.44206868440E+00 -0.41712647320E+03  0.42712117614E+03  0.89852757029E+02 0.  0.
         11    1    3    3    0    0  0.27660906693E+02 -0.19713867721E+02 -0.39327023217E+03  0.39473438899E+03  0.00000000000E+00 0. -1.
        -11    1    3    3    0    0 -0.85744955227E+01  0.20155936406E+02 -0.23856241035E+02  0.32386787154E+02  0.00000000000E+00 0.  1.
         22    1    1    2    0    0 -0.19086411170E+02 -0.44206868440E+00  0.28864538000E+01  0.19308498948E+02  0.00000000000E+00 0.  1.
<mgrwt>
<rscale>  0 0.62022617E+02</rscale>
<asrwt>0</asrwt>
<pdfrwt beam="1">  1        2 0.24761273E-02 0.91858611E+02</pdfrwt>
<pdfrwt beam="2">  1       -2 0.66205363E-01 0.91858611E+02</pdfrwt>
<totfact> 0.79013557E+03</totfact>
</mgrwt>
</event>
<event>
 6    1  0.1723639E-002  0.9362673E+02  0.7546771E-02  0.1407416E+00
          2   -1    0    0  501    0  0.00000000000E+00  0.00000000000E+00  0.34358058305E+03  0.34358058305E+03  0.00000000000E+00 0. -1.
         -2   -1    0    0    0  501 -0.00000000000E+00 -0.00000000000E+00 -0.83682852988E+01  0.83682852988E+01  0.00000000000E+00 0.  1.
         23    2    1    2    0    0  0.11011885113E+01  0.13530373757E+02  0.29585255279E+03  0.31031386920E+03  0.92637361792E+02 0.  0.
         13    1    3    3    0    0  0.18567798241E+02 -0.26027721492E+02  0.41894783232E+02  0.52700837561E+02  0.00000000000E+00 0.  1.
        -13    1    3    3    0    0 -0.17466609730E+02  0.39558095248E+02  0.25395776956E+03  0.25761303164E+03  0.00000000000E+00 0. -1.
         22    1    1    2    0    0 -0.11011885113E+01 -0.13530373757E+02  0.39359744969E+02  0.41634999149E+02  0.00000000000E+00 0. -1.
<mgrwt>
<rscale>  0 0.57774439E+02</rscale>
<asrwt>0</asrwt>
<pdfrwt beam="1">  1        2 0.52858540E-01 0.93626729E+02</pdfrwt>
<pdfrwt beam="2">  1       -2 0.12874288E-02 0.93626729E+02</pdfrwt>
<totfact> 0.11971286E+05</totfact>
</mgrwt>
</event>
<event>
 6    1  0.1723639E-002  0.9231861E+02  0.7546771E-02  0.1416502E+00
         -4   -1    0    0    0  501 -0.00000000000E+00  0.00000000000E+00  0.71898810609E+02  0.71898810609E+02  0.00000000000E+00 0.  1.
          4   -1    0    0  501    0  0.00000000000E+00 -0.00000000000E+00 -0.56125045740E+02  0.56125045740E+02  0.00000000000E+00 0. -1.
         23    2    1    2    0    0 -0.95385502528E+01  0.77551854816E+01  0.40190000855E+02  0.10068744432E+03  0.91496439453E+02 0.  0.
         11    1    3    3    0    0  0.21330448573E+02  0.26276863345E+02  0.52652591266E+02  0.62591987911E+02  0.00000000000E+00 0.  1.
        -11    1    3    3    0    0 -0.30868998826E+02 -0.18521677864E+02 -0.12462590411E+02  0.38095456411E+02  0.00000000000E+00 0. -1.
         22    1    1    2    0    0  0.95385502528E+01 -0.77551854816E+01 -0.24416235986E+02  0.27336412027E+02  0.00000000000E+00 0. -1.
<mgrwt>
<rscale>  0 0.55767944E+02</rscale>
<asrwt>0</asrwt>
<pdfrwt beam="1">  1        4 0.86346224E-02 0.92318607E+02</pdfrwt>
<pdfrwt beam="2">  1       -4 0.11061356E-01 0.92318607E+02</pdfrwt>
<totfact> 0.90747558E+03</totfact>
</mgrwt>
</event>
<event>
 6    1  0.1723639E-002  0.1121218E+03  0.7546771E-02  0.1288527E+00
          2   -1    0    0  501    0  0.00000000000E+00  0.00000000000E+00  0.39500326707E+03  0.39500326707E+03  0.00000000000E+00 0. -1.
         -2   -1    0    0    0  501 -0.00000000000E+00 -0.00000000000E+00 -0.22605057731E+02  0.22605057731E+02  0.00000000000E+00 0.  1.
         23    2    1    2    0    0 -0.46512682799E+02  0.39041489372E+02  0.15126218567E+03  0.18828582587E+03  0.94253041621E+02 0.  0.
         11    1    3    3    0    0 -0.71963501168E+02  0.44320388246E+02  0.10096932044E+03  0.13167325463E+03  0.00000000000E+00 0.  1.
        -11    1    3    3    0    0  0.25450818369E+02 -0.52788988733E+01  0.50292865234E+02  0.56612571240E+02  0.00000000000E+00 0. -1.
         22    1    1    2    0    0  0.46512682799E+02 -0.39041489372E+02  0.22113602366E+03  0.22932249893E+03  0.00000000000E+00 0. -1.
<mgrwt>
<rscale>  0 0.96185938E+02</rscale>
<asrwt>0</asrwt>
<pdfrwt beam="1">  1        2 0.60769728E-01 0.11212182E+03</pdfrwt>
<pdfrwt beam="2">  1       -2 0.34777015E-02 0.11212182E+03</pdfrwt>
<totfact> 0.25169620E+04</totfact>
</mgrwt>
</event>
<event>
 6    1  0.1723639E-002  0.1066311E+03  0.7546771E-02  0.1298206E+00
          1   -1    0    0  501    0  0.00000000000E+00  0.00000000000E+00  0.79228989100E+02  0.79228989100E+02  0.00000000000E+00 0. -1.
         -1   -1    0    0    0  501 -0.00000000000E+00 -0.00000000000E+00 -0.88066105187E+02  0.88066105187E+02  0.00000000000E+00 0.  1.
         23    2    1    2    0    0 -0.50108758656E+02 -0.31051338422E+02 -0.16318339755E+02  0.10787252265E+03  0.88854485648E+02 0.  0.
         13    1    3    3    0    0  0.13657039104E+02 -0.26186684424E+02 -0.30405654180E+02  0.42388217282E+02  0.00000000000E+00 0.  1.
        -13    1    3    3    0    0 -0.63765797760E+02 -0.48646539973E+01  0.14087314425E+02  0.65484305373E+02  0.00000000000E+00 0. -1.
         22    1    1    2    0    0  0.50108758656E+02  0.31051338422E+02  0.74812236668E+01  0.59422571632E+02  0.00000000000E+00 0.  1.
<mgrwt>
<rscale>  0 0.91946126E+02</rscale>
<asrwt>0</asrwt>
<pdfrwt beam="1">  1        1 0.12189075E-01 0.10663111E+03</pdfrwt>
<pdfrwt beam="2">  1       -1 0.13548632E-01 0.10663111E+03</pdfrwt>
<totfact> 0.16831065E+04</totfact>
</mgrwt>
</event>
<event>
 6    1  0.1723639E-002  0.9037186E+02  0.7546771E-02  0.1422011E+00
          1   -1    0    0  501    0  0.00000000000E+00  0.00000000000E+00  0.46266965456E+02  0.46266965456E+02  0.00000000000E+00 0. -1.
         -1   -1    0    0    0  501 -0.00000000000E+00 -0.00000000000E+00 -0.66985932448E+02  0.66985932448E+02  0.00000000000E+00 0.  1.
         23    2    1    2    0    0  0.26399972782E+01  0.11746143330E+02 -0.32854489392E+02  0.96158677458E+02  0.89566357013E+02 0.  0.
         11    1    3    3    0    0  0.63339618521E+01  0.49520382342E+02 -0.29660568395E+02  0.58070101237E+02  0.00000000000E+00 0. -1.
        -11    1    3    3    0    0 -0.36939645739E+01 -0.37774239013E+02 -0.31939209964E+01  0.38088576222E+02  0.00000000000E+00 0.  1.
         22    1    1    2    0    0 -0.26399972782E+01 -0.11746143330E+02  0.12135522399E+02  0.17094220446E+02  0.00000000000E+00 0.  1.
<mgrwt>
<rscale>  0 0.54597658E+02</rscale>
<asrwt>0</asrwt>
<pdfrwt beam="1">  1        1 0.71179946E-02 0.90371864E+02</pdfrwt>
<pdfrwt beam="2">  1       -1 0.10305528E-01 0.90371864E+02</pdfrwt>
<totfact> 0.50893589E+04</totfact>
</mgrwt>
</event>
<event>
 6    1  0.1723639E-002  0.9032513E+02  0.7546771E-02  0.1411271E+00
          2   -1    0    0  501    0  0.00000000000E+00  0.00000000000E+00  0.60575309358E+02  0.60575309358E+02  0.00000000000E+00 0. -1.
         -2   -1    0    0    0  501 -0.00000000000E+00 -0.00000000000E+00 -0.67021771961E+02  0.67021771961E+02  0.00000000000E+00 0.  1.
         23    2    1    2    0    0  0.10532164587E+02 -0.95769517271E+01 -0.34057350418E+02  0.96532541709E+02  0.89196322772E+02 0.  0.
         11    1    3    3    0    0  0.49376954855E+02 -0.89170867043E+01 -0.27225176925E+02  0.57085973449E+02  0.00000000000E+00 0.  1.
        -11    1    3    3    0    0 -0.38844790268E+02 -0.65986502277E+00 -0.68321734935E+01  0.39446568260E+02  0.00000000000E+00 0. -1.
         22    1    1    2    0    0 -0.10532164587E+02  0.95769517271E+01  0.27610887814E+02  0.31064539610E+02  0.00000000000E+00 0. -1.
<mgrwt>
<rscale>  0 0.56911271E+02</rscale>
<asrwt>0</asrwt>
<pdfrwt beam="1">  1        2 0.93192784E-02 0.90325127E+02</pdfrwt>
<pdfrwt beam="2">  1       -2 0.10311042E-01 0.90325127E+02</pdfrwt>
<totfact> 0.38344434E+04</totfact>
</mgrwt>
</event>
<event>
 6    1  0.1723639E-002  0.9671255E+02  0.7546771E-02  0.1342378E+00
          2   -1    0    0  501    0  0.00000000000E+00  0.00000000000E+00  0.56312265692E+02  0.56312265692E+02  0.00000000000E+00 0. -1.
         -2   -1    0    0    0  501 -0.00000000000E+00 -0.00000000000E+00 -0.21334174485E+03  0.21334174485E+03  0.00000000000E+00 0.  1.
         23    2    1    2    0    0  0.12185762274E+02 -0.33758173639E+02 -0.19483985102E+03  0.21752214590E+03  0.89806510481E+02 0.  0.
         13    1    3    3    0    0 -0.10228107598E+02 -0.57214744930E+02 -0.15842880816E+03  0.16875375100E+03  0.00000000000E+00 0.  1.
        -13    1    3    3    0    0  0.22413869872E+02  0.23456571291E+02 -0.36411042858E+02  0.48768394903E+02  0.00000000000E+00 0. -1.
         22    1    1    2    0    0 -0.12185762274E+02  0.33758173639E+02  0.37810371864E+02  0.52131864633E+02  0.00000000000E+00 0. -1.
<mgrwt>
<rscale>  0 0.75484209E+02</rscale>
<asrwt>0</asrwt>
<pdfrwt beam="1">  1        2 0.86634254E-02 0.96712545E+02</pdfrwt>
<pdfrwt beam="2">  1       -2 0.32821807E-01 0.96712545E+02</pdfrwt>
<totfact> 0.61256922E+03</totfact>
</mgrwt>
</event>
<event>
 6    1  0.1723639E-002  0.9187798E+02  0.7546771E-02  0.1376844E+00
         -1   -1    0    0    0  501 -0.00000000000E+00  0.00000000000E+00  0.24037811750E+03  0.24037811750E+03  0.00000000000E+00 0.  1.
          1   -1    0    0  501    0  0.00000000000E+00 -0.00000000000E+00 -0.20594766327E+02  0.20594766327E+02  0.00000000000E+00 0. -1.
         23    2    1    2    0    0  0.17735253833E+02 -0.15332746414E+02  0.21902622714E+03  0.23751642250E+03  0.88836537744E+02 0.  0.
         11    1    3    3    0    0 -0.12481062401E+02 -0.46689520692E+02  0.11613979345E+03  0.12579403755E+03  0.00000000000E+00 0.  1.
        -11    1    3    3    0    0  0.30216316233E+02  0.31356774278E+02  0.10288643370E+03  0.11172238495E+03  0.00000000000E+00 0. -1.
         22    1    1    2    0    0 -0.17735253833E+02  0.15332746414E+02  0.75712402581E+00  0.23456461325E+02  0.00000000000E+00 0. -1.
<mgrwt>
<rscale>  0 0.65300665E+02</rscale>
<asrwt>0</asrwt>
<pdfrwt beam="1">  1        1 0.31684258E-02 0.91877978E+02</pdfrwt>
<pdfrwt beam="2">  1       -1 0.36981247E-01 0.91877978E+02</pdfrwt>
<totfact> 0.19875951E+04</totfact>
</mgrwt>
</event>
<event>
 6    1  0.1723639E-002  0.9119340E+02  0.7546771E-02  0.1430985E+00
          2   -1    0    0  501    0  0.00000000000E+00  0.00000000000E+00  0.20941453620E+03  0.20941453620E+03  0.00000000000E+00 0. -1.
         -2   -1    0    0    0  501 -0.00000000000E+00 -0.00000000000E+00 -0.13899951380E+02  0.13899951380E+02  0.00000000000E+00 0.  1.
         23    2    1    2    0    0 -0.38660775533E+01  0.94597011498E+01  0.14149079732E+03  0.16833265315E+03  0.90619004014E+02 0.  0.
         13    1    3    3    0    0 -0.94792304952E+00  0.23656442277E+02  0.14977764716E+03  0.15163729557E+03  0.00000000000E+00 0. -1.
        -13    1    3    3    0    0 -0.29181545037E+01 -0.14196741127E+02 -0.82868498406E+01  0.16695357577E+02  0.00000000000E+00 0.  1.
         22    1    1    2    0    0  0.38660775533E+01 -0.94597011498E+01  0.54023787497E+02  0.54981834427E+02  0.00000000000E+00 0.  1.
<mgrwt>
<rscale>  0 0.52762701E+02</rscale>
<asrwt>0</asrwt>
<pdfrwt beam="1">  1        2 0.32217619E-01 0.91193401E+02</pdfrwt>
<pdfrwt beam="2">  1       -2 0.21384542E-02 0.91193401E+02</pdfrwt>
<totfact> 0.97061759E+04</totfact>
</mgrwt>
</event>
<event>
 6    1  0.1723639E-002  0.9235803E+02  0.7546771E-02  0.1383142E+00
         -2   -1    0    0    0  501 -0.00000000000E+00  0.00000000000E+00  0.32442588432E+03  0.32442588432E+03  0.00000000000E+00 0. -1.
          2   -1    0    0  501    0  0.00000000000E+00 -0.00000000000E+00 -0.11017152725E+02  0.11017152725E+02  0.00000000000E+00 0.  1.
         23    2    1    2    0    0  0.65166204860E+01 -0.19781570411E+02  0.28877483617E+03  0.30318461684E+03  0.89979047627E+02 0.  0.
         13    1    3    3    0    0 -0.11246524453E+02 -0.92336956263E+01  0.28058432021E+03  0.28096139627E+03  0.00000000000E+00 0. -1.
        -13    1    3    3    0    0  0.17763144939E+02 -0.10547874785E+02  0.81905159585E+01  0.22223220565E+02  0.00000000000E+00 0.  1.
         22    1    1    2    0    0 -0.65166204860E+01  0.19781570411E+02  0.24633895428E+02  0.32258420210E+02  0.00000000000E+00 0.  1.
<mgrwt>
<rscale>  0 0.63645001E+02</rscale>
<asrwt>0</asrwt>
<pdfrwt beam="1">  1        2 0.16949468E-02 0.92358031E+02</pdfrwt>
<pdfrwt beam="2">  1       -2 0.49911667E-01 0.92358031E+02</pdfrwt>
<totfact> 0.23323686E+04</totfact>
</mgrwt>
</event>
<event>
 6    1  0.1723639E-002  0.1046446E+03  0.7546771E-02  0.1376123E+00
          2   -1    0    0  501    0  0.00000000000E+00  0.00000000000E+00  0.25511161416E+03  0.25511161416E+03  0.00000000000E+00 0. -1.
         -2   -1    0    0    0  501 -0.00000000000E+00 -0.00000000000E+00 -0.16199985447E+02  0.16199985447E+02  0.00000000000E+00 0.  1.
         23    2    1    2    0    0  0.74308523540E+01 -0.14233800419E+02  0.16284748876E+03  0.19357118523E+03  0.10340541820E+03 0.  0.
         13    1    3    3    0    0  0.51315459889E+02  0.64442606189E+01  0.56013397400E+02  0.76238478519E+02  0.00000000000E+00 0. -1.
        -13    1    3    3    0    0 -0.43884607535E+02 -0.20678061038E+02  0.10683409136E+03  0.11733270671E+03  0.00000000000E+00 0.  1.
         22    1    1    2    0    0 -0.74308523540E+01  0.14233800419E+02  0.76064139957E+02  0.77740414383E+02  0.00000000000E+00 0. -1.
<mgrwt>
<rscale>  0 0.65494074E+02</rscale>
<asrwt>0</asrwt>
<pdfrwt beam="1">  1        2 0.39247938E-01 0.10464463E+03</pdfrwt>
<pdfrwt beam="2">  1       -2 0.24923056E-02 0.10464463E+03</pdfrwt>
<totfact> 0.64364558E+04</totfact>
</mgrwt>
</event>
<event>
 6    1  0.1723639E-002  0.1078998E+03  0.7546771E-02  0.1303944E+00
         -4   -1    0    0    0  501 -0.00000000000E+00  0.00000000000E+00  0.10090435055E+04  0.10090435055E+04  0.00000000000E+00 0. -1.
          4   -1    0    0  501    0  0.00000000000E+00 -0.00000000000E+00 -0.29794750620E+02  0.29794750620E+02  0.00000000000E+00 0.  1.
         23    2    1    2    0    0  0.50574648734E+02 -0.79302250600E+01  0.98167608860E+03  0.98758812918E+03  0.94982558448E+02 0.  0.
         11    1    3    3    0    0  0.37160526218E+02  0.73209423143E+01  0.12362583603E+03  0.12929751831E+03  0.00000000000E+00 0.  1.
        -11    1    3    3    0    0  0.13414122517E+02 -0.15251167374E+02  0.85805025257E+03  0.85829061088E+03  0.00000000000E+00 0. -1.
         22    1    1    2    0    0 -0.50574648734E+02  0.79302250600E+01 -0.24273337020E+01  0.51250126956E+02  0.00000000000E+00 0.  1.
<mgrwt>
<rscale>  0 0.89550362E+02</rscale>
<asrwt>0</asrwt>
<pdfrwt beam="1">  1        4 0.45838086E-02 0.10789981E+03</pdfrwt>
<pdfrwt beam="2">  1       -4 0.15523744E+00 0.10789981E+03</pdfrwt>
<totfact> 0.12933530E+02</totfact>
</mgrwt>
</event>
<event>
 6    1  0.1723639E-002  0.9072628E+02  0.7546771E-02  0.1426176E+00
          4   -1    0    0  501    0  0.00000000000E+00  0.00000000000E+00  0.38279765421E+02  0.38279765421E+02  0.00000000000E+00 0. -1.
         -4   -1    0    0    0  501 -0.00000000000E+00 -0.00000000000E+00 -0.78442455514E+02  0.78442455514E+02  0.00000000000E+00 0.  1.
         23    2    1    2    0    0 -0.11125351130E+02  0.93534165519E+00 -0.48417518993E+02  0.10283731899E+03  0.90036713237E+02 0.  0.
         13    1    3    3    0    0 -0.31177863270E+02  0.62846711016E+01  0.15682551879E+02  0.35461227875E+02  0.00000000000E+00 0. -1.
        -13    1    3    3    0    0  0.20052512139E+02 -0.53493294464E+01 -0.64100070872E+02  0.67376091119E+02  0.00000000000E+00 0.  1.
         22    1    1    2    0    0  0.11125351130E+02 -0.93534165519E+00  0.82548289001E+01  0.13884901943E+02  0.00000000000E+00 0. -1.
<mgrwt>
<rscale>  0 0.53735417E+02</rscale>
<asrwt>0</asrwt>
<pdfrwt beam="1">  1        4 0.58891947E-02 0.90726281E+02</pdfrwt>
<pdfrwt beam="2">  1       -4 0.12068070E-01 0.90726281E+02</pdfrwt>
<totfact> 0.14536804E+04</totfact>
</mgrwt>
</event>
<event>
 6    1  0.1723639E-002  0.9344017E+02  0.7546771E-02  0.1390508E+00
         -2   -1    0    0    0  501 -0.00000000000E+00  0.00000000000E+00  0.22836058418E+02  0.22836058418E+02  0.00000000000E+00 0.  1.
          2   -1    0    0  501    0  0.00000000000E+00 -0.00000000000E+00 -0.15704253531E+03  0.15704253531E+03  0.00000000000E+00 0. -1.
         23    2    1    2    0    0  0.66869089288E+00  0.17844244178E+02 -0.80678670380E+02  0.12345084995E+03  0.91718047849E+02 0.  0.
         11    1    3    3    0    0 -0.18577750688E+02  0.23307158081E+02 -0.94529784206E+02  0.99117286790E+02  0.00000000000E+00 0. -1.
        -11    1    3    3    0    0  0.19246441581E+02 -0.54629139027E+01  0.13851113827E+02  0.24333563160E+02  0.00000000000E+00 0.  1.
         22    1    1    2    0    0 -0.66869089288E+00 -0.17844244178E+02 -0.53527806515E+02  0.56427743780E+02  0.00000000000E+00 0.  1.
<mgrwt>
<rscale>  0 0.61780429E+02</rscale>
<asrwt>0</asrwt>
<pdfrwt beam="1">  1        2 0.24160391E-01 0.93440165E+02</pdfrwt>
<pdfrwt beam="2">  1       -2 0.35132397E-02 0.93440165E+02</pdfrwt>
<totfact> 0.64642101E+04</totfact>
</mgrwt>
</event>
<event>
 6    1  0.1723639E-002  0.9273447E+02  0.7546771E-02  0.1399682E+00
          2   -1    0    0  501    0  0.00000000000E+00  0.00000000000E+00  0.25197988737E+03  0.25197988737E+03  0.00000000000E+00 0.  1.
         -2   -1    0    0    0  501 -0.00000000000E+00 -0.00000000000E+00 -0.13643003916E+02  0.13643003916E+02  0.00000000000E+00 0. -1.
         23    2    1    2    0    0 -0.12758232838E+02  0.92879536248E+01  0.15355299660E+03  0.17938284225E+03  0.91381851268E+02 0.  0.
         13    1    3    3    0    0 -0.10982392069E+02 -0.21927495586E+02  0.19634319574E+01  0.24602501159E+02  0.00000000000E+00 0. -1.
        -13    1    3    3    0    0 -0.17758407694E+01  0.31215449211E+02  0.15158956464E+03  0.15478034109E+03  0.00000000000E+00 0.  1.
         22    1    1    2    0    0  0.12758232838E+02 -0.92879536248E+01  0.84783886857E+02  0.86240049039E+02  0.00000000000E+00 0.  1.
<mgrwt>
<rscale>  0 0.59561306E+02</rscale>
<asrwt>0</asrwt>
<pdfrwt beam="1">  1        2 0.38766133E-01 0.92734467E+02</pdfrwt>
<pdfrwt beam="2">  1       -2 0.20989239E-02 0.92734467E+02</pdfrwt>
<totfact> 0.82190387E+04</totfact>
</mgrwt>
</event>
<event>
 6    1  0.1723639E-002  0.9269708E+02  0.7546771E-02  0.1411950E+00
         -2   -1    0    0    0  501 -0.00000000000E+00  0.00000000000E+00  0.92313724116E+02  0.92313724116E+02  0.00000000000E+00 0.  1.
          2   -1    0    0  501    0  0.00000000000E+00 -0.00000000000E+00 -0.41997624738E+02  0.41997624738E+02  0.00000000000E+00 0. -1.
         23    2    1    2    0    0 -0.10592339296E+02  0.75911959232E+01  0.66094340444E+02  0.11384731214E+03  0.91776493376E+02 0.  0.
         11    1    3    3    0    0  0.14559289638E+02  0.43122329391E+02  0.17911211815E+02  0.48911345469E+02  0.00000000000E+00 0.  1.
        -11    1    3    3    0    0 -0.25151628934E+02 -0.35531133468E+02  0.48183128629E+02  0.64935966675E+02  0.00000000000E+00 0. -1.
         22    1    1    2    0    0  0.10592339296E+02 -0.75911959232E+01 -0.15778241066E+02  0.20464036709E+02  0.00000000000E+00 0. -1.
<mgrwt>
<rscale>  0 0.56760916E+02</rscale>
<asrwt>0</asrwt>
<pdfrwt beam="1">  1        2 0.64611731E-02 0.92697080E+02</pdfrwt>
<pdfrwt beam="2">  1       -2 0.14202111E-01 0.92697080E+02</pdfrwt>
<totfact> 0.36552009E+04</totfact>
</mgrwt>
</event>
<event>
 6    1  0.1723639E-002  0.1030324E+03  0.7546771E-02  0.1362385E+00
         -1   -1    0    0    0  501 -0.00000000000E+00  0.00000000000E+00  0.29972352521E+03  0.29972352521E+03  0.00000000000E+00 0.  1.
          1   -1    0    0  501    0  0.00000000000E+00 -0.00000000000E+00 -0.14858617714E+02  0.14858617714E+02  0.00000000000E+00 0. -1.
         23    2    1    2    0    0 -0.39920472673E+01 -0.20743010982E+02  0.26931882032E+03  0.28835449010E+03  0.10084382003E+03 0.  0.
         13    1    3    3    0    0  0.14402130486E+02  0.31403134029E+02  0.41882830748E+02  0.54293182822E+02  0.00000000000E+00 0. -1.
        -13    1    3    3    0    0 -0.18394177754E+02 -0.52146145011E+02  0.22743598957E+03  0.23406130728E+03  0.00000000000E+00 0.  1.
         22    1    1    2    0    0  0.39920472673E+01  0.20743010982E+02  0.15546087177E+02  0.26227652821E+02  0.00000000000E+00 0. -1.
<mgrwt>
<rscale>  0 0.69330254E+02</rscale>
<asrwt>0</asrwt>
<pdfrwt beam="1">  1        1 0.22859414E-02 0.10303245E+03</pdfrwt>
<pdfrwt beam="2">  1       -1 0.46111307E-01 0.10303245E+03</pdfrwt>
<totfact> 0.21463567E+04</totfact>
</mgrwt>
</event>
<event>
 6    1  0.1723639E-002  0.8828027E+02  0.7546771E-02  0.1433848E+00
         -2   -1    0    0    0  501 -0.00000000000E+00  0.00000000000E+00  0.59270386932E+02  0.59270386932E+02  0.00000000000E+00 0. -1.
          2   -1    0    0  501    0  0.00000000000E+00 -0.00000000000E+00 -0.44506521038E+02  0.44506521038E+02  0.00000000000E+00 0.  1.
         23    2    1    2    0    0  0.38708018549E+01 -0.10069497342E+02  0.21755611472E+02  0.90921465933E+02  0.87618653569E+02 0.  0.
         11    1    3    3    0    0 -0.40757054277E+02 -0.51844061819E+01  0.20721399470E+02  0.46015127260E+02  0.00000000000E+00 0. -1.
        -11    1    3    3    0    0  0.44627856132E+02 -0.48850911601E+01  0.10342120020E+01  0.44906338673E+02  0.00000000000E+00 0.  1.
         22    1    1    2    0    0 -0.38708018549E+01  0.10069497342E+02 -0.69917455782E+01  0.12855442036E+02  0.00000000000E+00 0.  1.
<mgrwt>
<rscale>  0 0.52195319E+02</rscale>
<asrwt>0</asrwt>
<pdfrwt beam="1">  1        2 0.68471571E-02 0.88280272E+02</pdfrwt>
<pdfrwt beam="2">  1       -2 0.91185211E-02 0.88280272E+02</pdfrwt>
<totfact> 0.67752756E+04</totfact>
</mgrwt>
</event>
<event>
 6    1  0.1723639E-002  0.8940956E+02  0.7546771E-02  0.1436175E+00
          2   -1    0    0  501    0  0.00000000000E+00  0.00000000000E+00  0.17053247554E+02  0.17053247554E+02  0.00000000000E+00 0. -1.
         -2   -1    0    0    0  501 -0.00000000000E+00 -0.00000000000E+00 -0.15520466700E+03  0.15520466700E+03  0.00000000000E+00 0.  1.
         23    2    1    2    0    0  0.50850904079E+01 -0.86415944326E+01 -0.13466202454E+03  0.16164136259E+03  0.88845562342E+02 0.  0.
         11    1    3    3    0    0  0.31977559303E+02  0.28956261472E+02 -0.67551642185E+02  0.80151442528E+02  0.00000000000E+00 0. -1.
        -11    1    3    3    0    0 -0.26892468895E+02 -0.37597855905E+02 -0.67110382352E+02  0.81489920060E+02  0.00000000000E+00 0.  1.
         22    1    1    2    0    0 -0.50850904079E+01  0.86415944326E+01 -0.34893949069E+01  0.10616551964E+02  0.00000000000E+00 0. -1.
<mgrwt>
<rscale>  0 0.51740162E+02</rscale>
<asrwt>0</asrwt>
<pdfrwt beam="1">  1        2 0.26235766E-02 0.89409559E+02</pdfrwt>
<pdfrwt beam="2">  1       -2 0.23877640E-01 0.89409559E+02</pdfrwt>
<totfact> 0.49726178E+04</totfact>
</mgrwt>
</event>
<event>
 6    1  0.1723639E-002  0.9214250E+02  0.7546771E-02  0.1359456E+00
         -2   -1    0    0    0  501 -0.00000000000E+00  0.00000000000E+00  0.16618976206E+02  0.16618976206E+02  0.00000000000E+00 0.  1.
          2   -1    0    0  501    0  0.00000000000E+00 -0.00000000000E+00 -0.26897020068E+03  0.26897020068E+03  0.00000000000E+00 0. -1.
         23    2    1    2    0    0 -0.15017684880E+02  0.27144156650E+02 -0.12984793651E+03  0.15921911849E+03  0.86763500245E+02 0.  0.
         11    1    3    3    0    0  0.85857196077E+01  0.50712753633E+02 -0.46089590834E+02  0.69063364713E+02  0.00000000000E+00 0.  1.
        -11    1    3    3    0    0 -0.23603404488E+02 -0.23568596983E+02 -0.83758345680E+02  0.90155753772E+02  0.00000000000E+00 0. -1.
         22    1    1    2    0    0  0.15017684880E+02 -0.27144156650E+02 -0.12250328796E+03  0.12637005840E+03  0.00000000000E+00 0. -1.
<mgrwt>
<rscale>  0 0.70187675E+02</rscale>
<asrwt>0</asrwt>
<pdfrwt beam="1">  1        2 0.41380033E-01 0.92142504E+02</pdfrwt>
<pdfrwt beam="2">  1       -2 0.25567655E-02 0.92142504E+02</pdfrwt>
<totfact> 0.57684537E+04</totfact>
</mgrwt>
</event>
<event>
 6    1  0.1723639E-002  0.9430586E+02  0.7546771E-02  0.1420566E+00
          2   -1    0    0  501    0  0.00000000000E+00  0.00000000000E+00  0.19223911627E+03  0.19223911627E+03  0.00000000000E+00 0. -1.
         -2   -1    0    0    0  501 -0.00000000000E+00 -0.00000000000E+00 -0.15698110598E+02  0.15698110598E+02  0.00000000000E+00 0.  1.
         23    2    1    2    0    0  0.15867486474E+01  0.10715377793E+02  0.13282373558E+03  0.16289794627E+03  0.93681690171E+02 0.  0.
         11    1    3    3    0    0 -0.28589917858E+02 -0.29822469476E+01  0.12577335051E+03  0.12901632803E+03  0.00000000000E+00 0. -1.
        -11    1    3    3    0    0  0.30176666506E+02  0.13697624740E+02  0.70503850702E+01  0.33881618240E+02  0.00000000000E+00 0.  1.
         22    1    1    2    0    0 -0.15867486474E+01 -0.10715377793E+02  0.43717270095E+02  0.45039280601E+02  0.00000000000E+00 0. -1.
<mgrwt>
<rscale>  0 0.54901403E+02</rscale>
<asrwt>0</asrwt>
<pdfrwt beam="1">  1        2 0.29575247E-01 0.94305865E+02</pdfrwt>
<pdfrwt beam="2">  1       -2 0.24150941E-02 0.94305865E+02</pdfrwt>
<totfact> 0.89677095E+04</totfact>
</mgrwt>
</event>
<event>
 6    1  0.1723639E-002  0.9237176E+02  0.7546771E-02  0.1408663E+00
         -2   -1    0    0    0  501 -0.00000000000E+00  0.00000000000E+00  0.91948611826E+02  0.91948611826E+02  0.00000000000E+00 0.  1.
          2   -1    0    0  501    0  0.00000000000E+00 -0.00000000000E+00 -0.35539321481E+02  0.35539321481E+02  0.00000000000E+00 0. -1.
         23    2    1    2    0    0 -0.13220699432E+02  0.41697982528E+01  0.63327200416E+02  0.11199498037E+03  0.91325610891E+02 0.  0.
         11    1    3    3    0    0 -0.33426740567E+01 -0.35930065807E+02 -0.36298784437E+00  0.36087045583E+02  0.00000000000E+00 0. -1.
        -11    1    3    3    0    0 -0.98780253755E+01  0.40099864060E+02  0.63690188261E+02  0.75907934787E+02  0.00000000000E+00 0.  1.
         22    1    1    2    0    0  0.13220699432E+02 -0.41697982528E+01 -0.69179100716E+01  0.15492952937E+02  0.00000000000E+00 0. -1.
<mgrwt>
<rscale>  0 0.57493171E+02</rscale>
<asrwt>0</asrwt>
<pdfrwt beam="1">  1        2 0.54675879E-02 0.92371756E+02</pdfrwt>
<pdfrwt beam="2">  1       -2 0.14145940E-01 0.92371756E+02</pdfrwt>
<totfact> 0.45480743E+04</totfact>
</mgrwt>
</event>
<event>
 6    1  0.1723639E-002  0.1140721E+03  0.7546771E-02  0.1350721E+00
          2   -1    0    0  501    0  0.00000000000E+00  0.00000000000E+00  0.12210092380E+02  0.12210092380E+02  0.00000000000E+00 0. -1.
         -2   -1    0    0    0  501 -0.00000000000E+00 -0.00000000000E+00 -0.45091453473E+03  0.45091453473E+03  0.00000000000E+00 0.  1.
         23    2    1    2    0    0 -0.11953712805E+02  0.14711458334E+02 -0.42416183847E+03  0.43923308920E+03  0.11248610215E+03 0.  0.
         11    1    3    3    0    0 -0.66771049925E+01  0.51970128763E+02 -0.36748287196E+03  0.37119959482E+03  0.00000000000E+00 0.  1.
        -11    1    3    3    0    0 -0.52766078129E+01 -0.37258670429E+02 -0.56678966509E+02  0.68033494373E+02  0.00000000000E+00 0. -1.
         22    1    1    2    0    0  0.11953712805E+02 -0.14711458334E+02 -0.14542603882E+02  0.23891537912E+02  0.00000000000E+00 0.  1.
<mgrwt>
<rscale>  0 0.72831534E+02</rscale>
<asrwt>0</asrwt>
<pdfrwt beam="1">  1        2 0.18784760E-02 0.11407209E+03</pdfrwt>
<pdfrwt beam="2">  1       -2 0.69371459E-01 0.11407209E+03</pdfrwt>
<totfact> 0.10654937E+04</totfact>
</mgrwt>
</event>
<event>
 6    1  0.1723639E-002  0.9378946E+02  0.7546771E-02  0.1397970E+00
          2   -1    0    0  501    0  0.00000000000E+00  0.00000000000E+00  0.12652658136E+02  0.12652658136E+02  0.00000000000E+00 0. -1.
         -2   -1    0    0    0  501 -0.00000000000E+00 -0.00000000000E+00 -0.25805553906E+03  0.25805553906E+03  0.00000000000E+00 0.  1.
         23    2    1    2    0    0 -0.48036958990E+01 -0.14920158504E+02 -0.23142027661E+03  0.24970343946E+03  0.92470409476E+02 0.  0.
         11    1    3    3    0    0  0.26968189043E+02  0.17948143807E+01 -0.16203299371E+02  0.31512719487E+02  0.00000000000E+00 0. -1.
        -11    1    3    3    0    0 -0.31771884942E+02 -0.16714972885E+02 -0.21521697724E+03  0.21819071998E+03  0.00000000000E+00 0.  1.
         22    1    1    2    0    0  0.48036958990E+01  0.14920158504E+02 -0.13982604316E+02  0.21004757736E+02  0.00000000000E+00 0. -1.
<mgrwt>
<rscale>  0 0.59967124E+02</rscale>
<asrwt>0</asrwt>
<pdfrwt beam="1">  1        2 0.19465629E-02 0.93789462E+02</pdfrwt>
<pdfrwt beam="2">  1       -2 0.39700850E-01 0.93789462E+02</pdfrwt>
<totfact> 0.30059518E+04</totfact>
</mgrwt>
</event>
<event>
 6    1  0.1723639E-002  0.1204960E+03  0.7546771E-02  0.1295138E+00
          2   -1    0    0  501    0  0.00000000000E+00  0.00000000000E+00  0.21124973694E+03  0.21124973694E+03  0.00000000000E+00 0. -1.
         -2   -1    0    0    0  501 -0.00000000000E+00 -0.00000000000E+00 -0.31729583173E+02  0.31729583173E+02  0.00000000000E+00 0.  1.
         23    2    1    2    0    0  0.12234119138E+02  0.41475822188E+02  0.13280810776E+03  0.17932452658E+03  0.11246943963E+03 0.  0.
         13    1    3    3    0    0  0.40978155501E+02  0.20005107850E+01  0.35855570905E+01  0.41183339973E+02  0.00000000000E+00 0.  1.
        -13    1    3    3    0    0 -0.28744036363E+02  0.39475311403E+02  0.12922255067E+03  0.13814118661E+03  0.00000000000E+00 0. -1.
         22    1    1    2    0    0 -0.12234119138E+02 -0.41475822188E+02  0.46712046011E+02  0.63654793534E+02  0.00000000000E+00 0. -1.
<mgrwt>
<rscale>  0 0.93262564E+02</rscale>
<asrwt>0</asrwt>
<pdfrwt beam="1">  1        2 0.32499959E-01 0.12049603E+03</pdfrwt>
<pdfrwt beam="2">  1       -2 0.48814745E-02 0.12049603E+03</pdfrwt>
<totfact> 0.29758871E+04</totfact>
</mgrwt>
</event>
<event>
 6    1  0.1723639E-002  0.9611196E+02  0.7546771E-02  0.1382014E+00
          4   -1    0    0  501    0  0.00000000000E+00  0.00000000000E+00  0.51874389297E+02  0.51874389297E+02  0.00000000000E+00 0. -1.
         -4   -1    0    0    0  501 -0.00000000000E+00 -0.00000000000E+00 -0.91738420365E+02  0.91738420365E+02  0.00000000000E+00 0.  1.
         23    2    1    2    0    0  0.18454296132E+02  0.37058851513E+01 -0.62139134772E+02  0.11444990728E+03  0.94250806761E+02 0.  0.
         13    1    3    3    0    0  0.29317608027E+02  0.33523497672E+02 -0.68864574827E+02  0.82010223159E+02  0.00000000000E+00 0.  1.
        -13    1    3    3    0    0 -0.10863311895E+02 -0.29817612521E+02  0.67254400544E+01  0.32439684118E+02  0.00000000000E+00 0. -1.
         22    1    1    2    0    0 -0.18454296132E+02 -0.37058851513E+01  0.22275103704E+02  0.29162902385E+02  0.00000000000E+00 0. -1.
<mgrwt>
<rscale>  0 0.63937206E+02</rscale>
<asrwt>0</asrwt>
<pdfrwt beam="1">  1        4 0.79806753E-02 0.96111962E+02</pdfrwt>
<pdfrwt beam="2">  1       -4 0.14113603E-01 0.96111962E+02</pdfrwt>
<totfact> 0.69019047E+03</totfact>
</mgrwt>
</event>
<event>
 6    1  0.1723639E-002  0.9764378E+02  0.7546771E-02  0.1342847E+00
          2   -1    0    0  501    0  0.00000000000E+00  0.00000000000E+00  0.37944940959E+03  0.37944940959E+03  0.00000000000E+00 0. -1.
         -2   -1    0    0    0  501 -0.00000000000E+00 -0.00000000000E+00 -0.11644663473E+02  0.11644663473E+02  0.00000000000E+00 0.  1.
         23    2    1    2    0    0 -0.34389647969E+02  0.37375675768E+01  0.25290625270E+03  0.27110123541E+03  0.91310951624E+02 0.  0.
         11    1    3    3    0    0 -0.45951128367E+02 -0.32279827918E+02  0.11318730504E+03  0.12635212507E+03  0.00000000000E+00 0.  1.
        -11    1    3    3    0    0  0.11561480398E+02  0.36017395495E+02  0.13971894766E+03  0.14474911033E+03  0.00000000000E+00 0. -1.
         22    1    1    2    0    0  0.34389647969E+02 -0.37375675768E+01  0.11489849341E+03  0.11999283765E+03  0.00000000000E+00 0. -1.
<mgrwt>
<rscale>  0 0.75331712E+02</rscale>
<asrwt>0</asrwt>
<pdfrwt beam="1">  1        2 0.58376823E-01 0.97643777E+02</pdfrwt>
<pdfrwt beam="2">  1       -2 0.17914870E-02 0.97643777E+02</pdfrwt>
<totfact> 0.67669460E+04</totfact>
</mgrwt>
</event>
<event>
 6    1  0.1723639E-002  0.9355943E+02  0.7546771E-02  0.1393676E+00
         -4   -1    0    0    0  501 -0.00000000000E+00  0.00000000000E+00  0.32153807659E+03  0.32153807659E+03  0.00000000000E+00 0. -1.
          4   -1    0    0  501    0  0.00000000000E+00 -0.00000000000E+00 -0.15230558949E+02  0.15230558949E+02  0.00000000000E+00 0.  1.
         23    2    1    2    0    0  0.61006267845E+01 -0.15769301935E+02  0.30586534237E+03  0.31985461622E+03  0.92018907413E+02 0.  0.
         11    1    3    3    0    0  0.38604179284E+02 -0.17104184645E+02  0.69941486104E+02  0.81698514485E+02  0.00000000000E+00 0.  1.
        -11    1    3    3    0    0 -0.32503552500E+02  0.13348827096E+01  0.23592385626E+03  0.23815610173E+03  0.00000000000E+00 0. -1.
         22    1    1    2    0    0 -0.61006267845E+01  0.15769301935E+02  0.44217527131E+00  0.16914019323E+02  0.00000000000E+00 0.  1.
<mgrwt>
<rscale>  0 0.61001468E+02</rscale>
<asrwt>0</asrwt>
<pdfrwt beam="1">  1        4 0.23431632E-02 0.93559435E+02</pdfrwt>
<pdfrwt beam="2">  1       -4 0.49467391E-01 0.93559435E+02</pdfrwt>
<totfact> 0.46787556E+03</totfact>
</mgrwt>
</event>
<event>
 6    1  0.1723639E-002  0.9219483E+02  0.7546771E-02  0.1389079E+00
         -2   -1    0    0    0  501 -0.00000000000E+00  0.00000000000E+00  0.15442703982E+03  0.15442703982E+03  0.00000000000E+00 0.  1.
          2   -1    0    0  501    0  0.00000000000E+00 -0.00000000000E+00 -0.39804579130E+02  0.39804579130E+02  0.00000000000E+00 0. -1.
         23    2    1    2    0    0  0.17143778436E+02  0.82426381181E+01  0.13682929476E+03  0.16499134362E+03  0.90211071059E+02 0.  0.
         11    1    3    3    0    0 -0.24622796236E+02  0.30370001652E+02  0.33976621428E+02  0.51797971954E+02  0.00000000000E+00 0. -1.
        -11    1    3    3    0    0  0.41766574673E+02 -0.22127363534E+02  0.10285267333E+03  0.11319337166E+03  0.00000000000E+00 0.  1.
         22    1    1    2    0    0 -0.17143778436E+02 -0.82426381181E+01 -0.22206834070E+02  0.29240275334E+02  0.00000000000E+00 0. -1.
<mgrwt>
<rscale>  0 0.62136394E+02</rscale>
<asrwt>0</asrwt>
<pdfrwt beam="1">  1        2 0.61237815E-02 0.92194835E+02</pdfrwt>
<pdfrwt beam="2">  1       -2 0.23758006E-01 0.92194835E+02</pdfrwt>
<totfact> 0.16643993E+04</totfact>
</mgrwt>
</event>
<event>
 6    1  0.1723639E-002  0.9291257E+02  0.7546771E-02  0.1412255E+00
          2   -1    0    0  501    0  0.00000000000E+00  0.00000000000E+00  0.41208062546E+02  0.41208062546E+02  0.00000000000E+00 0. -1.
         -2   -1    0    0    0  501 -0.00000000000E+00 -0.00000000000E+00 -0.74017311638E+02  0.74017311638E+02  0.00000000000E+00 0.  1.
         23    2    1    2    0    0  0.32026517903E+01  0.12475514624E+02 -0.39204376350E+02  0.10084507181E+03  0.92015487504E+02 0.  0.
         13    1    3    3    0    0 -0.31899968527E+02 -0.23678576782E+02 -0.52301569850E+01  0.40070407192E+02  0.00000000000E+00 0. -1.
        -13    1    3    3    0    0  0.35102620318E+02  0.36154091405E+02 -0.33974219365E+02  0.60774664622E+02  0.00000000000E+00 0.  1.
         22    1    1    2    0    0 -0.32026517903E+01 -0.12475514624E+02  0.63951272581E+01  0.14380302370E+02  0.00000000000E+00 0. -1.
<mgrwt>
<rscale>  0 0.56693746E+02</rscale>
<asrwt>0</asrwt>
<pdfrwt beam="1">  1        2 0.63397020E-02 0.92912568E+02</pdfrwt>
<pdfrwt beam="2">  1       -2 0.11387279E-01 0.92912568E+02</pdfrwt>
<totfact> 0.53223068E+04</totfact>
</mgrwt>
</event>
<event>
 6    1  0.1723639E-002  0.9434868E+02  0.7546771E-02  0.1375327E+00
         -2   -1    0    0    0  501 -0.00000000000E+00  0.00000000000E+00  0.32083667162E+02  0.32083667162E+02  0.00000000000E+00 0.  1.
          2   -1    0    0  501    0  0.00000000000E+00 -0.00000000000E+00 -0.10585538915E+03  0.10585538915E+03  0.00000000000E+00 0. -1.
         23    2    1    2    0    0 -0.21852438353E+02  0.38900187127E+01 -0.59019620210E+02  0.11128786845E+03  0.91700669500E+02 0.  0.
         13    1    3    3    0    0  0.19880955972E+02 -0.27024820563E+02 -0.47392348045E+02  0.58065721299E+02  0.00000000000E+00 0. -1.
        -13    1    3    3    0    0 -0.41733394325E+02  0.30914839275E+02 -0.11627272165E+02  0.53222147150E+02  0.00000000000E+00 0.  1.
         22    1    1    2    0    0  0.21852438353E+02 -0.38900187127E+01 -0.14752101775E+02  0.26651187860E+02  0.00000000000E+00 0.  1.
<mgrwt>
<rscale>  0 0.65708332E+02</rscale>
<asrwt>0</asrwt>
<pdfrwt beam="1">  1        2 0.16285444E-01 0.94348684E+02</pdfrwt>
<pdfrwt beam="2">  1       -2 0.49359488E-02 0.94348684E+02</pdfrwt>
<totfact> 0.60976239E+04</totfact>
</mgrwt>
</event>
<event>
 6    1  0.1723639E-002  0.9225538E+02  0.7546771E-02  0.1415541E+00
         -1   -1    0    0    0  501 -0.00000000000E+00  0.00000000000E+00  0.47412231479E+02  0.47412231479E+02  0.00000000000E+00 0.  1.
          1   -1    0    0  501    0  0.00000000000E+00 -0.00000000000E+00 -0.57954208411E+02  0.57954208411E+02  0.00000000000E+00 0. -1.
         23    2    1    2    0    0  0.50240916520E+01 -0.11449280018E+02 -0.10607216801E+02  0.92863169674E+02  0.91404199705E+02 0.  0.
         13    1    3    3    0    0  0.24741070049E+02  0.85612195572E+01  0.32299945323E+02  0.41577656203E+02  0.00000000000E+00 0.  1.
        -13    1    3    3    0    0 -0.19716978397E+02 -0.20010499575E+02 -0.42907162124E+02  0.51285513470E+02  0.00000000000E+00 0. -1.
         22    1    1    2    0    0 -0.50240916520E+01  0.11449280018E+02  0.65239868667E-01  0.12503270216E+02  0.00000000000E+00 0.  1.
<mgrwt>
<rscale>  0 0.55975529E+02</rscale>
<asrwt>0</asrwt>
<pdfrwt beam="1">  1        1 0.89160321E-02 0.92255381E+02</pdfrwt>
<pdfrwt beam="2">  1       -1 0.72941894E-02 0.92255381E+02</pdfrwt>
<totfact> 0.63575116E+04</totfact>
</mgrwt>
</event>
<event>
 6    1  0.1723639E-002  0.9089112E+02  0.7546771E-02  0.1418465E+00
         -1   -1    0    0    0  501 -0.00000000000E+00  0.00000000000E+00  0.81268487820E+01  0.81268487820E+01  0.00000000000E+00 0.  1.
          1   -1    0    0  501    0  0.00000000000E+00 -0.00000000000E+00 -0.34679262040E+03  0.34679262040E+03  0.00000000000E+00 0. -1.
         23    2    1    2    0    0 -0.35119693159E+00  0.12492188484E+02 -0.26383057202E+03  0.27904796457E+03  0.90027871733E+02 0.  0.
         13    1    3    3    0    0  0.25693755440E+02 -0.91567861883E+01 -0.22518550508E+02  0.35370904977E+02  0.00000000000E+00 0.  1.
        -13    1    3    3    0    0 -0.26044952371E+02  0.21648974672E+02 -0.24131202151E+03  0.24367705960E+03  0.00000000000E+00 0. -1.
         22    1    1    2    0    0  0.35119693159E+00 -0.12492188484E+02 -0.74835199600E+02  0.75871504609E+02  0.00000000000E+00 0.  1.
<mgrwt>
<rscale>  0 0.55346940E+02</rscale>
<asrwt>0</asrwt>
<pdfrwt beam="1">  1        1 0.53352688E-01 0.90891121E+02</pdfrwt>
<pdfrwt beam="2">  1       -1 0.12502850E-02 0.90891121E+02</pdfrwt>
<totfact> 0.85568371E+04</totfact>
</mgrwt>
</event>
<event>
 6    1  0.1723639E-002  0.9315986E+02  0.7546771E-02  0.1397560E+00
         -2   -1    0    0    0  501 -0.00000000000E+00  0.00000000000E+00  0.11243381294E+02  0.11243381294E+02  0.00000000000E+00 0.  1.
          2   -1    0    0  501    0  0.00000000000E+00 -0.00000000000E+00 -0.29641309810E+03  0.29641309810E+03  0.00000000000E+00 0. -1.
         23    2    1    2    0    0  0.97111781498E+01  0.12839934703E+02 -0.19560690305E+03  0.21665830078E+03  0.91758312262E+02 0.  0.
         13    1    3    3    0    0 -0.28628854625E+02  0.35686568476E+01 -0.16284825101E+03  0.16538409683E+03  0.00000000000E+00 0. -1.
        -13    1    3    3    0    0  0.38340032775E+02  0.92712778556E+01 -0.32758652043E+02  0.51274203942E+02  0.00000000000E+00 0.  1.
         22    1    1    2    0    0 -0.97111781498E+01 -0.12839934703E+02 -0.89562813756E+02  0.90998178620E+02  0.00000000000E+00 0. -1.
<mgrwt>
<rscale>  0 0.60064779E+02</rscale>
<asrwt>0</asrwt>
<pdfrwt beam="1">  1        2 0.45602011E-01 0.93159856E+02</pdfrwt>
<pdfrwt beam="2">  1       -2 0.17297511E-02 0.93159856E+02</pdfrwt>
<totfact> 0.91584204E+04</totfact>
</mgrwt>
</event>
<event>
 6    1  0.1723639E-002  0.1014794E+03  0.7546771E-02  0.1331487E+00
         -2   -1    0    0    0  501 -0.00000000000E+00  0.00000000000E+00  0.54017624245E+03  0.54017624245E+03  0.00000000000E+00 0.  1.
          2   -1    0    0  501    0  0.00000000000E+00 -0.00000000000E+00 -0.11619056777E+02  0.11619056777E+02  0.00000000000E+00 0. -1.
         23    2    1    2    0    0 -0.21992059307E+02 -0.30437254841E+02  0.47892612140E+03  0.48955929923E+03  0.94276192896E+02 0.  0.
         11    1    3    3    0    0 -0.19528278566E+02 -0.49111951722E+02  0.13293943891E+03  0.14306023865E+03  0.00000000000E+00 0. -1.
        -11    1    3    3    0    0 -0.24637807410E+01  0.18674696881E+02  0.34598668250E+03  0.34649906058E+03  0.00000000000E+00 0.  1.
         22    1    1    2    0    0  0.21992059307E+02  0.30437254841E+02  0.49631064271E+02  0.62235999996E+02  0.00000000000E+00 0. -1.
<mgrwt>
<rscale>  0 0.79147813E+02</rscale>
<asrwt>0</asrwt>
<pdfrwt beam="1">  1        2 0.17875476E-02 0.10147944E+03</pdfrwt>
<pdfrwt beam="2">  1       -2 0.83104018E-01 0.10147944E+03</pdfrwt>
<totfact> 0.76242484E+03</totfact>
</mgrwt>
</event>
<event>
 6    1  0.1723639E-002  0.9359041E+02  0.7546771E-02  0.1381725E+00
         -2   -1    0    0    0  501 -0.00000000000E+00  0.00000000000E+00  0.54429552256E+02  0.54429552256E+02  0.00000000000E+00 0.  1.
          2   -1    0    0  501    0  0.00000000000E+00 -0.00000000000E+00 -0.65649163474E+02  0.65649163474E+02  0.00000000000E+00 0. -1.
         23    2    1    2    0    0 -0.77242435758E+01 -0.18969169312E+02  0.53365540719E+01  0.93742430262E+02  0.91321799691E+02 0.  0.
         13    1    3    3    0    0  0.13967263385E+02 -0.22738592324E+02  0.42712750615E+02  0.50363747800E+02  0.00000000000E+00 0.  1.
        -13    1    3    3    0    0 -0.21691506961E+02  0.37694230121E+01 -0.37376196543E+02  0.43378682462E+02  0.00000000000E+00 0. -1.
         22    1    1    2    0    0  0.77242435758E+01  0.18969169312E+02 -0.16556165290E+02  0.26336285469E+02  0.00000000000E+00 0. -1.
<mgrwt>
<rscale>  0 0.64012404E+02</rscale>
<asrwt>0</asrwt>
<pdfrwt beam="1">  1        2 0.10099871E-01 0.93590408E+02</pdfrwt>
<pdfrwt beam="2">  1       -2 0.83737774E-02 0.93590408E+02</pdfrwt>
<totfact> 0.48200833E+04</totfact>
</mgrwt>
</event>
<event>
 6    1  0.1723639E-002  0.9579160E+02  0.7546771E-02  0.1414648E+00
          2   -1    0    0  501    0  0.00000000000E+00  0.00000000000E+00  0.51033385919E+03  0.51033385919E+03  0.00000000000E+00 0. -1.
         -2   -1    0    0    0  501 -0.00000000000E+00 -0.00000000000E+00 -0.56383385021E+01  0.56383385021E+01  0.00000000000E+00 0.  1.
         23    2    1    2    0    0  0.71472247046E+01 -0.87841980535E+01  0.44183773504E+03  0.45210243824E+03  0.95119848598E+02 0.  0.
         11    1    3    3    0    0  0.20460876764E+02 -0.28290561791E+02  0.41453489567E+03  0.41600262390E+03  0.00000000000E+00 0. -1.
        -11    1    3    3    0    0 -0.13313652060E+02  0.19506363737E+02  0.27302839374E+02  0.36099814339E+02  0.00000000000E+00 0.  1.
         22    1    1    2    0    0 -0.71472247046E+01  0.87841980535E+01  0.62857785645E+02  0.63869759453E+02  0.00000000000E+00 0. -1.
<mgrwt>
<rscale>  0 0.56169506E+02</rscale>
<asrwt>0</asrwt>
<pdfrwt beam="1">  1        2 0.78512865E-01 0.95791600E+02</pdfrwt>
<pdfrwt beam="2">  1       -2 0.86743710E-03 0.95791600E+02</pdfrwt>
<totfact> 0.13818917E+05</totfact>
</mgrwt>
</event>
<event>
 6    1  0.1723639E-002  0.9470051E+02  0.7546771E-02  0.1377210E+00
          2   -1    0    0  501    0  0.00000000000E+00  0.00000000000E+00  0.72185009249E+02  0.72185009249E+02  0.00000000000E+00 0.  1.
         -2   -1    0    0    0  501 -0.00000000000E+00 -0.00000000000E+00 -0.46588832534E+02  0.46588832534E+02  0.00000000000E+00 0. -1.
         23    2    1    2    0    0  0.21267410866E+02  0.78483991142E+00  0.21049850669E+02  0.97011768832E+02  0.92278211622E+02 0.  0.
         13    1    3    3    0    0 -0.10090250944E+02  0.38982451958E+02  0.25061219256E+02  0.47428993615E+02  0.00000000000E+00 0. -1.
        -13    1    3    3    0    0  0.31357661810E+02 -0.38197612047E+02 -0.40113685862E+01  0.49582775217E+02  0.00000000000E+00 0.  1.
         22    1    1    2    0    0 -0.21267410866E+02 -0.78483991142E+00  0.45463260460E+01  0.21762072951E+02  0.00000000000E+00 0.  1.
<mgrwt>
<rscale>  0 0.65202881E+02</rscale>
<asrwt>0</asrwt>
<pdfrwt beam="1">  1        2 0.11105386E-01 0.94700513E+02</pdfrwt>
<pdfrwt beam="2">  1       -2 0.71675127E-02 0.94700513E+02</pdfrwt>
<totfact> 0.54597328E+04</totfact>
</mgrwt>
</event>
<event>
 6    1  0.1723639E-002  0.9202935E+02  0.7546771E-02  0.1406753E+00
          1   -1    0    0  501    0  0.00000000000E+00  0.00000000000E+00  0.14172645738E+03  0.14172645738E+03  0.00000000000E+00 0. -1.
         -1   -1    0    0    0  501 -0.00000000000E+00 -0.00000000000E+00 -0.21715825401E+02  0.21715825401E+02  0.00000000000E+00 0.  1.
         23    2    1    2    0    0  0.14219409136E+02  0.25346000139E+01  0.83834781977E+02  0.12448964594E+03  0.90888863367E+02 0.  0.
         13    1    3    3    0    0 -0.22097289960E+01 -0.42905400598E+02  0.31589628467E+02  0.53325987374E+02  0.00000000000E+00 0.  1.
        -13    1    3    3    0    0  0.16429138132E+02  0.45440000612E+02  0.52245153509E+02  0.71163658567E+02  0.00000000000E+00 0. -1.
         22    1    1    2    0    0 -0.14219409136E+02 -0.25346000139E+01  0.36175850001E+02  0.38952636839E+02  0.00000000000E+00 0. -1.
<mgrwt>
<rscale>  0 0.57924616E+02</rscale>
<asrwt>0</asrwt>
<pdfrwt beam="1">  1        1 0.21804070E-01 0.92029350E+02</pdfrwt>
<pdfrwt beam="2">  1       -1 0.33408963E-02 0.92029350E+02</pdfrwt>
<totfact> 0.63198994E+04</totfact>
</mgrwt>
</event>
<event>
 6    1  0.1723639E-002  0.9246840E+02  0.7546771E-02  0.1404774E+00
         -2   -1    0    0    0  501 -0.00000000000E+00  0.00000000000E+00  0.31160738463E+03  0.31160738463E+03  0.00000000000E+00 0.  1.
          2   -1    0    0  501    0  0.00000000000E+00 -0.00000000000E+00 -0.13269523237E+02  0.13269523237E+02  0.00000000000E+00 0. -1.
         23    2    1    2    0    0  0.67813644773E+01 -0.13029113191E+02  0.29586971750E+03  0.30998273354E+03  0.91294362725E+02 0.  0.
         13    1    3    3    0    0  0.38156672321E+02 -0.34906835885E+02  0.20433527427E+03  0.21077790004E+03  0.00000000000E+00 0.  1.
        -13    1    3    3    0    0 -0.31375307844E+02  0.21877722695E+02  0.91534443222E+02  0.99204833494E+02  0.00000000000E+00 0. -1.
         22    1    1    2    0    0 -0.67813644773E+01  0.13029113191E+02  0.24681438987E+01  0.14894174332E+02  0.00000000000E+00 0. -1.
<mgrwt>
<rscale>  0 0.58376430E+02</rscale>
<asrwt>0</asrwt>
<pdfrwt beam="1">  1        2 0.20414654E-02 0.92468402E+02</pdfrwt>
<pdfrwt beam="2">  1       -2 0.47939592E-01 0.92468402E+02</pdfrwt>
<totfact> 0.19626961E+04</totfact>
</mgrwt>
</event>
<event>
 6    1  0.1723639E-002  0.9637797E+02  0.7546771E-02  0.1404111E+00
          2   -1    0    0  501    0  0.00000000000E+00  0.00000000000E+00  0.10334563103E+03  0.10334563103E+03  0.00000000000E+00 0. -1.
         -2   -1    0    0    0  501 -0.00000000000E+00 -0.00000000000E+00 -0.33036154829E+02  0.33036154829E+02  0.00000000000E+00 0.  1.
         23    2    1    2    0    0 -0.11805733427E+02 -0.56966238567E+01  0.41896008763E+02  0.10509038134E+03  0.95482384941E+02 0.  0.
         13    1    3    3    0    0 -0.35262481449E+02 -0.32642199791E+02 -0.24865310859E+01  0.48115887625E+02  0.00000000000E+00 0.  1.
        -13    1    3    3    0    0  0.23456748022E+02  0.26945575934E+02  0.44382539849E+02  0.56974493711E+02  0.00000000000E+00 0. -1.
         22    1    1    2    0    0  0.11805733427E+02  0.56966238567E+01  0.28413467433E+02  0.31291404518E+02  0.00000000000E+00 0. -1.
<mgrwt>
<rscale>  0 0.58528812E+02</rscale>
<asrwt>0</asrwt>
<pdfrwt beam="1">  1        2 0.15899328E-01 0.96377968E+02</pdfrwt>
<pdfrwt beam="2">  1       -2 0.50824854E-02 0.96377968E+02</pdfrwt>
<totfact> 0.60188074E+04</totfact>
</mgrwt>
</event>
<event>
 6    1  0.1723639E-002  0.9325900E+02  0.7546771E-02  0.1412293E+00
         -2   -1    0    0    0  501 -0.00000000000E+00  0.00000000000E+00  0.74480237473E+03  0.74480237473E+03  0.00000000000E+00 0.  1.
          2   -1    0    0  501    0  0.00000000000E+00 -0.00000000000E+00 -0.38188064243E+01  0.38188064243E+01  0.00000000000E+00 0. -1.
         23    2    1    2    0    0  0.64114804129E+01  0.10997003226E+02  0.67600144281E+03  0.68240397950E+03  0.92386142873E+02 0.  0.
         13    1    3    3    0    0  0.14752886018E+02 -0.26388306091E+02  0.54702293229E+03  0.54785771766E+03  0.00000000000E+00 0.  1.
        -13    1    3    3    0    0 -0.83414056049E+01  0.37385309316E+02  0.12897851052E+03  0.13454626184E+03  0.00000000000E+00 0. -1.
         22    1    1    2    0    0 -0.64114804129E+01 -0.10997003226E+02  0.64982125500E+02  0.66217201659E+02  0.00000000000E+00 0.  1.
<mgrwt>
<rscale>  0 0.56685401E+02</rscale>
<asrwt>0</asrwt>
<pdfrwt beam="1">  1        2 0.58750927E-03 0.93258997E+02</pdfrwt>
<pdfrwt beam="2">  1       -2 0.11458487E+00 0.93258997E+02</pdfrwt>
<totfact> 0.16679475E+04</totfact>
</mgrwt>
</event>
<event>
 6    1  0.1723639E-002  0.9685186E+02  0.7546771E-02  0.1335356E+00
         -2   -1    0    0    0  501 -0.00000000000E+00  0.00000000000E+00  0.10741100578E+03  0.10741100578E+03  0.00000000000E+00 0.  1.
          2   -1    0    0  501    0  0.00000000000E+00 -0.00000000000E+00 -0.99687267691E+02  0.99687267691E+02  0.00000000000E+00 0. -1.
         23    2    1    2    0    0 -0.29351472827E+02  0.27712596808E+02 -0.70011457048E+02  0.11950684956E+03  0.88038548352E+02 0.  0.
         13    1    3    3    0    0 -0.50809073219E+02  0.73334702026E+01 -0.95843957768E+01  0.52222622961E+02  0.00000000000E+00 0. -1.
        -13    1    3    3    0    0  0.21457600391E+02  0.20379126606E+02 -0.60427061271E+02  0.67284226603E+02  0.00000000000E+00 0.  1.
         22    1    1    2    0    0  0.29351472827E+02 -0.27712596808E+02  0.77735195135E+02  0.87591423905E+02  0.00000000000E+00 0.  1.
<mgrwt>
<rscale>  0 0.77819363E+02</rscale>
<asrwt>0</asrwt>
<pdfrwt beam="1">  1        2 0.15336503E-01 0.96851861E+02</pdfrwt>
<pdfrwt beam="2">  1       -2 0.16524770E-01 0.96851861E+02</pdfrwt>
<totfact> 0.10067677E+04</totfact>
</mgrwt>
</event>
<event>
 6    1  0.1723639E-002  0.9189816E+02  0.7546771E-02  0.1397462E+00
         -1   -1    0    0    0  501 -0.00000000000E+00  0.00000000000E+00  0.12891535009E+03  0.12891535009E+03  0.00000000000E+00 0.  1.
          1   -1    0    0  501    0  0.00000000000E+00 -0.00000000000E+00 -0.31637450592E+02  0.31637450592E+02  0.00000000000E+00 0. -1.
         23    2    1    2    0    0  0.16513823995E+02 -0.30727963518E+01  0.10707756330E+03  0.14110590193E+03  0.90350000209E+02 0.  0.
         11    1    3    3    0    0  0.27231476720E+02  0.24845946665E+02  0.10482290200E+03  0.11111577374E+03  0.00000000000E+00 0.  1.
        -11    1    3    3    0    0 -0.10717652725E+02 -0.27918743016E+02  0.22546613016E+01  0.29990128195E+02  0.00000000000E+00 0. -1.
         22    1    1    2    0    0 -0.16513823995E+02  0.30727963518E+01 -0.97996638022E+01  0.19446898750E+02  0.00000000000E+00 0.  1.
<mgrwt>
<rscale>  0 0.60088285E+02</rscale>
<asrwt>0</asrwt>
<pdfrwt beam="1">  1        1 0.48673002E-02 0.91898156E+02</pdfrwt>
<pdfrwt beam="2">  1       -1 0.19833131E-01 0.91898156E+02</pdfrwt>
<totfact> 0.30870694E+04</totfact>
</mgrwt>
</event>
<event>
 6    1  0.1723639E-002  0.9505991E+02  0.7546771E-02  0.1390284E+00
         -2   -1    0    0    0  501 -0.00000000000E+00  0.00000000000E+00  0.64962810663E+02  0.64962810663E+02  0.00000000000E+00 0.  1.
          2   -1    0    0  501    0  0.00000000000E+00 -0.00000000000E+00 -0.88739839532E+02  0.88739839532E+02  0.00000000000E+00 0. -1.
         23    2    1    2    0    0 -0.16546574859E+02 -0.39888247644E+01  0.28082676041E+02  0.99121253585E+02  0.93523720821E+02 0.  0.
         13    1    3    3    0    0 -0.15430535042E+02  0.43458330279E+02  0.22565697646E+02  0.51341392585E+02  0.00000000000E+00 0.  1.
        -13    1    3    3    0    0 -0.11160398167E+01 -0.47447155043E+02  0.55169783949E+01  0.47779861000E+02  0.00000000000E+00 0. -1.
         22    1    1    2    0    0  0.16546574859E+02  0.39888247644E+01 -0.51859704910E+02  0.54581396610E+02  0.00000000000E+00 0. -1.
<mgrwt>
<rscale>  0 0.61836027E+02</rscale>
<asrwt>0</asrwt>
<pdfrwt beam="1">  1        2 0.13652283E-01 0.95059909E+02</pdfrwt>
<pdfrwt beam="2">  1       -2 0.99942786E-02 0.95059909E+02</pdfrwt>
<totfact> 0.25655452E+04</totfact>
</mgrwt>
</event>
<event>
 6    1  0.1723639E-002  0.9439572E+02  0.7546771E-02  0.1401596E+00
          2   -1    0    0  501    0  0.00000000000E+00  0.00000000000E+00  0.22937479288E+03  0.22937479288E+03  0.00000000000E+00 0. -1.
         -2   -1    0    0    0  501 -0.00000000000E+00 -0.00000000000E+00 -0.13811243613E+02  0.13811243613E+02  0.00000000000E+00 0.  1.
         23    2    1    2    0    0  0.14406051072E+02  0.17830593977E+01  0.16011804975E+03  0.18587184083E+03  0.93272920763E+02 0.  0.
         11    1    3    3    0    0  0.51478442936E+02 -0.10845127675E+02  0.69609676240E+02  0.87253389090E+02  0.00000000000E+00 0. -1.
        -11    1    3    3    0    0 -0.37072391864E+02  0.12628187073E+02  0.90508373510E+02  0.98618451735E+02  0.00000000000E+00 0.  1.
         22    1    1    2    0    0 -0.14406051072E+02 -0.17830593977E+01  0.55445499518E+02  0.57314195669E+02  0.00000000000E+00 0. -1.
<mgrwt>
<rscale>  0 0.59112019E+02</rscale>
<asrwt>0</asrwt>
<pdfrwt beam="1">  1        2 0.35288427E-01 0.94395717E+02</pdfrwt>
<pdfrwt beam="2">  1       -2 0.21248069E-02 0.94395717E+02</pdfrwt>
<totfact> 0.89399251E+04</totfact>
</mgrwt>
</event>
<event>
 6    1  0.1723639E-002  0.9431412E+02  0.7546771E-02  0.1377088E+00
          2   -1    0    0  501    0  0.00000000000E+00  0.00000000000E+00  0.16082711306E+03  0.16082711306E+03  0.00000000000E+00 0. -1.
         -2   -1    0    0    0  501 -0.00000000000E+00 -0.00000000000E+00 -0.21116370618E+02  0.21116370618E+02  0.00000000000E+00 0.  1.
         23    2    1    2    0    0  0.21008666338E+02  0.49654356140E+01  0.10570202118E+03  0.14166181621E+03  0.91810311393E+02 0.  0.
         11    1    3    3    0    0 -0.21015353640E+02  0.36000495633E+02  0.40590651538E+02  0.58183174257E+02  0.00000000000E+00 0.  1.
        -11    1    3    3    0    0  0.42024019977E+02 -0.31035060019E+02  0.65111369638E+02  0.83478641949E+02  0.00000000000E+00 0. -1.
         22    1    1    2    0    0 -0.21008666338E+02 -0.49654356140E+01  0.34008721269E+02  0.40281667474E+02  0.00000000000E+00 0.  1.
<mgrwt>
<rscale>  0 0.65235359E+02</rscale>
<asrwt>0</asrwt>
<pdfrwt beam="1">  1        2 0.24742632E-01 0.94314118E+02</pdfrwt>
<pdfrwt beam="2">  1       -2 0.32486725E-02 0.94314118E+02</pdfrwt>
<totfact> 0.70709398E+04</totfact>
</mgrwt>
</event>
<event>
 6    1  0.1723639E-002  0.1000403E+03  0.7546771E-02  0.1376864E+00
          2   -1    0    0  501    0  0.00000000000E+00  0.00000000000E+00  0.15698506551E+03  0.15698506551E+03  0.00000000000E+00 0. -1.
         -2   -1    0    0    0  501 -0.00000000000E+00 -0.00000000000E+00 -0.22428194963E+02  0.22428194963E+02  0.00000000000E+00 0.  1.
         23    2    1    2    0    0  0.15468677181E+02  0.95043423199E+01  0.11933930207E+03  0.15572387705E+03  0.98379085013E+02 0.  0.
         11    1    3    3    0    0 -0.35350476195E+02 -0.19661425249E+02  0.38176579417E+02  0.55620850640E+02  0.00000000000E+00 0. -1.
        -11    1    3    3    0    0  0.50819153376E+02  0.29165767569E+02  0.81162722649E+02  0.10010302641E+03  0.00000000000E+00 0.  1.
         22    1    1    2    0    0 -0.15468677181E+02 -0.95043423199E+01  0.15217568483E+02  0.23689383428E+02  0.00000000000E+00 0.  1.
<mgrwt>
<rscale>  0 0.65295255E+02</rscale>
<asrwt>0</asrwt>
<pdfrwt beam="1">  1        2 0.24151548E-01 0.10004028E+03</pdfrwt>
<pdfrwt beam="2">  1       -2 0.34504916E-02 0.10004028E+03</pdfrwt>
<totfact> 0.67030671E+04</totfact>
</mgrwt>
</event>
<event>
 6    1  0.1723639E-002  0.9025459E+02  0.7546771E-02  0.1422607E+00
         -3   -1    0    0    0  501 -0.00000000000E+00  0.00000000000E+00  0.18955346620E+03  0.18955346620E+03  0.00000000000E+00 0.  1.
          3   -1    0    0  501    0  0.00000000000E+00 -0.00000000000E+00 -0.17595778138E+02  0.17595778138E+02  0.00000000000E+00 0. -1.
         23    2    1    2    0    0 -0.87473168207E+01 -0.81801611223E+01  0.17299983231E+03  0.19512773644E+03  0.89456475221E+02 0.  0.
         13    1    3    3    0    0 -0.28295421852E+02 -0.39968866481E+02  0.68814398324E+02  0.84460420330E+02  0.00000000000E+00 0. -1.
        -13    1    3    3    0    0  0.19548105032E+02  0.31788705359E+02  0.10418543399E+03  0.11066731611E+03  0.00000000000E+00 0.  1.
         22    1    1    2    0    0  0.87473168207E+01  0.81801611223E+01 -0.10421442517E+01  0.12021507900E+02  0.00000000000E+00 0.  1.
<mgrwt>
<rscale>  0 0.54473114E+02</rscale>
<asrwt>0</asrwt>
<pdfrwt beam="1">  1        3 0.27070429E-02 0.90254593E+02</pdfrwt>
<pdfrwt beam="2">  1       -3 0.29162070E-01 0.90254593E+02</pdfrwt>
<totfact> 0.13881957E+04</totfact>
</mgrwt>
</event>
<event>
 6    1  0.1723639E-002  0.9122368E+02  0.7546771E-02  0.1423244E+00
          4   -1    0    0  501    0  0.00000000000E+00  0.00000000000E+00  0.42896608340E+02  0.42896608340E+02  0.00000000000E+00 0. -1.
         -4   -1    0    0    0  501 -0.00000000000E+00 -0.00000000000E+00 -0.64692521379E+02  0.64692521379E+02  0.00000000000E+00 0.  1.
         23    2    1    2    0    0  0.85370097714E+01 -0.76842850790E+01 -0.26772749612E+02  0.95071235516E+02  0.90497684654E+02 0.  0.
         11    1    3    3    0    0  0.22613920592E+02 -0.13598836477E+02  0.27843276141E+02  0.38360993005E+02  0.00000000000E+00 0. -1.
        -11    1    3    3    0    0 -0.14076910820E+02  0.59145513980E+01 -0.54616025753E+02  0.56710242510E+02  0.00000000000E+00 0.  1.
         22    1    1    2    0    0 -0.85370097714E+01  0.76842850790E+01  0.49768365730E+01  0.12517894203E+02  0.00000000000E+00 0. -1.
<mgrwt>
<rscale>  0 0.54340437E+02</rscale>
<asrwt>0</asrwt>
<pdfrwt beam="1">  1        4 0.65994782E-02 0.91223679E+02</pdfrwt>
<pdfrwt beam="2">  1       -4 0.99526956E-02 0.91223679E+02</pdfrwt>
<totfact> 0.16756061E+04</totfact>
</mgrwt>
</event>
<event>
 6    1  0.1723639E-002  0.9244576E+02  0.7546771E-02  0.1375180E+00
          1   -1    0    0  501    0  0.00000000000E+00  0.00000000000E+00  0.10433191553E+02  0.10433191553E+02  0.00000000000E+00 0. -1.
         -1   -1    0    0    0  501 -0.00000000000E+00 -0.00000000000E+00 -0.51696428172E+03  0.51696428172E+03  0.00000000000E+00 0.  1.
         23    2    1    2    0    0 -0.11837253548E+02 -0.20476528472E+02 -0.48974633360E+03  0.49839511401E+03  0.89368952121E+02 0.  0.
         11    1    3    3    0    0  0.90742766016E+01  0.11478891259E+02 -0.40698050440E+03  0.40724346330E+03  0.00000000000E+00 0.  1.
        -11    1    3    3    0    0 -0.20911530150E+02 -0.31955419731E+02 -0.82765829198E+02  0.91151650705E+02  0.00000000000E+00 0. -1.
         22    1    1    2    0    0  0.11837253548E+02  0.20476528472E+02 -0.16784756567E+02  0.29002359263E+02  0.00000000000E+00 0.  1.
<mgrwt>
<rscale>  0 0.65747827E+02</rscale>
<asrwt>0</asrwt>
<pdfrwt beam="1">  1        1 0.16051067E-02 0.92445759E+02</pdfrwt>
<pdfrwt beam="2">  1       -1 0.79532950E-01 0.92445759E+02</pdfrwt>
<totfact> 0.12314415E+04</totfact>
</mgrwt>
</event>
<event>
 6    1  0.1723639E-002  0.8459899E+02  0.7546771E-02  0.1416247E+00
          4   -1    0    0  501    0  0.00000000000E+00  0.00000000000E+00  0.47516056592E+02  0.47516056592E+02  0.00000000000E+00 0. -1.
         -4   -1    0    0    0  501 -0.00000000000E+00 -0.00000000000E+00 -0.56242110996E+02  0.56242110996E+02  0.00000000000E+00 0.  1.
         23    2    1    2    0    0 -0.99161024707E+01 -0.12605232290E+02  0.17229194252E+01  0.84616536953E+02  0.83064847591E+02 0.  0.
         13    1    3    3    0    0  0.84901170775E+01 -0.45400691704E+02 -0.48399153533E+01  0.46440603741E+02  0.00000000000E+00 0. -1.
        -13    1    3    3    0    0 -0.18406219548E+02  0.32795459415E+02  0.65628347786E+01  0.38175933212E+02  0.00000000000E+00 0.  1.
         22    1    1    2    0    0  0.99161024707E+01  0.12605232290E+02 -0.10448973830E+02  0.19141630635E+02  0.00000000000E+00 0.  1.
<mgrwt>
<rscale>  0 0.55822875E+02</rscale>
<asrwt>0</asrwt>
<pdfrwt beam="1">  1        4 0.73101626E-02 0.84598995E+02</pdfrwt>
<pdfrwt beam="2">  1       -4 0.86526324E-02 0.84598995E+02</pdfrwt>
<totfact> 0.17473523E+04</totfact>
</mgrwt>
</event>
<event>
 6    1  0.1723639E-002  0.7112965E+02  0.7546771E-02  0.1474085E+00
         -2   -1    0    0    0  501 -0.00000000000E+00  0.00000000000E+00  0.43992896362E+02  0.43992896362E+02  0.00000000000E+00 0.  1.
          2   -1    0    0  501    0  0.00000000000E+00 -0.00000000000E+00 -0.38962491108E+02  0.38962491108E+02  0.00000000000E+00 0. -1.
         23    2    1    2    0    0  0.41831226809E+01  0.10643850278E+02  0.21512155112E+01  0.71162177658E+02  0.70204257255E+02 0.  0.
         11    1    3    3    0    0  0.34850043435E+02  0.70886577252E+01 -0.11541465969E+02  0.37389571173E+02  0.00000000000E+00 0. -1.
        -11    1    3    3    0    0 -0.30666920754E+02  0.35551925532E+01  0.13692681481E+02  0.33772606485E+02  0.00000000000E+00 0.  1.
         22    1    1    2    0    0 -0.41831226809E+01 -0.10643850278E+02  0.28791897427E+01  0.11793209813E+02  0.00000000000E+00 0.  1.
<mgrwt>
<rscale>  0 0.45041191E+02</rscale>
<asrwt>0</asrwt>
<pdfrwt beam="1">  1        2 0.59942294E-02 0.71129655E+02</pdfrwt>
<pdfrwt beam="2">  1       -2 0.67681380E-02 0.71129655E+02</pdfrwt>
<totfact> 0.12163089E+05</totfact>
</mgrwt>
</event>
<event>
 6    1  0.1723639E-002  0.8776806E+02  0.7546771E-02  0.1417800E+00
         -2   -1    0    0    0  501 -0.00000000000E+00  0.00000000000E+00  0.65080001673E+03  0.65080001673E+03  0.00000000000E+00 0.  1.
          2   -1    0    0  501    0  0.00000000000E+00 -0.00000000000E+00 -0.12250409241E+02  0.12250409241E+02  0.00000000000E+00 0. -1.
         23    2    1    2    0    0  0.70646013055E+01  0.12112783822E+02  0.64251200768E+03  0.64847892163E+03  0.86640658261E+02 0.  0.
         11    1    3    3    0    0  0.30387082279E+02  0.20731657624E+02  0.58055071773E+03  0.58171497510E+03  0.00000000000E+00 0.  1.
        -11    1    3    3    0    0 -0.23322480973E+02 -0.86188738018E+01  0.61961289947E+02  0.66763946530E+02  0.00000000000E+00 0. -1.
         22    1    1    2    0    0 -0.70646013055E+01 -0.12112783822E+02 -0.39624001882E+01  0.14571504341E+02  0.00000000000E+00 0. -1.
<mgrwt>
<rscale>  0 0.55489149E+02</rscale>
<asrwt>0</asrwt>
<pdfrwt beam="1">  1        2 0.18846789E-02 0.87768057E+02</pdfrwt>
<pdfrwt beam="2">  1       -2 0.10012305E+00 0.87768057E+02</pdfrwt>
<totfact> 0.46052859E+03</totfact>
</mgrwt>
</event>
<event>
 6    1  0.1723639E-002  0.9269471E+02  0.7546771E-02  0.1382754E+00
         -2   -1    0    0    0  501 -0.00000000000E+00  0.00000000000E+00  0.22408669309E+02  0.22408669309E+02  0.00000000000E+00 0. -1.
          2   -1    0    0  501    0  0.00000000000E+00 -0.00000000000E+00 -0.18428880924E+03  0.18428880924E+03  0.00000000000E+00 0.  1.
         23    2    1    2    0    0 -0.20730233736E+02 -0.22142166304E+00 -0.80666668426E+02  0.12287970256E+03  0.90346656205E+02 0.  0.
         11    1    3    3    0    0  0.27301900269E+02  0.25096067940E+02 -0.43082672227E+02  0.56844727377E+02  0.00000000000E+00 0. -1.
        -11    1    3    3    0    0 -0.48032134005E+02 -0.25317489603E+02 -0.37583996199E+02  0.66034975181E+02  0.00000000000E+00 0.  1.
         22    1    1    2    0    0  0.20730233736E+02  0.22142166304E+00 -0.81213471508E+02  0.83817775994E+02  0.00000000000E+00 0.  1.
<mgrwt>
<rscale>  0 0.63745344E+02</rscale>
<asrwt>0</asrwt>
<pdfrwt beam="1">  1        2 0.28352124E-01 0.92694713E+02</pdfrwt>
<pdfrwt beam="2">  1       -2 0.34474876E-02 0.92694713E+02</pdfrwt>
<totfact> 0.55803924E+04</totfact>
</mgrwt>
</event>
<event>
 6    1  0.1723639E-002  0.9173037E+02  0.7546771E-02  0.1402776E+00
         -2   -1    0    0    0  501 -0.00000000000E+00  0.00000000000E+00  0.37358120622E+02  0.37358120622E+02  0.00000000000E+00 0.  1.
          2   -1    0    0  501    0  0.00000000000E+00 -0.00000000000E+00 -0.83699991172E+02  0.83699991172E+02  0.00000000000E+00 0. -1.
         23    2    1    2    0    0  0.57297282332E+01  0.14430826201E+02 -0.25764260878E+02  0.95279893270E+02  0.90406760767E+02 0.  0.
         11    1    3    3    0    0  0.38506693531E+02  0.31324835799E+02 -0.30255683765E+02  0.58132754834E+02  0.00000000000E+00 0. -1.
        -11    1    3    3    0    0 -0.32776965297E+02 -0.16894009598E+02  0.44914228870E+01  0.37147138436E+02  0.00000000000E+00 0.  1.
         22    1    1    2    0    0 -0.57297282332E+01 -0.14430826201E+02 -0.20577609672E+02  0.25778218525E+02  0.00000000000E+00 0. -1.
<mgrwt>
<rscale>  0 0.58837563E+02</rscale>
<asrwt>0</asrwt>
<pdfrwt beam="1">  1        2 0.12876921E-01 0.91730371E+02</pdfrwt>
<pdfrwt beam="2">  1       -2 0.57474033E-02 0.91730371E+02</pdfrwt>
<totfact> 0.63588429E+04</totfact>
</mgrwt>
</event>
<event>
 6    1  0.1723639E-002  0.1111966E+03  0.7546771E-02  0.1286768E+00
         -2   -1    0    0    0  501 -0.00000000000E+00  0.00000000000E+00  0.15963530809E+02  0.15963530809E+02  0.00000000000E+00 0.  1.
          2   -1    0    0  501    0  0.00000000000E+00 -0.00000000000E+00 -0.62053364879E+03  0.62053364879E+03  0.00000000000E+00 0. -1.
         23    2    1    2    0    0 -0.64160350171E+02  0.49128313565E+01 -0.51085491591E+03  0.52281681390E+03  0.90686213620E+02 0.  0.
         11    1    3    3    0    0 -0.43360053618E+02  0.47181133200E+02 -0.29126004903E+03  0.29822570268E+03  0.00000000000E+00 0. -1.
        -11    1    3    3    0    0 -0.20800296553E+02 -0.42268301844E+02 -0.21959486688E+03  0.22459111122E+03  0.00000000000E+00 0.  1.
         22    1    1    2    0    0  0.64160350171E+02 -0.49128313565E+01 -0.93715202068E+02  0.11368036570E+03  0.00000000000E+00 0.  1.
<mgrwt>
<rscale>  0 0.96984553E+02</rscale>
<asrwt>0</asrwt>
<pdfrwt beam="1">  1        2 0.95466702E-01 0.11119656E+03</pdfrwt>
<pdfrwt beam="2">  1       -2 0.24559282E-02 0.11119656E+03</pdfrwt>
<totfact> 0.25534744E+04</totfact>
</mgrwt>
</event>
<event>
 6    1  0.1723639E-002  0.9987142E+02  0.7546771E-02  0.1330515E+00
          2   -1    0    0  501    0  0.00000000000E+00  0.00000000000E+00  0.15831283339E+03  0.15831283339E+03  0.00000000000E+00 0. -1.
         -2   -1    0    0    0  501 -0.00000000000E+00 -0.00000000000E+00 -0.34513310208E+02  0.34513310208E+02  0.00000000000E+00 0.  1.
         23    2    1    2    0    0 -0.21298165781E+01 -0.40016152072E+02  0.57176931505E+02  0.11508041531E+03  0.91479352569E+02 0.  0.
         11    1    3    3    0    0  0.30174035655E+01 -0.63267026112E+02  0.12656404738E+02  0.64591066706E+02  0.00000000000E+00 0.  1.
        -11    1    3    3    0    0 -0.51472201436E+01  0.23250874040E+02  0.44520526767E+02  0.50489348604E+02  0.00000000000E+00 0. -1.
         22    1    1    2    0    0  0.21298165781E+01  0.40016152072E+02  0.66622591678E+02  0.77745728289E+02  0.00000000000E+00 0. -1.
<mgrwt>
<rscale>  0 0.79486489E+02</rscale>
<asrwt>0</asrwt>
<pdfrwt beam="1">  1        2 0.24355820E-01 0.99871420E+02</pdfrwt>
<pdfrwt beam="2">  1       -2 0.53097401E-02 0.99871420E+02</pdfrwt>
<totfact> 0.35101757E+04</totfact>
</mgrwt>
</event>
<event>
 6    1  0.1723639E-002  0.9544840E+02  0.7546771E-02  0.1376365E+00
          2   -1    0    0  501    0  0.00000000000E+00  0.00000000000E+00  0.62562830551E+03  0.62562830551E+03  0.00000000000E+00 0.  1.
         -2   -1    0    0    0  501 -0.00000000000E+00 -0.00000000000E+00 -0.59353504464E+01  0.59353504464E+01  0.00000000000E+00 0. -1.
         23    2    1    2    0    0  0.13100744743E+02  0.16508630091E+02  0.56393825821E+03  0.57195870145E+03  0.93092602890E+02 0.  0.
         13    1    3    3    0    0  0.11539046790E+02  0.11179565355E+02  0.56585574542E+03  0.56608378965E+03  0.00000000000E+00 0.  1.
        -13    1    3    3    0    0  0.15616979524E+01  0.53290647356E+01 -0.19174872097E+01  0.58749117993E+01  0.00000000000E+00 0. -1.
         22    1    1    2    0    0 -0.13100744743E+02 -0.16508630091E+02  0.55754696851E+02  0.59604954503E+02  0.00000000000E+00 0.  1.
<mgrwt>
<rscale>  0 0.65428875E+02</rscale>
<asrwt>0</asrwt>
<pdfrwt beam="1">  1        2 0.96250456E-01 0.95448400E+02</pdfrwt>
<pdfrwt beam="2">  1       -2 0.91313133E-03 0.95448400E+02</pdfrwt>
<totfact> 0.10249960E+05</totfact>
</mgrwt>
</event>
<event>
 6    1  0.1723639E-002  0.8977212E+02  0.7546771E-02  0.1429410E+00
          2   -1    0    0  501    0  0.00000000000E+00  0.00000000000E+00  0.73358693413E+01  0.73358693413E+01  0.00000000000E+00 0. -1.
         -2   -1    0    0    0  501 -0.00000000000E+00 -0.00000000000E+00 -0.44442684321E+03  0.44442684321E+03  0.00000000000E+00 0.  1.
         23    2    1    2    0    0  0.18371677100E+01  0.10816316297E+02 -0.42856964038E+03  0.43787095212E+03  0.89099192896E+02 0.  0.
         13    1    3    3    0    0 -0.35799516249E+02 -0.13746242317E+02 -0.28113933117E+03  0.28374264409E+03  0.00000000000E+00 0.  1.
        -13    1    3    3    0    0  0.37636683959E+02  0.24562558614E+02 -0.14743030920E+03  0.15412830803E+03  0.00000000000E+00 0. -1.
         22    1    1    2    0    0 -0.18371677100E+01 -0.10816316297E+02 -0.85213334954E+01  0.13891760434E+02  0.00000000000E+00 0.  1.
<mgrwt>
<rscale>  0 0.53078660E+02</rscale>
<asrwt>0</asrwt>
<pdfrwt beam="1">  1        2 0.11285952E-02 0.89772123E+02</pdfrwt>
<pdfrwt beam="2">  1       -2 0.68373363E-01 0.89772123E+02</pdfrwt>
<totfact> 0.21346597E+04</totfact>
</mgrwt>
</event>
<event>
 6    1  0.1723639E-002  0.9168687E+02  0.7546771E-02  0.1429066E+00
         -2   -1    0    0    0  501 -0.00000000000E+00  0.00000000000E+00  0.63271554123E+02  0.63271554123E+02  0.00000000000E+00 0.  1.
          2   -1    0    0  501    0  0.00000000000E+00 -0.00000000000E+00 -0.87106791668E+02  0.87106791668E+02  0.00000000000E+00 0. -1.
         23    2    1    2    0    0  0.21522227898E+01  0.10125812316E+02  0.29291729583E+02  0.96252208166E+02  0.91100592847E+02 0.  0.
         11    1    3    3    0    0  0.14196407447E+02  0.48986671559E+02  0.16362170048E+02  0.53562604339E+02  0.00000000000E+00 0.  1.
        -11    1    3    3    0    0 -0.12044184657E+02 -0.38860859244E+02  0.12929559535E+02  0.42689603828E+02  0.00000000000E+00 0. -1.
         22    1    1    2    0    0 -0.21522227898E+01 -0.10125812316E+02 -0.53126967128E+02  0.54126137625E+02  0.00000000000E+00 0. -1.
<mgrwt>
<rscale>  0 0.53147953E+02</rscale>
<asrwt>0</asrwt>
<pdfrwt beam="1">  1        2 0.13401045E-01 0.91686870E+02</pdfrwt>
<pdfrwt beam="2">  1       -2 0.97340853E-02 0.91686870E+02</pdfrwt>
<totfact> 0.27201521E+04</totfact>
</mgrwt>
</event>
<event>
 6    1  0.1723639E-002  0.1014601E+03  0.7546771E-02  0.1318524E+00
          2   -1    0    0  501    0  0.00000000000E+00  0.00000000000E+00  0.40242081846E+02  0.40242081846E+02  0.00000000000E+00 0.  1.
         -2   -1    0    0    0  501 -0.00000000000E+00 -0.00000000000E+00 -0.21847043617E+03  0.21847043617E+03  0.00000000000E+00 0. -1.
         23    2    1    2    0    0 -0.41045379383E+02 -0.23469287719E+02 -0.18495385844E+03  0.21095518308E+03  0.89769866219E+02 0.  0.
         11    1    3    3    0    0 -0.34167659938E+02 -0.42123677113E+02 -0.47581269842E+02  0.72151302129E+02  0.00000000000E+00 0.  1.
        -11    1    3    3    0    0 -0.68777194444E+01  0.18654389394E+02 -0.13737258860E+03  0.13880388095E+03  0.00000000000E+00 0. -1.
         22    1    1    2    0    0  0.41045379383E+02  0.23469287719E+02  0.67255041172E+01  0.47757334937E+02  0.00000000000E+00 0.  1.
<mgrwt>
<rscale>  0 0.83828976E+02</rscale>
<asrwt>0</asrwt>
<pdfrwt beam="1">  1        2 0.61910897E-02 0.10146014E+03</pdfrwt>
<pdfrwt beam="2">  1       -2 0.33610836E-01 0.10146014E+03</pdfrwt>
<totfact> 0.89786572E+03</totfact>
</mgrwt>
</event>
<event>
 6    1  0.1723639E-002  0.9307460E+02  0.7546771E-02  0.1387897E+00
          2   -1    0    0  501    0  0.00000000000E+00  0.00000000000E+00  0.69264748523E+02  0.69264748523E+02  0.00000000000E+00 0. -1.
         -2   -1    0    0    0  501 -0.00000000000E+00 -0.00000000000E+00 -0.45322182404E+02  0.45322182404E+02  0.00000000000E+00 0.  1.
         23    2    1    2    0    0  0.17581626514E+02  0.67795779289E+01  0.17749995238E+02  0.94752007134E+02  0.91147157153E+02 0.  0.
         13    1    3    3    0    0 -0.12130454719E+02 -0.20240485644E+01 -0.33040033323E+02  0.35254623899E+02  0.00000000000E+00 0.  1.
        -13    1    3    3    0    0  0.29712081233E+02  0.88036264933E+01  0.50790028561E+02  0.59497383235E+02  0.00000000000E+00 0. -1.
         22    1    1    2    0    0 -0.17581626514E+02 -0.67795779289E+01  0.61925708815E+01  0.19834923793E+02  0.00000000000E+00 0.  1.
<mgrwt>
<rscale>  0 0.62432910E+02</rscale>
<asrwt>0</asrwt>
<pdfrwt beam="1">  1        2 0.10656115E-01 0.93074597E+02</pdfrwt>
<pdfrwt beam="2">  1       -2 0.69726434E-02 0.93074597E+02</pdfrwt>
<totfact> 0.59681344E+04</totfact>
</mgrwt>
</event>
<event>
 6    1  0.1723639E-002  0.1006382E+03  0.7546771E-02  0.1326338E+00
         -2   -1    0    0    0  501 -0.00000000000E+00  0.00000000000E+00  0.16525726205E+02  0.16525726205E+02  0.00000000000E+00 0.  1.
          2   -1    0    0  501    0  0.00000000000E+00 -0.00000000000E+00 -0.40389156556E+03  0.40389156556E+03  0.00000000000E+00 0. -1.
         23    2    1    2    0    0  0.23123256194E+02  0.35250050117E+02 -0.15885647164E+03  0.18805167007E+03  0.91382717322E+02 0.  0.
         13    1    3    3    0    0 -0.74709129535E+01 -0.22202272957E+02 -0.91229747919E+02  0.94189290103E+02  0.00000000000E+00 0. -1.
        -13    1    3    3    0    0  0.30594169147E+02  0.57452323073E+02 -0.67626723721E+02  0.93862379969E+02  0.00000000000E+00 0.  1.
         22    1    1    2    0    0 -0.23123256194E+02 -0.35250050117E+02 -0.22850936771E+03  0.23236562169E+03  0.00000000000E+00 0. -1.
<mgrwt>
<rscale>  0 0.80963788E+02</rscale>
<asrwt>0</asrwt>
<pdfrwt beam="1">  1        2 0.62137161E-01 0.10063822E+03</pdfrwt>
<pdfrwt beam="2">  1       -2 0.25424195E-02 0.10063822E+03</pdfrwt>
<totfact> 0.38382806E+04</totfact>
</mgrwt>
</event>
<event>
 6    1  0.1723639E-002  0.9767529E+02  0.7546771E-02  0.1408262E+00
         -1   -1    0    0    0  501 -0.00000000000E+00  0.00000000000E+00  0.19050234711E+03  0.19050234711E+03  0.00000000000E+00 0.  1.
          1   -1    0    0  501    0  0.00000000000E+00 -0.00000000000E+00 -0.15774311178E+02  0.15774311178E+02  0.00000000000E+00 0. -1.
         23    2    1    2    0    0 -0.61107584765E+01 -0.10093109904E+02  0.15918236902E+03  0.18676051121E+03  0.96960041807E+02 0.  0.
         11    1    3    3    0    0 -0.61669056049E+01 -0.43450451962E+02  0.29555154966E+02  0.52910109483E+02  0.00000000000E+00 0. -1.
        -11    1    3    3    0    0  0.56147128324E-01  0.33357342058E+02  0.12962721405E+03  0.13385040173E+03  0.00000000000E+00 0.  1.
         22    1    1    2    0    0  0.61107584765E+01  0.10093109904E+02  0.15545666914E+02  0.19516147071E+02  0.00000000000E+00 0. -1.
<mgrwt>
<rscale>  0 0.57583519E+02</rscale>
<asrwt>0</asrwt>
<pdfrwt beam="1">  1        1 0.24268172E-02 0.97675288E+02</pdfrwt>
<pdfrwt beam="2">  1       -1 0.29308052E-01 0.97675288E+02</pdfrwt>
<totfact> 0.42751694E+04</totfact>
</mgrwt>
</event>
<event>
 6    1  0.1723639E-002  0.9724968E+02  0.7546771E-02  0.1392704E+00
         -2   -1    0    0    0  501 -0.00000000000E+00  0.00000000000E+00  0.20445728015E+02  0.20445728015E+02  0.00000000000E+00 0.  1.
          2   -1    0    0  501    0  0.00000000000E+00 -0.00000000000E+00 -0.19024576621E+03  0.19024576621E+03  0.00000000000E+00 0. -1.
         23    2    1    2    0    0 -0.15159936768E+02  0.20025643787E+01 -0.10098516968E+03  0.14019808974E+03  0.96039918394E+02 0.  0.
         11    1    3    3    0    0 -0.41325245146E+01  0.41133208638E+02 -0.13101724689E+02  0.43366736119E+02  0.00000000000E+00 0.  1.
        -11    1    3    3    0    0 -0.11027412253E+02 -0.39130644260E+02 -0.87883444988E+02  0.96831353622E+02  0.00000000000E+00 0. -1.
         22    1    1    2    0    0  0.15159936768E+02 -0.20025643787E+01 -0.68814868516E+02  0.70493404484E+02  0.00000000000E+00 0.  1.
<mgrwt>
<rscale>  0 0.61239209E+02</rscale>
<asrwt>0</asrwt>
<pdfrwt beam="1">  1        2 0.29268579E-01 0.97249678E+02</pdfrwt>
<pdfrwt beam="2">  1       -2 0.31454967E-02 0.97249678E+02</pdfrwt>
<totfact> 0.62057643E+04</totfact>
</mgrwt>
</event>
<event>
 6    1  0.1723639E-002  0.9991342E+02  0.7546771E-02  0.1337910E+00
         -1   -1    0    0    0  501 -0.00000000000E+00  0.00000000000E+00  0.39026300932E+03  0.39026300932E+03  0.00000000000E+00 0.  1.
          1   -1    0    0  501    0  0.00000000000E+00 -0.00000000000E+00 -0.21355683913E+02  0.21355683913E+02  0.00000000000E+00 0. -1.
         23    2    1    2    0    0 -0.78643483437E+01 -0.34278966520E+02  0.36231216749E+03  0.37583613284E+03  0.93518963386E+02 0.  0.
         11    1    3    3    0    0  0.28749493258E+02 -0.49762674924E+02  0.25503801973E+03  0.26143306732E+03  0.00000000000E+00 0.  1.
        -11    1    3    3    0    0 -0.36613841601E+02  0.15483708404E+02  0.10727414776E+03  0.11440306552E+03  0.00000000000E+00 0. -1.
         22    1    1    2    0    0  0.78643483437E+01  0.34278966520E+02  0.65951579150E+01  0.35782560396E+02  0.00000000000E+00 0. -1.
<mgrwt>
<rscale>  0 0.76959016E+02</rscale>
<asrwt>0</asrwt>
<pdfrwt beam="1">  1        1 0.32854901E-02 0.99913423E+02</pdfrwt>
<pdfrwt beam="2">  1       -1 0.60040458E-01 0.99913423E+02</pdfrwt>
<totfact> 0.80079253E+03</totfact>
</mgrwt>
</event>
<event>
 6    1  0.1723639E-002  0.9276321E+02  0.7546771E-02  0.1423468E+00
          2   -1    0    0  501    0  0.00000000000E+00  0.00000000000E+00  0.21721039690E+02  0.21721039690E+02  0.00000000000E+00 0. -1.
         -2   -1    0    0    0  501 -0.00000000000E+00 -0.00000000000E+00 -0.12412839549E+03  0.12412839549E+03  0.00000000000E+00 0.  1.
         23    2    1    2    0    0 -0.10796811289E+02  0.13916798847E+01 -0.94281841979E+02  0.13226518394E+03  0.92122229938E+02 0.  0.
         13    1    3    3    0    0 -0.23096870950E+01  0.19563569859E+02  0.12687671087E+02  0.23431707528E+02  0.00000000000E+00 0. -1.
        -13    1    3    3    0    0 -0.84871241941E+01 -0.18171889974E+02 -0.10696951307E+03  0.10883347641E+03  0.00000000000E+00 0.  1.
         22    1    1    2    0    0  0.10796811289E+02 -0.13916798847E+01 -0.81255138229E+01  0.13584251242E+02  0.00000000000E+00 0.  1.
<mgrwt>
<rscale>  0 0.54293801E+02</rscale>
<asrwt>0</asrwt>
<pdfrwt beam="1">  1        2 0.33416984E-02 0.92763210E+02</pdfrwt>
<pdfrwt beam="2">  1       -2 0.19096676E-01 0.92763210E+02</pdfrwt>
<totfact> 0.52906953E+04</totfact>
</mgrwt>
</event>
<event>
 6    1  0.1723639E-002  0.9140097E+02  0.7546771E-02  0.1407826E+00
         -1   -1    0    0    0  501 -0.00000000000E+00  0.00000000000E+00  0.18752236455E+03  0.18752236455E+03  0.00000000000E+00 0.  1.
          1   -1    0    0  501    0  0.00000000000E+00 -0.00000000000E+00 -0.84458367267E+02  0.84458367267E+02  0.00000000000E+00 0. -1.
         23    2    1    2    0    0  0.37745632015E+01 -0.13997868657E+02  0.17562500114E+03  0.19798554997E+03  0.90243832578E+02 0.  0.
         13    1    3    3    0    0  0.27533948709E-01 -0.48416601548E+02  0.58961338017E+02  0.76292905597E+02  0.00000000000E+00 0. -1.
        -13    1    3    3    0    0  0.37470292527E+01  0.34418732891E+02  0.11666366312E+03  0.12169264438E+03  0.00000000000E+00 0.  1.
         22    1    1    2    0    0 -0.37745632015E+01  0.13997868657E+02 -0.72561003861E+02  0.73995181841E+02  0.00000000000E+00 0. -1.
<mgrwt>
<rscale>  0 0.57681826E+02</rscale>
<asrwt>0</asrwt>
<pdfrwt beam="1">  1        1 0.12993595E-01 0.91400968E+02</pdfrwt>
<pdfrwt beam="2">  1       -1 0.28849594E-01 0.91400968E+02</pdfrwt>
<totfact> 0.45834960E+03</totfact>
</mgrwt>
</event>
<event>
 6    1  0.1723639E-002  0.9635893E+02  0.7546771E-02  0.1354539E+00
          2   -1    0    0  501    0  0.00000000000E+00  0.00000000000E+00  0.20485139784E+02  0.20485139784E+02  0.00000000000E+00 0. -1.
         -2   -1    0    0    0  501 -0.00000000000E+00 -0.00000000000E+00 -0.22686682479E+03  0.22686682479E+03  0.00000000000E+00 0.  1.
         23    2    1    2    0    0  0.46977761148E+01  0.29095912902E+02 -0.19140641152E+03  0.21429292551E+03  0.91740952162E+02 0.  0.
         13    1    3    3    0    0  0.14292534019E+02  0.94587077255E+01  0.40560329873E+01  0.17612356007E+02  0.00000000000E+00 0. -1.
        -13    1    3    3    0    0 -0.95947579040E+01  0.19637205176E+02 -0.19546244451E+03  0.19668056950E+03  0.00000000000E+00 0.  1.
         22    1    1    2    0    0 -0.46977761148E+01 -0.29095912902E+02 -0.14975273487E+02  0.33059039067E+02  0.00000000000E+00 0. -1.
<mgrwt>
<rscale>  0 0.71659543E+02</rscale>
<asrwt>0</asrwt>
<pdfrwt beam="1">  1        2 0.31515601E-02 0.96358931E+02</pdfrwt>
<pdfrwt beam="2">  1       -2 0.34902587E-01 0.96358931E+02</pdfrwt>
<totfact> 0.20081235E+04</totfact>
</mgrwt>
</event>
<event>
 6    1  0.1723639E-002  0.9184860E+02  0.7546771E-02  0.1422665E+00
         -2   -1    0    0    0  501 -0.00000000000E+00  0.00000000000E+00  0.56512029210E+03  0.56512029210E+03  0.00000000000E+00 0.  1.
          2   -1    0    0  501    0  0.00000000000E+00 -0.00000000000E+00 -0.65549745672E+01  0.65549745672E+01  0.00000000000E+00 0. -1.
         23    2    1    2    0    0  0.10269769450E+02  0.48404477562E+01  0.54956434174E+03  0.55718680007E+03  0.91144206412E+02 0.  0.
         13    1    3    3    0    0  0.31518754148E+02 -0.10579295274E+02  0.49994945827E+03  0.50105370388E+03  0.00000000000E+00 0.  1.
        -13    1    3    3    0    0 -0.21248984698E+02  0.15419743031E+02  0.49614883470E+02  0.56133096187E+02  0.00000000000E+00 0. -1.
         22    1    1    2    0    0 -0.10269769450E+02 -0.48404477562E+01  0.90009757886E+01  0.14488466592E+02  0.00000000000E+00 0. -1.
<mgrwt>
<rscale>  0 0.54460949E+02</rscale>
<asrwt>0</asrwt>
<pdfrwt beam="1">  1        2 0.10084581E-02 0.91848595E+02</pdfrwt>
<pdfrwt beam="2">  1       -2 0.86941545E-01 0.91848595E+02</pdfrwt>
<totfact> 0.14887819E+04</totfact>
</mgrwt>
</event>
<event>
 6    1  0.1723639E-002  0.9520089E+02  0.7546771E-02  0.1360281E+00
         -2   -1    0    0    0  501 -0.00000000000E+00  0.00000000000E+00  0.16573489867E+02  0.16573489867E+02  0.00000000000E+00 0.  1.
          2   -1    0    0  501    0  0.00000000000E+00 -0.00000000000E+00 -0.22876358879E+03  0.22876358879E+03  0.00000000000E+00 0. -1.
         23    2    1    2    0    0 -0.26804206242E+02 -0.71415780450E+01 -0.15814387119E+03  0.18458790301E+03  0.91069985917E+02 0.  0.
         11    1    3    3    0    0 -0.12302257119E+02 -0.26391708249E+02 -0.15782071287E+03  0.16048440799E+03  0.00000000000E+00 0. -1.
        -11    1    3    3    0    0 -0.14501949123E+02  0.19250130204E+02 -0.32315831524E+00  0.24103495027E+02  0.00000000000E+00 0.  1.
         22    1    1    2    0    0  0.26804206242E+02  0.71415780450E+01 -0.54046227738E+02  0.60749175648E+02  0.00000000000E+00 0. -1.
<mgrwt>
<rscale>  0 0.69944659E+02</rscale>
<asrwt>0</asrwt>
<pdfrwt beam="1">  1        2 0.35194399E-01 0.95200893E+02</pdfrwt>
<pdfrwt beam="2">  1       -2 0.25497676E-02 0.95200893E+02</pdfrwt>
<totfact> 0.68982468E+04</totfact>
</mgrwt>
</event>
<event>
 6    1  0.1723639E-002  0.9922221E+02  0.7546771E-02  0.1325605E+00
          2   -1    0    0  501    0  0.00000000000E+00  0.00000000000E+00  0.81078414848E+02  0.81078414848E+02  0.00000000000E+00 0. -1.
         -2   -1    0    0    0  501 -0.00000000000E+00 -0.00000000000E+00 -0.65423914657E+02  0.65423914657E+02  0.00000000000E+00 0.  1.
         23    2    1    2    0    0 -0.18246572561E+02  0.40656143995E+02  0.21595352089E+02  0.10154509231E+03  0.88652056299E+02 0.  0.
         13    1    3    3    0    0  0.19502594127E+02 -0.82578183874E+01  0.32511867835E+02  0.38801601673E+02  0.00000000000E+00 0. -1.
        -13    1    3    3    0    0 -0.37749166688E+02  0.48913962382E+02 -0.10916515747E+02  0.62743490640E+02  0.00000000000E+00 0.  1.
         22    1    1    2    0    0  0.18246572561E+02 -0.40656143995E+02 -0.59408518980E+01  0.44957237193E+02  0.00000000000E+00 0.  1.
<mgrwt>
<rscale>  0 0.81226965E+02</rscale>
<asrwt>0</asrwt>
<pdfrwt beam="1">  1        2 0.12473602E-01 0.99222208E+02</pdfrwt>
<pdfrwt beam="2">  1       -2 0.10065218E-01 0.99222208E+02</pdfrwt>
<totfact> 0.28365718E+04</totfact>
</mgrwt>
</event>
<event>
 6    1  0.1723639E-002  0.9122355E+02  0.7546771E-02  0.1416105E+00
          2   -1    0    0  501    0  0.00000000000E+00  0.00000000000E+00  0.19287637273E+02  0.19287637273E+02  0.00000000000E+00 0. -1.
         -2   -1    0    0    0  501 -0.00000000000E+00 -0.00000000000E+00 -0.17053936134E+03  0.17053936134E+03  0.00000000000E+00 0.  1.
         23    2    1    2    0    0  0.12664707814E+02 -0.19876173912E+01 -0.15168153228E+03  0.17700006671E+03  0.90318275738E+02 0.  0.
         11    1    3    3    0    0  0.44097501496E+02 -0.36915053962E+00 -0.13362550722E+03  0.14071425688E+03  0.00000000000E+00 0.  1.
        -11    1    3    3    0    0 -0.31432793682E+02 -0.16184668516E+01 -0.18056025062E+02  0.36285809825E+02  0.00000000000E+00 0. -1.
         22    1    1    2    0    0 -0.12664707814E+02  0.19876173912E+01  0.42980821785E+00  0.12826931902E+02  0.00000000000E+00 0. -1.
<mgrwt>
<rscale>  0 0.55853442E+02</rscale>
<asrwt>0</asrwt>
<pdfrwt beam="1">  1        2 0.29673289E-02 0.91223552E+02</pdfrwt>
<pdfrwt beam="2">  1       -2 0.26236824E-01 0.91223552E+02</pdfrwt>
<totfact> 0.35963318E+04</totfact>
</mgrwt>
</event>
<event>
 6    1  0.1723639E-002  0.1029202E+03  0.7546771E-02  0.1317692E+00
         -1   -1    0    0    0  501 -0.00000000000E+00  0.00000000000E+00  0.17138260889E+03  0.17138260889E+03  0.00000000000E+00 0.  1.
          1   -1    0    0  501    0  0.00000000000E+00 -0.00000000000E+00 -0.33160691413E+02  0.33160691413E+02  0.00000000000E+00 0. -1.
         23    2    1    2    0    0 -0.41860863576E+02 -0.19015819813E+02  0.79996313857E+02  0.13035331298E+03  0.92079545345E+02 0.  0.
         11    1    3    3    0    0 -0.71212828763E+02 -0.12654230018E+02  0.62527378839E+02  0.95608941121E+02  0.00000000000E+00 0. -1.
        -11    1    3    3    0    0  0.29351965187E+02 -0.63615897943E+01  0.17468935018E+02  0.34744371856E+02  0.00000000000E+00 0.  1.
         22    1    1    2    0    0  0.41860863576E+02  0.19015819813E+02  0.58225603615E+02  0.74189987322E+02  0.00000000000E+00 0.  1.
<mgrwt>
<rscale>  0 0.84141840E+02</rscale>
<asrwt>0</asrwt>
<pdfrwt beam="1">  1        1 0.51016450E-02 0.10292024E+03</pdfrwt>
<pdfrwt beam="2">  1       -1 0.26366555E-01 0.10292024E+03</pdfrwt>
<totfact> 0.18549697E+04</totfact>
</mgrwt>
</event>
<event>
 6    1  0.1723639E-002  0.1173585E+03  0.7546771E-02  0.1271719E+00
         -2   -1    0    0    0  501 -0.00000000000E+00  0.00000000000E+00  0.14487264209E+02  0.14487264209E+02  0.00000000000E+00 0.  1.
          2   -1    0    0  501    0  0.00000000000E+00 -0.00000000000E+00 -0.64863045783E+03  0.64863045783E+03  0.00000000000E+00 0. -1.
         23    2    1    2    0    0 -0.52602825569E+02 -0.50488871044E+02 -0.32646864549E+03  0.34692187937E+03  0.91961027272E+02 0.  0.
         13    1    3    3    0    0  0.14339084617E+01 -0.14508738715E+02 -0.23106907760E+03  0.23152856890E+03  0.00000000000E+00 0. -1.
        -13    1    3    3    0    0 -0.54036734030E+02 -0.35980132329E+02 -0.95399567889E+02  0.11539331047E+03  0.00000000000E+00 0.  1.
         22    1    1    2    0    0  0.52602825569E+02  0.50488871044E+02 -0.30767454813E+03  0.31619584267E+03  0.00000000000E+00 0.  1.
<mgrwt>
<rscale>  0 0.10419236E+03</rscale>
<asrwt>0</asrwt>
<pdfrwt beam="1">  1        2 0.99789295E-01 0.11735848E+03</pdfrwt>
<pdfrwt beam="2">  1       -2 0.22288100E-02 0.11735848E+03</pdfrwt>
<totfact> 0.28085961E+04</totfact>
</mgrwt>
</event>
<event>
 6    1  0.1723639E-002  0.8773158E+02  0.7546771E-02  0.1410799E+00
         -1   -1    0    0    0  501 -0.00000000000E+00  0.00000000000E+00  0.42677438555E+02  0.42677438555E+02  0.00000000000E+00 0.  1.
          1   -1    0    0  501    0  0.00000000000E+00 -0.00000000000E+00 -0.65148659077E+02  0.65148659077E+02  0.00000000000E+00 0. -1.
         23    2    1    2    0    0 -0.12953290321E+02 -0.87829673242E+01 -0.10992391997E+02  0.88417549271E+02  0.86324400328E+02 0.  0.
         13    1    3    3    0    0  0.95348906026E+01  0.69946027154E+01 -0.43949589609E+02  0.45512690897E+02  0.00000000000E+00 0. -1.
        -13    1    3    3    0    0 -0.22488180924E+02 -0.15777570040E+02  0.32957197611E+02  0.42904858373E+02  0.00000000000E+00 0.  1.
         22    1    1    2    0    0  0.12953290321E+02  0.87829673242E+01 -0.11478828525E+02  0.19408548361E+02  0.00000000000E+00 0.  1.
<mgrwt>
<rscale>  0 0.57016011E+02</rscale>
<asrwt>0</asrwt>
<pdfrwt beam="1">  1        1 0.10022870E-01 0.87731581E+02</pdfrwt>
<pdfrwt beam="2">  1       -1 0.65657599E-02 0.87731581E+02</pdfrwt>
<totfact> 0.63240724E+04</totfact>
</mgrwt>
</event>
<event>
 6    1  0.1723639E-002  0.1058393E+03  0.7546771E-02  0.1304972E+00
          2   -1    0    0  501    0  0.00000000000E+00  0.00000000000E+00  0.28809833192E+03  0.28809833192E+03  0.00000000000E+00 0. -1.
         -2   -1    0    0    0  501 -0.00000000000E+00 -0.00000000000E+00 -0.23440127507E+02  0.23440127507E+02  0.00000000000E+00 0.  1.
         23    2    1    2    0    0  0.15847463790E+02 -0.50816374713E+02  0.13620425117E+03  0.17249219320E+03  0.91479574941E+02 0.  0.
         11    1    3    3    0    0  0.37243934624E+02  0.11990880704E+02  0.43767030715E+02  0.58706429494E+02  0.00000000000E+00 0.  1.
        -11    1    3    3    0    0 -0.21396470834E+02 -0.62807255417E+02  0.92437220457E+02  0.11378576371E+03  0.00000000000E+00 0. -1.
         22    1    1    2    0    0 -0.15847463790E+02  0.50816374713E+02  0.12845395324E+03  0.13904626622E+03  0.00000000000E+00 0. -1.
<mgrwt>
<rscale>  0 0.89130144E+02</rscale>
<asrwt>0</asrwt>
<pdfrwt beam="1">  1        2 0.44322818E-01 0.10583931E+03</pdfrwt>
<pdfrwt beam="2">  1       -2 0.36061737E-02 0.10583931E+03</pdfrwt>
<totfact> 0.33070280E+04</totfact>
</mgrwt>
</event>
<event>
 6    1  0.1723639E-002  0.9264925E+02  0.7546771E-02  0.1400513E+00
         -2   -1    0    0    0  501 -0.00000000000E+00  0.00000000000E+00  0.18296384887E+02  0.18296384887E+02  0.00000000000E+00 0.  1.
          2   -1    0    0  501    0  0.00000000000E+00 -0.00000000000E+00 -0.18059463821E+03  0.18059463821E+03  0.00000000000E+00 0. -1.
         23    2    1    2    0    0  0.14835432098E+02 -0.48806334704E+01 -0.10752574473E+03  0.14193544105E+03  0.91323452730E+02 0.  0.
         13    1    3    3    0    0  0.34422432060E+02  0.28394427777E+02 -0.88000943228E+02  0.98667691605E+02  0.00000000000E+00 0. -1.
        -13    1    3    3    0    0 -0.19586999963E+02 -0.33275061248E+02 -0.19524801504E+02  0.43267749449E+02  0.00000000000E+00 0.  1.
         22    1    1    2    0    0 -0.14835432098E+02  0.48806334704E+01 -0.54772508592E+02  0.56955582045E+02  0.00000000000E+00 0.  1.
<mgrwt>
<rscale>  0 0.59365656E+02</rscale>
<asrwt>0</asrwt>
<pdfrwt beam="1">  1        2 0.27783791E-01 0.92649251E+02</pdfrwt>
<pdfrwt beam="2">  1       -2 0.28148283E-02 0.92649251E+02</pdfrwt>
<totfact> 0.76626081E+04</totfact>
</mgrwt>
</event>
<event>
 6    1  0.1723639E-002  0.9334579E+02  0.7546771E-02  0.1384137E+00
         -2   -1    0    0    0  501 -0.00000000000E+00  0.00000000000E+00  0.82242355498E+02  0.82242355498E+02  0.00000000000E+00 0. -1.
          2   -1    0    0  501    0  0.00000000000E+00 -0.00000000000E+00 -0.39927779119E+02  0.39927779119E+02  0.00000000000E+00 0.  1.
         23    2    1    2    0    0  0.15360488585E+02 -0.12573016474E+02  0.41893254067E+02  0.10231559193E+03  0.91210801240E+02 0.  0.
         11    1    3    3    0    0  0.72808184224E+01 -0.22394450283E+02 -0.24929788557E+02  0.34293090818E+02  0.00000000000E+00 0.  1.
        -11    1    3    3    0    0  0.80796701623E+01  0.98214338090E+01  0.66823042624E+02  0.68022501112E+02  0.00000000000E+00 0. -1.
         22    1    1    2    0    0 -0.15360488585E+02  0.12573016474E+02  0.42132231221E+00  0.19854542687E+02  0.00000000000E+00 0.  1.
<mgrwt>
<rscale>  0 0.63388658E+02</rscale>
<asrwt>0</asrwt>
<pdfrwt beam="1">  1        2 0.61427353E-02 0.93345785E+02</pdfrwt>
<pdfrwt beam="2">  1       -2 0.12652670E-01 0.93345785E+02</pdfrwt>
<totfact> 0.46923844E+04</totfact>
</mgrwt>
</event>
<event>
 6    1  0.1723639E-002  0.9289587E+02  0.7546771E-02  0.1406956E+00
         -2   -1    0    0    0  501 -0.00000000000E+00  0.00000000000E+00  0.97037197554E+01  0.97037197554E+01  0.00000000000E+00 0.  1.
          2   -1    0    0  501    0  0.00000000000E+00 -0.00000000000E+00 -0.30518423208E+03  0.30518423208E+03  0.00000000000E+00 0. -1.
         23    2    1    2    0    0 -0.70396825084E+01 -0.12099666308E+02 -0.27332986347E+03  0.28868470205E+03  0.91835090676E+02 0.  0.
         11    1    3    3    0    0  0.34120776585E+01  0.26508986120E+02 -0.22203711667E+03  0.22364000045E+03  0.00000000000E+00 0. -1.
        -11    1    3    3    0    0 -0.10451760167E+02 -0.38608652428E+02 -0.51292746795E+02  0.65044701603E+02  0.00000000000E+00 0.  1.
         22    1    1    2    0    0  0.70396825084E+01  0.12099666308E+02 -0.22150648860E+02  0.26203249789E+02  0.00000000000E+00 0. -1.
<mgrwt>
<rscale>  0 0.57878595E+02</rscale>
<asrwt>0</asrwt>
<pdfrwt beam="1">  1        2 0.46951424E-01 0.92895871E+02</pdfrwt>
<pdfrwt beam="2">  1       -2 0.14928799E-02 0.92895871E+02</pdfrwt>
<totfact> 0.10960652E+05</totfact>
</mgrwt>
</event>
<event>
 6    1  0.1723639E-002  0.8637317E+02  0.7546771E-02  0.1442642E+00
          2   -1    0    0  501    0  0.00000000000E+00  0.00000000000E+00  0.88408738667E+01  0.88408738667E+01  0.00000000000E+00 0. -1.
         -2   -1    0    0    0  501 -0.00000000000E+00 -0.00000000000E+00 -0.27650015285E+03  0.27650015285E+03  0.00000000000E+00 0.  1.
         23    2    1    2    0    0  0.47055310035E+01 -0.89328443702E+01 -0.25448235515E+03  0.26874075406E+03  0.85781035664E+02 0.  0.
         11    1    3    3    0    0  0.20897735849E+01  0.89793685375E+01 -0.24989678248E+03  0.25006678730E+03  0.00000000000E+00 0.  1.
        -11    1    3    3    0    0  0.26157574185E+01 -0.17912212908E+02 -0.45855726703E+01  0.18673966768E+02  0.00000000000E+00 0. -1.
         22    1    1    2    0    0 -0.47055310035E+01  0.89328443702E+01 -0.13176923833E+02  0.16600272656E+02  0.00000000000E+00 0. -1.
<mgrwt>
<rscale>  0 0.50504026E+02</rscale>
<asrwt>0</asrwt>
<pdfrwt beam="1">  1        2 0.13601346E-02 0.86373166E+02</pdfrwt>
<pdfrwt beam="2">  1       -2 0.42538482E-01 0.86373166E+02</pdfrwt>
<totfact> 0.42380676E+04</totfact>
</mgrwt>
</event>
<event>
 6    1  0.1723639E-002  0.9161531E+02  0.7546771E-02  0.1401862E+00
         -2   -1    0    0    0  501 -0.00000000000E+00  0.00000000000E+00  0.10847878095E+02  0.10847878095E+02  0.00000000000E+00 0.  1.
          2   -1    0    0  501    0  0.00000000000E+00 -0.00000000000E+00 -0.27051629078E+03  0.27051629078E+03  0.00000000000E+00 0. -1.
         23    2    1    2    0    0 -0.12356360791E+02  0.98654632632E+01 -0.20686705927E+03  0.22624620501E+03  0.90240556602E+02 0.  0.
         13    1    3    3    0    0 -0.26678256357E+02  0.44542716986E+02 -0.14351159007E+03  0.15261506964E+03  0.00000000000E+00 0. -1.
        -13    1    3    3    0    0  0.14321895567E+02 -0.34677253722E+02 -0.63355469200E+02  0.73631135370E+02  0.00000000000E+00 0.  1.
         22    1    1    2    0    0  0.12356360791E+02 -0.98654632632E+01 -0.52801353412E+02  0.55117963855E+02  0.00000000000E+00 0. -1.
<mgrwt>
<rscale>  0 0.59050022E+02</rscale>
<asrwt>0</asrwt>
<pdfrwt beam="1">  1        2 0.41617892E-01 0.91615310E+02</pdfrwt>
<pdfrwt beam="2">  1       -2 0.16689043E-02 0.91615310E+02</pdfrwt>
<totfact> 0.10581295E+05</totfact>
</mgrwt>
</event>
<event>
 6    1  0.1723639E-002  0.9069593E+02  0.7546771E-02  0.1431531E+00
         -3   -1    0    0    0  501 -0.00000000000E+00  0.00000000000E+00  0.38099588831E+03  0.38099588831E+03  0.00000000000E+00 0.  1.
          3   -1    0    0  501    0  0.00000000000E+00 -0.00000000000E+00 -0.12756773867E+02  0.12756773867E+02  0.00000000000E+00 0. -1.
         23    2    1    2    0    0 -0.22106429392E+01 -0.10062976716E+02  0.37191475211E+03  0.38281370634E+03  0.90108825749E+02 0.  0.
         13    1    3    3    0    0  0.10633462868E+02  0.32698254894E+01  0.70988714647E+00  0.11147476444E+02  0.00000000000E+00 0. -1.
        -13    1    3    3    0    0 -0.12844105807E+02 -0.13332802206E+02  0.37120486497E+03  0.37166622989E+03  0.00000000000E+00 0.  1.
         22    1    1    2    0    0  0.22106429392E+01  0.10062976716E+02 -0.36756376694E+01  0.10938955840E+02  0.00000000000E+00 0.  1.
<mgrwt>
<rscale>  0 0.52653962E+02</rscale>
<asrwt>0</asrwt>
<pdfrwt beam="1">  1        3 0.19625809E-02 0.90695926E+02</pdfrwt>
<pdfrwt beam="2">  1       -3 0.58614743E-01 0.90695926E+02</pdfrwt>
<totfact> 0.59176496E+03</totfact>
</mgrwt>
</event>
<event>
 6    1  0.1723639E-002  0.9808874E+02  0.7546771E-02  0.1334621E+00
         -2   -1    0    0    0  501 -0.00000000000E+00  0.00000000000E+00  0.23450741102E+02  0.23450741102E+02  0.00000000000E+00 0.  1.
          2   -1    0    0  501    0  0.00000000000E+00 -0.00000000000E+00 -0.28601221797E+03  0.28601221797E+03  0.00000000000E+00 0. -1.
         23    2    1    2    0    0  0.23630765599E+02 -0.31478529772E+02 -0.92218679628E+02  0.13463167042E+03  0.89844815593E+02 0.  0.
         13    1    3    3    0    0 -0.17540851291E+02 -0.49962290279E+02 -0.50551441556E+02  0.73207650948E+02  0.00000000000E+00 0. -1.
        -13    1    3    3    0    0  0.41171616890E+02  0.18483760507E+02 -0.41667238072E+02  0.61424019474E+02  0.00000000000E+00 0.  1.
         22    1    1    2    0    0 -0.23630765599E+02  0.31478529772E+02 -0.17034279724E+03  0.17483128865E+03  0.00000000000E+00 0. -1.
<mgrwt>
<rscale>  0 0.78069555E+02</rscale>
<asrwt>0</asrwt>
<pdfrwt beam="1">  1        2 0.44001877E-01 0.98088745E+02</pdfrwt>
<pdfrwt beam="2">  1       -2 0.36078065E-02 0.98088745E+02</pdfrwt>
<totfact> 0.33010047E+04</totfact>
</mgrwt>
</event>
<event>
 6    1  0.1723639E-002  0.9102030E+02  0.7546771E-02  0.1425101E+00
          2   -1    0    0  501    0  0.00000000000E+00  0.00000000000E+00  0.54090838187E+01  0.54090838187E+01  0.00000000000E+00 0. -1.
         -2   -1    0    0    0  501 -0.00000000000E+00 -0.00000000000E+00 -0.52505606370E+03  0.52505606370E+03  0.00000000000E+00 0.  1.
         23    2    1    2    0    0  0.26015610473E+00 -0.11236555585E+02 -0.49600735620E+03  0.50428959270E+03  0.90323684780E+02 0.  0.
         13    1    3    3    0    0  0.37659955237E+01  0.39727352760E+02 -0.22403220065E+03  0.22755850282E+03  0.00000000000E+00 0.  1.
        -13    1    3    3    0    0 -0.35058394190E+01 -0.50963908345E+02 -0.27197515555E+03  0.27673108987E+03  0.00000000000E+00 0. -1.
         22    1    1    2    0    0 -0.26015610473E+00  0.11236555585E+02 -0.23639623683E+02  0.26175554827E+02  0.00000000000E+00 0. -1.
<mgrwt>
<rscale>  0 0.53956169E+02</rscale>
<asrwt>0</asrwt>
<pdfrwt beam="1">  1        2 0.83216678E-03 0.91020305E+02</pdfrwt>
<pdfrwt beam="2">  1       -2 0.80777853E-01 0.91020305E+02</pdfrwt>
<totfact> 0.22735729E+04</totfact>
</mgrwt>
</event>
<event>
 6    1  0.1723639E-002  0.9200422E+02  0.7546771E-02  0.1383131E+00
          2   -1    0    0  501    0  0.00000000000E+00  0.00000000000E+00  0.54748387383E+01  0.54748387383E+01  0.00000000000E+00 0. -1.
         -2   -1    0    0    0  501 -0.00000000000E+00 -0.00000000000E+00 -0.60602529812E+03  0.60602529812E+03  0.00000000000E+00 0.  1.
         23    2    1    2    0    0 -0.20530128242E+02 -0.47499608511E+01 -0.52781471661E+03  0.53577341390E+03  0.89558515377E+02 0.  0.
         11    1    3    3    0    0 -0.25680344528E+02  0.16039714786E+02 -0.57617364785E+02  0.65088503365E+02  0.00000000000E+00 0. -1.
        -11    1    3    3    0    0  0.51502162860E+01 -0.20789675637E+02 -0.47019735183E+03  0.47068491054E+03  0.00000000000E+00 0.  1.
         22    1    1    2    0    0  0.20530128242E+02  0.47499608511E+01 -0.72735742772E+02  0.75726722961E+02  0.00000000000E+00 0.  1.
<mgrwt>
<rscale>  0 0.63647973E+02</rscale>
<asrwt>0</asrwt>
<pdfrwt beam="1">  1        2 0.84228317E-03 0.92004217E+02</pdfrwt>
<pdfrwt beam="2">  1       -2 0.93234630E-01 0.92004217E+02</pdfrwt>
<totfact> 0.16311638E+04</totfact>
</mgrwt>
</event>
<event>
 6    1  0.1723639E-002  0.8676714E+02  0.7546771E-02  0.1380177E+00
          2   -1    0    0  501    0  0.00000000000E+00  0.00000000000E+00  0.19960049714E+03  0.19960049714E+03  0.00000000000E+00 0.  1.
         -2   -1    0    0    0  501 -0.00000000000E+00 -0.00000000000E+00 -0.16054776737E+02  0.16054776737E+02  0.00000000000E+00 0. -1.
         23    2    1    2    0    0 -0.15275310938E+02 -0.21482618559E+02  0.14434336669E+03  0.16841479800E+03  0.82666188095E+02 0.  0.
         11    1    3    3    0    0 -0.51903715546E+01  0.26632668849E+00 -0.10505711156E+02  0.11720957882E+02  0.00000000000E+00 0. -1.
        -11    1    3    3    0    0 -0.10084939383E+02 -0.21748945247E+02  0.15484907784E+03  0.15669384012E+03  0.00000000000E+00 0.  1.
         22    1    1    2    0    0  0.15275310938E+02  0.21482618559E+02  0.39202353718E+02  0.47240475881E+02  0.00000000000E+00 0.  1.
<mgrwt>
<rscale>  0 0.64417210E+02</rscale>
<asrwt>0</asrwt>
<pdfrwt beam="1">  1        2 0.30707767E-01 0.86767141E+02</pdfrwt>
<pdfrwt beam="2">  1       -2 0.24699658E-02 0.86767141E+02</pdfrwt>
<totfact> 0.82366571E+04</totfact>
</mgrwt>
</event>
<event>
 6    1  0.1723639E-002  0.9372565E+02  0.7546771E-02  0.1419040E+00
         -2   -1    0    0    0  501 -0.00000000000E+00  0.00000000000E+00  0.28258641876E+02  0.28258641876E+02  0.00000000000E+00 0.  1.
          2   -1    0    0  501    0  0.00000000000E+00 -0.00000000000E+00 -0.10644142548E+03  0.10644142548E+03  0.00000000000E+00 0. -1.
         23    2    1    2    0    0  0.10572996296E+02 -0.39786781299E+01 -0.54396117874E+02  0.10836712987E+03  0.93042350922E+02 0.  0.
         11    1    3    3    0    0 -0.41214217739E+02 -0.68291828878E+01 -0.26551119364E+02  0.49499610324E+02  0.00000000000E+00 0.  1.
        -11    1    3    3    0    0  0.51787214035E+02  0.28505047579E+01 -0.27844998511E+02  0.58867519542E+02  0.00000000000E+00 0. -1.
         22    1    1    2    0    0 -0.10572996296E+02  0.39786781299E+01 -0.23786665734E+02  0.26332937494E+02  0.00000000000E+00 0.  1.
<mgrwt>
<rscale>  0 0.55224639E+02</rscale>
<asrwt>0</asrwt>
<pdfrwt beam="1">  1        2 0.16375604E-01 0.93725649E+02</pdfrwt>
<pdfrwt beam="2">  1       -2 0.43474834E-02 0.93725649E+02</pdfrwt>
<totfact> 0.73061275E+04</totfact>
</mgrwt>
</event>
<event>
 6    1  0.1723639E-002  0.1058377E+03  0.7546771E-02  0.1369167E+00
          4   -1    0    0  501    0  0.00000000000E+00  0.00000000000E+00  0.16771684752E+02  0.16771684752E+02  0.00000000000E+00 0. -1.
         -4   -1    0    0    0  501 -0.00000000000E+00 -0.00000000000E+00 -0.26857443136E+03  0.26857443136E+03  0.00000000000E+00 0.  1.
         23    2    1    2    0    0 -0.77868389659E+01  0.15567037838E+02 -0.24458643387E+03  0.26650353938E+03  0.10439657725E+03 0.  0.
         11    1    3    3    0    0  0.45904403442E+02  0.21279042319E+02 -0.98030243967E+02  0.11031745388E+03  0.00000000000E+00 0. -1.
        -11    1    3    3    0    0 -0.53691242408E+02 -0.57120044808E+01 -0.14655618991E+03  0.15618608551E+03  0.00000000000E+00 0.  1.
         22    1    1    2    0    0  0.77868389659E+01 -0.15567037838E+02 -0.72163127298E+01  0.18842576723E+02  0.00000000000E+00 0.  1.
<mgrwt>
<rscale>  0 0.67399197E+02</rscale>
<asrwt>0</asrwt>
<pdfrwt beam="1">  1        4 0.25802593E-02 0.10583767E+03</pdfrwt>
<pdfrwt beam="2">  1       -4 0.41319142E-01 0.10583767E+03</pdfrwt>
<totfact> 0.59694056E+03</totfact>
</mgrwt>
</event>
<event>
 6    1  0.1723639E-002  0.9007471E+02  0.7546771E-02  0.1401837E+00
         -2   -1    0    0    0  501 -0.00000000000E+00  0.00000000000E+00  0.24764831227E+02  0.24764831227E+02  0.00000000000E+00 0.  1.
          2   -1    0    0  501    0  0.00000000000E+00 -0.00000000000E+00 -0.15900696583E+03  0.15900696583E+03  0.00000000000E+00 0. -1.
         23    2    1    2    0    0  0.12120620695E+02 -0.11406098546E+02 -0.61299632172E+02  0.10895457183E+03  0.88523699016E+02 0.  0.
         11    1    3    3    0    0  0.32874362440E+01 -0.17792334133E+02  0.19975542640E+02  0.26951747526E+02  0.00000000000E+00 0.  1.
        -11    1    3    3    0    0  0.88331844511E+01  0.63862355867E+01 -0.81275174813E+02  0.82002824301E+02  0.00000000000E+00 0. -1.
         22    1    1    2    0    0 -0.12120620695E+02  0.11406098546E+02 -0.72942502429E+02  0.74817225227E+02  0.00000000000E+00 0. -1.
<mgrwt>
<rscale>  0 0.59055970E+02</rscale>
<asrwt>0</asrwt>
<pdfrwt beam="1">  1        2 0.24462611E-01 0.90074712E+02</pdfrwt>
<pdfrwt beam="2">  1       -2 0.38099739E-02 0.90074712E+02</pdfrwt>
<totfact> 0.56338585E+04</totfact>
</mgrwt>
</event>
<event>
 6    1  0.1723639E-002  0.9119798E+02  0.7546771E-02  0.1417381E+00
          2   -1    0    0  501    0  0.00000000000E+00  0.00000000000E+00  0.80527317543E+03  0.80527317543E+03  0.00000000000E+00 0. -1.
         -2   -1    0    0    0  501 -0.00000000000E+00 -0.00000000000E+00 -0.34014679381E+01  0.34014679381E+01  0.00000000000E+00 0.  1.
         23    2    1    2    0    0  0.12084011829E+02 -0.34979489134E+01  0.73432941890E+03  0.73997078804E+03  0.90326146294E+02 0.  0.
         11    1    3    3    0    0  0.55318385848E+01  0.39616926836E+02  0.20621631433E+03  0.21006015907E+03  0.00000000000E+00 0. -1.
        -11    1    3    3    0    0  0.65521732447E+01 -0.43114875750E+02  0.52811310457E+03  0.52991062897E+03  0.00000000000E+00 0.  1.
         22    1    1    2    0    0 -0.12084011829E+02  0.34979489134E+01  0.67542288595E+02  0.68703855329E+02  0.00000000000E+00 0.  1.
<mgrwt>
<rscale>  0 0.55578902E+02</rscale>
<asrwt>0</asrwt>
<pdfrwt beam="1">  1        2 0.12388803E+00 0.91197981E+02</pdfrwt>
<pdfrwt beam="2">  1       -2 0.52330340E-03 0.91197981E+02</pdfrwt>
<totfact> 0.16580967E+05</totfact>
</mgrwt>
</event>
<event>
 6    1  0.1723639E-002  0.9110279E+02  0.7546771E-02  0.1408969E+00
         -2   -1    0    0    0  501 -0.00000000000E+00  0.00000000000E+00  0.66277241484E+02  0.66277241484E+02  0.00000000000E+00 0.  1.
          2   -1    0    0  501    0  0.00000000000E+00 -0.00000000000E+00 -0.49532051532E+02  0.49532051532E+02  0.00000000000E+00 0. -1.
         23    2    1    2    0    0  0.97451973871E+00  0.14348201804E+02  0.30337365279E+02  0.96021220502E+02  0.89960538409E+02 0.  0.
         11    1    3    3    0    0 -0.24919604016E+01 -0.19053070650E+02  0.52419667578E+02  0.55830555405E+02  0.00000000000E+00 0.  1.
        -11    1    3    3    0    0  0.34664801403E+01  0.33401272454E+02 -0.22082302299E+02  0.40190665097E+02  0.00000000000E+00 0. -1.
         22    1    1    2    0    0 -0.97451973871E+00 -0.14348201804E+02 -0.13592175326E+02  0.19788072514E+02  0.00000000000E+00 0. -1.
<mgrwt>
<rscale>  0 0.57424602E+02</rscale>
<asrwt>0</asrwt>
<pdfrwt beam="1">  1        2 0.76203156E-02 0.91102794E+02</pdfrwt>
<pdfrwt beam="2">  1       -2 0.10196499E-01 0.91102794E+02</pdfrwt>
<totfact> 0.50072651E+04</totfact>
</mgrwt>
</event>
<event>
 6    1  0.1723639E-002  0.8979370E+02  0.7546771E-02  0.1397123E+00
          1   -1    0    0  501    0  0.00000000000E+00  0.00000000000E+00  0.19438744069E+03  0.19438744069E+03  0.00000000000E+00 0. -1.
         -1   -1    0    0    0  501 -0.00000000000E+00 -0.00000000000E+00 -0.18532161589E+02  0.18532161589E+02  0.00000000000E+00 0.  1.
         23    2    1    2    0    0  0.29284721495E+01  0.17865023021E+02  0.97703623786E+02  0.13269855625E+03  0.87949836467E+02 0.  0.
         13    1    3    3    0    0 -0.74178275660E+01  0.13730784198E+02 -0.13683463091E+02  0.20755620026E+02  0.00000000000E+00 0.  1.
        -13    1    3    3    0    0  0.10346299716E+02  0.41342388227E+01  0.11138708688E+03  0.11194293623E+03  0.00000000000E+00 0. -1.
         22    1    1    2    0    0 -0.29284721495E+01 -0.17865023021E+02  0.78151655317E+02  0.80221046026E+02  0.00000000000E+00 0.  1.
<mgrwt>
<rscale>  0 0.60169272E+02</rscale>
<asrwt>0</asrwt>
<pdfrwt beam="1">  1        1 0.29905759E-01 0.89793701E+02</pdfrwt>
<pdfrwt beam="2">  1       -1 0.28511019E-02 0.89793701E+02</pdfrwt>
<totfact> 0.53524117E+04</totfact>
</mgrwt>
</event>
<event>
 6    1  0.1723639E-002  0.9906702E+02  0.7546771E-02  0.1369009E+00
         -2   -1    0    0    0  501 -0.00000000000E+00  0.00000000000E+00  0.16475659037E+03  0.16475659037E+03  0.00000000000E+00 0. -1.
          2   -1    0    0  501    0  0.00000000000E+00 -0.00000000000E+00 -0.32321132478E+02  0.32321132478E+02  0.00000000000E+00 0.  1.
         23    2    1    2    0    0 -0.21274601615E+02  0.47269642726E+00  0.14248811419E+03  0.17354289728E+03  0.96754547165E+02 0.  0.
         13    1    3    3    0    0 -0.30998166297E+02 -0.19895138271E+02  0.86769602231E+01  0.37841676487E+02  0.00000000000E+00 0.  1.
        -13    1    3    3    0    0  0.97235646828E+01  0.20367834698E+02  0.13381115396E+03  0.13570122079E+03  0.00000000000E+00 0. -1.
         22    1    1    2    0    0  0.21274601615E+02 -0.47269642726E+00 -0.10052656294E+02  0.23534825564E+02  0.00000000000E+00 0.  1.
<mgrwt>
<rscale>  0 0.67443326E+02</rscale>
<asrwt>0</asrwt>
<pdfrwt beam="1">  1        2 0.49724820E-02 0.99067020E+02</pdfrwt>
<pdfrwt beam="2">  1       -2 0.25347167E-01 0.99067020E+02</pdfrwt>
<totfact> 0.19599429E+04</totfact>
</mgrwt>
</event>
<event>
 6    1  0.1723639E-002  0.9369548E+02  0.7546771E-02  0.1383999E+00
         -2   -1    0    0    0  501 -0.00000000000E+00  0.00000000000E+00  0.32831938647E+01  0.32831938647E+01  0.00000000000E+00 0.  1.
          2   -1    0    0  501    0  0.00000000000E+00 -0.00000000000E+00 -0.10104523202E+04  0.10104523202E+04  0.00000000000E+00 0. -1.
         23    2    1    2    0    0  0.16823205034E+02  0.10197504031E+02 -0.89095224043E+03  0.89586535717E+03  0.91606954644E+02 0.  0.
         11    1    3    3    0    0  0.45027735235E+02  0.22037054258E+02 -0.30309350211E+03  0.30721132747E+03  0.00000000000E+00 0.  1.
        -11    1    3    3    0    0 -0.28204530202E+02 -0.11839550227E+02 -0.58785873831E+03  0.58865402970E+03  0.00000000000E+00 0. -1.
         22    1    1    2    0    0 -0.16823205034E+02 -0.10197504031E+02 -0.11621688588E+03  0.11787015686E+03  0.00000000000E+00 0.  1.
<mgrwt>
<rscale>  0 0.63424079E+02</rscale>
<asrwt>0</asrwt>
<pdfrwt beam="1">  1        2 0.15545420E+00 0.93695483E+02</pdfrwt>
<pdfrwt beam="2">  1       -2 0.50510675E-03 0.93695483E+02</pdfrwt>
<totfact> 0.13059218E+05</totfact>
</mgrwt>
</event>
<event>
 6    1  0.1723639E-002  0.9282948E+02  0.7546771E-02  0.1402646E+00
          2   -1    0    0  501    0  0.00000000000E+00  0.00000000000E+00  0.58109463414E+02  0.58109463414E+02  0.00000000000E+00 0. -1.
         -2   -1    0    0    0  501 -0.00000000000E+00 -0.00000000000E+00 -0.52428779625E+02  0.52428779625E+02  0.00000000000E+00 0.  1.
         23    2    1    2    0    0 -0.78793027618E+01 -0.12778481577E+02  0.13173968238E+02  0.93759616299E+02  0.91607528108E+02 0.  0.
         13    1    3    3    0    0 -0.27075221864E+02 -0.43860516457E+02  0.22211754008E+02  0.56126415876E+02  0.00000000000E+00 0. -1.
        -13    1    3    3    0    0  0.19195919102E+02  0.31082034880E+02 -0.90377857709E+01  0.37633200423E+02  0.00000000000E+00 0.  1.
         22    1    1    2    0    0  0.78793027618E+01  0.12778481577E+02 -0.74932844493E+01  0.16778626740E+02  0.00000000000E+00 0.  1.
<mgrwt>
<rscale>  0 0.58867714E+02</rscale>
<asrwt>0</asrwt>
<pdfrwt beam="1">  1        2 0.89399175E-02 0.92829479E+02</pdfrwt>
<pdfrwt beam="2">  1       -2 0.80659661E-02 0.92829479E+02</pdfrwt>
<totfact> 0.59168794E+04</totfact>
</mgrwt>
</event>
<event>
 6    1  0.1723639E-002  0.9456632E+02  0.7546771E-02  0.1386119E+00
         -2   -1    0    0    0  501 -0.00000000000E+00  0.00000000000E+00  0.27691987588E+02  0.27691987588E+02  0.00000000000E+00 0.  1.
          2   -1    0    0  501    0  0.00000000000E+00 -0.00000000000E+00 -0.18148654922E+03  0.18148654922E+03  0.00000000000E+00 0. -1.
         23    2    1    2    0    0  0.18472428828E+02 -0.77761192008E+00 -0.56534726254E+02  0.11017696670E+03  0.92741325257E+02 0.  0.
         13    1    3    3    0    0  0.38351380876E+02  0.31148260580E+02 -0.10111043453E+02  0.50430900765E+02  0.00000000000E+00 0. -1.
        -13    1    3    3    0    0 -0.19878952048E+02 -0.31925872500E+02 -0.46423682800E+02  0.59746065930E+02  0.00000000000E+00 0.  1.
         22    1    1    2    0    0 -0.18472428828E+02  0.77761192008E+00 -0.97259835376E+02  0.99001570111E+02  0.00000000000E+00 0. -1.
<mgrwt>
<rscale>  0 0.62882454E+02</rscale>
<asrwt>0</asrwt>
<pdfrwt beam="1">  1        2 0.27921006E-01 0.94566319E+02</pdfrwt>
<pdfrwt beam="2">  1       -2 0.42603060E-02 0.94566319E+02</pdfrwt>
<totfact> 0.41678606E+04</totfact>
</mgrwt>
</event>
<event>
 6    1  0.1723639E-002  0.9048659E+02  0.7546771E-02  0.1432814E+00
         -2   -1    0    0    0  501 -0.00000000000E+00  0.00000000000E+00  0.48186345225E+03  0.48186345225E+03  0.00000000000E+00 0.  1.
          2   -1    0    0  501    0  0.00000000000E+00 -0.00000000000E+00 -0.52603290196E+01  0.52603290196E+01  0.00000000000E+00 0. -1.
         23    2    1    2    0    0 -0.62470771273E+01  0.80319772295E+01  0.42467440638E+03  0.43420752417E+03  0.89912646428E+02 0.  0.
         13    1    3    3    0    0  0.30403020433E+02 -0.30583410678E+01  0.58160952850E+02  0.65699265886E+02  0.00000000000E+00 0. -1.
        -13    1    3    3    0    0 -0.36650097560E+02  0.11090318297E+02  0.36651345353E+03  0.36850825829E+03  0.00000000000E+00 0.  1.
         22    1    1    2    0    0  0.62470771273E+01 -0.80319772295E+01  0.51928716858E+02  0.52916257099E+02  0.00000000000E+00 0.  1.
<mgrwt>
<rscale>  0 0.52399357E+02</rscale>
<asrwt>0</asrwt>
<pdfrwt beam="1">  1        2 0.80928177E-03 0.90486588E+02</pdfrwt>
<pdfrwt beam="2">  1       -2 0.74132804E-01 0.90486588E+02</pdfrwt>
<totfact> 0.28400022E+04</totfact>
</mgrwt>
</event>
<event>
 6    1  0.1723639E-002  0.9375536E+02  0.7546771E-02  0.1391701E+00
         -3   -1    0    0    0  501 -0.00000000000E+00  0.00000000000E+00  0.50241344791E+02  0.50241344791E+02  0.00000000000E+00 0.  1.
          3   -1    0    0  501    0  0.00000000000E+00 -0.00000000000E+00 -0.86964992399E+02  0.86964992399E+02  0.00000000000E+00 0. -1.
         23    2    1    2    0    0 -0.17218817530E+02  0.20662685940E+01  0.30618913391E+01  0.93805343510E+02  0.92137452480E+02 0.  0.
         11    1    3    3    0    0  0.21028391870E+02 -0.80153701391E+01 -0.33224494265E+02  0.40128623727E+02  0.00000000000E+00 0. -1.
        -11    1    3    3    0    0 -0.38247209400E+02  0.10081638733E+02  0.36286385604E+02  0.53676719783E+02  0.00000000000E+00 0.  1.
         22    1    1    2    0    0  0.17218817530E+02 -0.20662685940E+01 -0.39785538948E+02  0.43400993680E+02  0.00000000000E+00 0.  1.
<mgrwt>
<rscale>  0 0.61485693E+02</rscale>
<asrwt>0</asrwt>
<pdfrwt beam="1">  1        3 0.13379229E-01 0.93755359E+02</pdfrwt>
<pdfrwt beam="2">  1       -3 0.77294378E-02 0.93755359E+02</pdfrwt>
<totfact> 0.10592476E+04</totfact>
</mgrwt>
</event>
<event>
 6    1  0.1723639E-002  0.9237126E+02  0.7546771E-02  0.1409565E+00
         -1   -1    0    0    0  501 -0.00000000000E+00  0.00000000000E+00  0.77502353328E+03  0.77502353328E+03  0.00000000000E+00 0. -1.
          1   -1    0    0  501    0  0.00000000000E+00 -0.00000000000E+00 -0.40209093858E+01  0.40209093858E+01  0.00000000000E+00 0.  1.
         23    2    1    2    0    0 -0.35060785368E+01 -0.13211619092E+02  0.73005770195E+03  0.73587818155E+03  0.91354312641E+02 0.  0.
         11    1    3    3    0    0 -0.18680119730E+01  0.33556403045E+02  0.49892474918E+03  0.50005542392E+03  0.00000000000E+00 0. -1.
        -11    1    3    3    0    0 -0.16380665638E+01 -0.46768022137E+02  0.23113295278E+03  0.23582275763E+03  0.00000000000E+00 0.  1.
         22    1    1    2    0    0  0.35060785368E+01  0.13211619092E+02  0.40944921940E+02  0.43166261112E+02  0.00000000000E+00 0.  1.
<mgrwt>
<rscale>  0 0.57290978E+02</rscale>
<asrwt>0</asrwt>
<pdfrwt beam="1">  1        1 0.61860206E-03 0.92371261E+02</pdfrwt>
<pdfrwt beam="2">  1       -1 0.11923427E+00 0.92371261E+02</pdfrwt>
<totfact> 0.19227754E+04</totfact>
</mgrwt>
</event>
<event>
 6    1  0.1723639E-002  0.9080857E+02  0.7546771E-02  0.1400476E+00
          2   -1    0    0  501    0  0.00000000000E+00  0.00000000000E+00  0.23036827766E+03  0.23036827766E+03  0.00000000000E+00 0. -1.
         -2   -1    0    0    0  501 -0.00000000000E+00 -0.00000000000E+00 -0.15429434327E+02  0.15429434327E+02  0.00000000000E+00 0.  1.
         23    2    1    2    0    0 -0.16130334747E+02 -0.39060720082E+01  0.12593952938E+03  0.15526416582E+03  0.89279062662E+02 0.  0.
         13    1    3    3    0    0  0.81140974541E+01  0.32913876772E+02  0.96427571959E+02  0.10221271201E+03  0.00000000000E+00 0. -1.
        -13    1    3    3    0    0 -0.24244432201E+02 -0.36819948781E+02  0.29511957420E+02  0.53051453813E+02  0.00000000000E+00 0.  1.
         22    1    1    2    0    0  0.16130334747E+02  0.39060720082E+01  0.88999313958E+02  0.90533546172E+02  0.00000000000E+00 0. -1.
<mgrwt>
<rscale>  0 0.59374437E+02</rscale>
<asrwt>0</asrwt>
<pdfrwt beam="1">  1        2 0.35441271E-01 0.90808569E+02</pdfrwt>
<pdfrwt beam="2">  1       -2 0.23737593E-02 0.90808569E+02</pdfrwt>
<totfact> 0.75431863E+04</totfact>
</mgrwt>
</event>
<event>
 6    1  0.1723639E-002  0.9670745E+02  0.7546771E-02  0.1372762E+00
         -2   -1    0    0    0  501 -0.00000000000E+00  0.00000000000E+00  0.51081173036E+03  0.51081173036E+03  0.00000000000E+00 0.  1.
          2   -1    0    0  501    0  0.00000000000E+00 -0.00000000000E+00 -0.72381444646E+01  0.72381444646E+01  0.00000000000E+00 0. -1.
         23    2    1    2    0    0 -0.14107130851E+02 -0.16224114819E+02  0.45096506140E+03  0.46121775457E+03  0.94287313508E+02 0.  0.
         13    1    3    3    0    0 -0.84954539525E+01 -0.38503495004E+02  0.76638047593E+02  0.86186322605E+02  0.00000000000E+00 0. -1.
        -13    1    3    3    0    0 -0.56116768985E+01  0.22279380185E+02  0.37432701381E+03  0.37503143197E+03  0.00000000000E+00 0.  1.
         22    1    1    2    0    0  0.14107130851E+02  0.16224114819E+02  0.52608524491E+02  0.56832120246E+02  0.00000000000E+00 0. -1.
<mgrwt>
<rscale>  0 0.66405273E+02</rscale>
<asrwt>0</asrwt>
<pdfrwt beam="1">  1        2 0.11135611E-02 0.96707448E+02</pdfrwt>
<pdfrwt beam="2">  1       -2 0.78586392E-01 0.96707448E+02</pdfrwt>
<totfact> 0.16327242E+04</totfact>
</mgrwt>
</event>
<event>
 6    1  0.1723639E-002  0.9452189E+02  0.7546771E-02  0.1404366E+00
          4   -1    0    0  501    0  0.00000000000E+00  0.00000000000E+00  0.22373627243E+02  0.22373627243E+02  0.00000000000E+00 0. -1.
         -4   -1    0    0    0  501 -0.00000000000E+00 -0.00000000000E+00 -0.20029824611E+03  0.20029824611E+03  0.00000000000E+00 0.  1.
         23    2    1    2    0    0 -0.33997463503E+01  0.13416084937E+02 -0.18453478575E+03  0.20733421002E+03  0.93503143693E+02 0.  0.
         13    1    3    3    0    0  0.12475087910E+02  0.51339196676E+02 -0.92290282213E+02  0.10634301634E+03  0.00000000000E+00 0.  1.
        -13    1    3    3    0    0 -0.15874834260E+02 -0.37923111739E+02 -0.92244503539E+02  0.10099119367E+03  0.00000000000E+00 0. -1.
         22    1    1    2    0    0  0.33997463503E+01 -0.13416084937E+02  0.66101668866E+01  0.15337663334E+02  0.00000000000E+00 0. -1.
<mgrwt>
<rscale>  0 0.58470183E+02</rscale>
<asrwt>0</asrwt>
<pdfrwt beam="1">  1        4 0.34420967E-02 0.94521889E+02</pdfrwt>
<pdfrwt beam="2">  1       -4 0.30815113E-01 0.94521889E+02</pdfrwt>
<totfact> 0.64938920E+03</totfact>
</mgrwt>
</event>
<event>
 6    1  0.1723639E-002  0.9527844E+02  0.7546771E-02  0.1406222E+00
         -2   -1    0    0    0  501 -0.00000000000E+00  0.00000000000E+00  0.84601296312E+03  0.84601296312E+03  0.00000000000E+00 0.  1.
          2   -1    0    0  501    0  0.00000000000E+00 -0.00000000000E+00 -0.11672812160E+02  0.11672812160E+02  0.00000000000E+00 0. -1.
         23    2    1    2    0    0  0.81620863170E+01 -0.10278010695E+02  0.83851679909E+03  0.84391255683E+03  0.94370143870E+02 0.  0.
         11    1    3    3    0    0  0.47669755929E+02 -0.23375526301E+02  0.42393330699E+03  0.42724497614E+03  0.00000000000E+00 0.  1.
        -11    1    3    3    0    0 -0.39507669612E+02  0.13097515606E+02  0.41458349210E+03  0.41666758069E+03  0.00000000000E+00 0. -1.
         22    1    1    2    0    0 -0.81620863170E+01  0.10278010695E+02 -0.41766481326E+01  0.13773218451E+02  0.00000000000E+00 0. -1.
<mgrwt>
<rscale>  0 0.58045444E+02</rscale>
<asrwt>0</asrwt>
<pdfrwt beam="1">  1        2 0.17958179E-02 0.95278440E+02</pdfrwt>
<pdfrwt beam="2">  1       -2 0.13015579E+00 0.95278440E+02</pdfrwt>
<totfact> 0.26703267E+03</totfact>
</mgrwt>
</event>
<event>
 6    1  0.1723639E-002  0.9259302E+02  0.7546771E-02  0.1372364E+00
         -2   -1    0    0    0  501 -0.00000000000E+00  0.00000000000E+00  0.56225664290E+01  0.56225664290E+01  0.00000000000E+00 0.  1.
          2   -1    0    0  501    0  0.00000000000E+00 -0.00000000000E+00 -0.61403265055E+03  0.61403265055E+03  0.00000000000E+00 0. -1.
         23    2    1    2    0    0 -0.32163111989E+00 -0.24654097797E+02 -0.46268140083E+03  0.47185542971E+03  0.89249873292E+02 0.  0.
         13    1    3    3    0    0 -0.29696247866E+02  0.13946906534E+01 -0.57076191026E+02  0.64354517179E+02  0.00000000000E+00 0.  1.
        -13    1    3    3    0    0  0.29374616746E+02 -0.26048788450E+02 -0.40560520981E+03  0.40750091253E+03  0.00000000000E+00 0. -1.
         22    1    1    2    0    0  0.32163111989E+00  0.24654097797E+02 -0.14572868329E+03  0.14779978727E+03  0.00000000000E+00 0.  1.
<mgrwt>
<rscale>  0 0.66514329E+02</rscale>
<asrwt>0</asrwt>
<pdfrwt beam="1">  1        2 0.94466546E-01 0.92593023E+02</pdfrwt>
<pdfrwt beam="2">  1       -2 0.86501036E-03 0.92593023E+02</pdfrwt>
<totfact> 0.11253659E+05</totfact>
</mgrwt>
</event>
<event>
 6    1  0.1723639E-002  0.9212208E+02  0.7546771E-02  0.1399915E+00
         -2   -1    0    0    0  501 -0.00000000000E+00  0.00000000000E+00  0.41301037277E+01  0.41301037277E+01  0.00000000000E+00 0.  1.
          2   -1    0    0  501    0  0.00000000000E+00 -0.00000000000E+00 -0.70983913709E+03  0.70983913709E+03  0.00000000000E+00 0. -1.
         23    2    1    2    0    0  0.14571616939E+02  0.67006651260E+01 -0.61291309929E+03  0.61979750242E+03  0.90715190492E+02 0.  0.
         13    1    3    3    0    0 -0.17788446138E+02 -0.30349122267E+02 -0.14077878947E+03  0.14510742780E+03  0.00000000000E+00 0.  1.
        -13    1    3    3    0    0  0.32360063078E+02  0.37049787393E+02 -0.47213430982E+03  0.47469007462E+03  0.00000000000E+00 0. -1.
         22    1    1    2    0    0 -0.14571616939E+02 -0.67006651260E+01 -0.92795934075E+02  0.94171738405E+02  0.00000000000E+00 0. -1.
<mgrwt>
<rscale>  0 0.59506332E+02</rscale>
<asrwt>0</asrwt>
<pdfrwt beam="1">  1        2 0.10920601E+00 0.92122075E+02</pdfrwt>
<pdfrwt beam="2">  1       -2 0.63540062E-03 0.92122075E+02</pdfrwt>
<totfact> 0.14706221E+05</totfact>
</mgrwt>
</event>
<event>
 6    1  0.1723639E-002  0.9482420E+02  0.7546771E-02  0.1383546E+00
         -1   -1    0    0    0  501 -0.00000000000E+00  0.00000000000E+00  0.13313312889E+03  0.13313312889E+03  0.00000000000E+00 0.  1.
          1   -1    0    0  501    0  0.00000000000E+00 -0.00000000000E+00 -0.24464716187E+02  0.24464716187E+02  0.00000000000E+00 0. -1.
         23    2    1    2    0    0  0.13891503175E+02 -0.13135651473E+02  0.93786881876E+02  0.13337019229E+03  0.92876852758E+02 0.  0.
         13    1    3    3    0    0 -0.27714470122E+02  0.21426917386E+02  0.60349711203E+02  0.69780314453E+02  0.00000000000E+00 0.  1.
        -13    1    3    3    0    0  0.41605973297E+02 -0.34562568859E+02  0.33437170673E+02  0.63589877833E+02  0.00000000000E+00 0. -1.
         22    1    1    2    0    0 -0.13891503175E+02  0.13135651473E+02  0.14881530830E+02  0.24227652795E+02  0.00000000000E+00 0.  1.
<mgrwt>
<rscale>  0 0.63540871E+02</rscale>
<asrwt>0</asrwt>
<pdfrwt beam="1">  1        1 0.37638026E-02 0.94824200E+02</pdfrwt>
<pdfrwt beam="2">  1       -1 0.20482019E-01 0.94824200E+02</pdfrwt>
<totfact> 0.41760327E+04</totfact>
</mgrwt>
</event>
<event>
 6    1  0.1723639E-002  0.9223702E+02  0.7546771E-02  0.1424002E+00
          2   -1    0    0  501    0  0.00000000000E+00  0.00000000000E+00  0.85174556560E+02  0.85174556560E+02  0.00000000000E+00 0. -1.
         -2   -1    0    0    0  501 -0.00000000000E+00 -0.00000000000E+00 -0.46206505777E+02  0.46206505777E+02  0.00000000000E+00 0.  1.
         23    2    1    2    0    0  0.10983217966E+02  0.71623290192E-01  0.14077103252E+01  0.92247759613E+02  0.91580736503E+02 0.  0.
         11    1    3    3    0    0 -0.19414308216E+02  0.32220575156E+02  0.21856769191E+02  0.43506312029E+02  0.00000000000E+00 0. -1.
        -11    1    3    3    0    0  0.30397526182E+02 -0.32148951866E+02 -0.20449058866E+02  0.48741447584E+02  0.00000000000E+00 0.  1.
         22    1    1    2    0    0 -0.10983217966E+02 -0.71623290192E-01  0.37560340458E+02  0.39133302724E+02  0.00000000000E+00 0.  1.
<mgrwt>
<rscale>  0 0.54183075E+02</rscale>
<asrwt>0</asrwt>
<pdfrwt beam="1">  1        2 0.13103778E-01 0.92237018E+02</pdfrwt>
<pdfrwt beam="2">  1       -2 0.71086932E-02 0.92237018E+02</pdfrwt>
<totfact> 0.45257877E+04</totfact>
</mgrwt>
</event>
<event>
 6    1  0.1723639E-002  0.7848405E+02  0.7546771E-02  0.1411192E+00
         -4   -1    0    0    0  501 -0.00000000000E+00  0.00000000000E+00  0.77372346812E+01  0.77372346812E+01  0.00000000000E+00 0.  1.
          4   -1    0    0  501    0  0.00000000000E+00 -0.00000000000E+00 -0.35348164690E+03  0.35348164690E+03  0.00000000000E+00 0. -1.
         23    2    1    2    0    0 -0.21126237307E+02  0.50704858042E+01 -0.21929067676E+03  0.23291231534E+03  0.75416960920E+02 0.  0.
         13    1    3    3    0    0  0.42319705702E+01  0.28063861220E+02 -0.17315031850E+03  0.17546088647E+03  0.00000000000E+00 0. -1.
        -13    1    3    3    0    0 -0.25358207877E+02 -0.22993375416E+02 -0.46140358259E+02  0.57451428877E+02  0.00000000000E+00 0.  1.
         22    1    1    2    0    0  0.21126237307E+02 -0.50704858042E+01 -0.12645373546E+03  0.12830656624E+03  0.00000000000E+00 0.  1.
<mgrwt>
<rscale>  0 0.56928794E+02</rscale>
<asrwt>0</asrwt>
<pdfrwt beam="1">  1        4 0.54381805E-01 0.78484048E+02</pdfrwt>
<pdfrwt beam="2">  1       -4 0.11903435E-02 0.78484048E+02</pdfrwt>
<totfact> 0.10227827E+04</totfact>
</mgrwt>
</event>
<event>
 6    1  0.1723639E-002  0.9059042E+02  0.7546771E-02  0.1421920E+00
         -2   -1    0    0    0  501 -0.00000000000E+00  0.00000000000E+00  0.43664571720E+02  0.43664571720E+02  0.00000000000E+00 0.  1.
          2   -1    0    0  501    0  0.00000000000E+00 -0.00000000000E+00 -0.90835212997E+02  0.90835212997E+02  0.00000000000E+00 0. -1.
         23    2    1    2    0    0 -0.44365924411E+01  0.11116372423E+02 -0.50714886596E+01  0.90732265487E+02  0.89796252232E+02 0.  0.
         13    1    3    3    0    0 -0.75330203167E+01  0.46463958434E+02  0.15696018399E+02  0.49618653972E+02  0.00000000000E+00 0. -1.
        -13    1    3    3    0    0  0.30964278756E+01 -0.35347586011E+02 -0.20767507059E+02  0.41113611515E+02  0.00000000000E+00 0.  1.
         22    1    1    2    0    0  0.44365924411E+01 -0.11116372423E+02 -0.42099152618E+02  0.43767519229E+02  0.00000000000E+00 0.  1.
<mgrwt>
<rscale>  0 0.54616796E+02</rscale>
<asrwt>0</asrwt>
<pdfrwt beam="1">  1        2 0.13974648E-01 0.90590419E+02</pdfrwt>
<pdfrwt beam="2">  1       -2 0.67176265E-02 0.90590419E+02</pdfrwt>
<totfact> 0.45616622E+04</totfact>
</mgrwt>
</event>
<event>
 6    1  0.1723639E-002  0.1006077E+03  0.7546771E-02  0.1357363E+00
          4   -1    0    0  501    0  0.00000000000E+00  0.00000000000E+00  0.14841266397E+03  0.14841266397E+03  0.00000000000E+00 0.  1.
         -4   -1    0    0    0  501 -0.00000000000E+00 -0.00000000000E+00 -0.26744275253E+02  0.26744275253E+02  0.00000000000E+00 0. -1.
         23    2    1    2    0    0 -0.97243339882E+01 -0.22690691812E+02  0.89880257334E+02  0.13490876581E+03  0.97531965361E+02 0.  0.
         11    1    3    3    0    0  0.34494410085E+02 -0.51254829269E+01  0.19459383035E+01  0.34927375770E+02  0.00000000000E+00 0. -1.
        -11    1    3    3    0    0 -0.44218744073E+02 -0.17565208885E+02  0.87934319031E+02  0.99981390038E+02  0.00000000000E+00 0.  1.
         22    1    1    2    0    0  0.97243339882E+01  0.22690691812E+02  0.31788131385E+02  0.40248173416E+02  0.00000000000E+00 0. -1.
<mgrwt>
<rscale>  0 0.70809086E+02</rscale>
<asrwt>0</asrwt>
<pdfrwt beam="1">  1        4 0.22832717E-01 0.10060773E+03</pdfrwt>
<pdfrwt beam="2">  1       -4 0.41145040E-02 0.10060773E+03</pdfrwt>
<totfact> 0.86868260E+03</totfact>
</mgrwt>
</event>
<event>
 6    1  0.1723639E-002  0.9516334E+02  0.7546771E-02  0.1383861E+00
          3   -1    0    0  501    0  0.00000000000E+00  0.00000000000E+00  0.13054282509E+03  0.13054282509E+03  0.00000000000E+00 0. -1.
         -3   -1    0    0    0  501 -0.00000000000E+00 -0.00000000000E+00 -0.25211165649E+02  0.25211165649E+02  0.00000000000E+00 0.  1.
         23    2    1    2    0    0 -0.15046342492E+02  0.11302300991E+02  0.80820113831E+02  0.12485172062E+03  0.93284119297E+02 0.  0.
         11    1    3    3    0    0  0.18297878419E+02  0.33580098232E+02  0.75190824929E+02  0.84356952917E+02  0.00000000000E+00 0.  1.
        -11    1    3    3    0    0 -0.33344220912E+02 -0.22277797241E+02  0.56292889021E+01  0.40494767707E+02  0.00000000000E+00 0. -1.
         22    1    1    2    0    0  0.15046342492E+02 -0.11302300991E+02  0.24511545614E+02  0.30902270118E+02  0.00000000000E+00 0.  1.
<mgrwt>
<rscale>  0 0.63459738E+02</rscale>
<asrwt>0</asrwt>
<pdfrwt beam="1">  1        3 0.20083511E-01 0.95163340E+02</pdfrwt>
<pdfrwt beam="2">  1       -3 0.38786409E-02 0.95163340E+02</pdfrwt>
<totfact> 0.15742988E+04</totfact>
</mgrwt>
</event>
<event>
 6    1  0.1723639E-002  0.9129641E+02  0.7546771E-02  0.1407425E+00
          2   -1    0    0  501    0  0.00000000000E+00  0.00000000000E+00  0.48827437586E+02  0.48827437586E+02  0.00000000000E+00 0. -1.
         -2   -1    0    0    0  501 -0.00000000000E+00 -0.00000000000E+00 -0.61055208250E+02  0.61055208250E+02  0.00000000000E+00 0.  1.
         23    2    1    2    0    0 -0.38884744517E+01  0.14113516956E+02 -0.19773178671E+02  0.93413135325E+02  0.90115057910E+02 0.  0.
         11    1    3    3    0    0  0.27438830715E+02 -0.20251487129E+02 -0.30431090883E+02  0.45706273686E+02  0.00000000000E+00 0. -1.
        -11    1    3    3    0    0 -0.31327305166E+02  0.34365004085E+02  0.10657912212E+02  0.47706861639E+02  0.00000000000E+00 0.  1.
         22    1    1    2    0    0  0.38884744517E+01 -0.14113516956E+02  0.75454080076E+01  0.16469510510E+02  0.00000000000E+00 0. -1.
<mgrwt>
<rscale>  0 0.57772478E+02</rscale>
<asrwt>0</asrwt>
<pdfrwt beam="1">  1        2 0.75119135E-02 0.91296414E+02</pdfrwt>
<pdfrwt beam="2">  1       -2 0.93931089E-02 0.91296414E+02</pdfrwt>
<totfact> 0.57919514E+04</totfact>
</mgrwt>
</event>
<event>
 6    1  0.1723639E-002  0.1023004E+03  0.7546771E-02  0.1317410E+00
          2   -1    0    0  501    0  0.00000000000E+00  0.00000000000E+00  0.73506974933E+02  0.73506974933E+02  0.00000000000E+00 0.  1.
         -2   -1    0    0    0  501 -0.00000000000E+00 -0.00000000000E+00 -0.19739270272E+03  0.19739270272E+03  0.00000000000E+00 0. -1.
         23    2    1    2    0    0  0.30939569105E+02 -0.35454125925E+02 -0.17419541757E+03  0.20201341727E+03  0.90835704839E+02 0.  0.
         11    1    3    3    0    0  0.44223298660E+02 -0.44539516144E+02 -0.17498442187E+03  0.18590055551E+03  0.00000000000E+00 0. -1.
        -11    1    3    3    0    0 -0.13283729555E+02  0.90853902197E+01  0.78900429657E+00  0.16112861761E+02  0.00000000000E+00 0.  1.
         22    1    1    2    0    0 -0.30939569105E+02  0.35454125925E+02  0.50309689792E+02  0.68886260375E+02  0.00000000000E+00 0.  1.
<mgrwt>
<rscale>  0 0.84248362E+02</rscale>
<asrwt>0</asrwt>
<pdfrwt beam="1">  1        2 0.11308765E-01 0.10230043E+03</pdfrwt>
<pdfrwt beam="2">  1       -2 0.30368108E-01 0.10230043E+03</pdfrwt>
<totfact> 0.51185093E+03</totfact>
</mgrwt>
</event>
<event>
 6    1  0.1723639E-002  0.9466241E+02  0.7546771E-02  0.1371016E+00
         -2   -1    0    0    0  501 -0.00000000000E+00  0.00000000000E+00  0.35074040997E+03  0.35074040997E+03  0.00000000000E+00 0.  1.
          2   -1    0    0  501    0  0.00000000000E+00 -0.00000000000E+00 -0.10282845409E+02  0.10282845409E+02  0.00000000000E+00 0. -1.
         23    2    1    2    0    0  0.21585338915E+02 -0.95251028733E+01  0.29486875740E+03  0.30969106490E+03  0.91675062853E+02 0.  0.
         11    1    3    3    0    0  0.10039370349E+02 -0.46210515733E+02  0.22520388596E+03  0.23011516893E+03  0.00000000000E+00 0. -1.
        -11    1    3    3    0    0  0.11545968566E+02  0.36685412859E+02  0.69664871445E+02  0.79575895975E+02  0.00000000000E+00 0.  1.
         22    1    1    2    0    0 -0.21585338915E+02  0.95251028733E+01  0.45588807162E+02  0.51332190478E+02  0.00000000000E+00 0. -1.
<mgrwt>
<rscale>  0 0.66885407E+02</rscale>
<asrwt>0</asrwt>
<pdfrwt beam="1">  1        2 0.15819765E-02 0.94662409E+02</pdfrwt>
<pdfrwt beam="2">  1       -2 0.53960054E-01 0.94662409E+02</pdfrwt>
<totfact> 0.22024102E+04</totfact>
</mgrwt>
</event>
<event>
 6    1  0.1723639E-002  0.8754087E+02  0.7546771E-02  0.1438565E+00
          1   -1    0    0  501    0  0.00000000000E+00  0.00000000000E+00  0.14260749935E+02  0.14260749935E+02  0.00000000000E+00 0. -1.
         -1   -1    0    0    0  501 -0.00000000000E+00 -0.00000000000E+00 -0.17024617582E+03  0.17024617582E+03  0.00000000000E+00 0.  1.
         23    2    1    2    0    0 -0.84996459462E+01  0.58292086506E+01 -0.14549670155E+03  0.16980192685E+03  0.86932045559E+02 0.  0.
         11    1    3    3    0    0  0.87074960101E+01 -0.37505917767E+02 -0.85887165804E+02  0.94122896281E+02  0.00000000000E+00 0.  1.
        -11    1    3    3    0    0 -0.17207141956E+02  0.43335126418E+02 -0.59609535745E+02  0.75679030568E+02  0.00000000000E+00 0. -1.
         22    1    1    2    0    0  0.84996459462E+01 -0.58292086506E+01 -0.10488724340E+02  0.14704998911E+02  0.00000000000E+00 0.  1.
<mgrwt>
<rscale>  0 0.51278558E+02</rscale>
<asrwt>0</asrwt>
<pdfrwt beam="1">  1        1 0.21939615E-02 0.87540872E+02</pdfrwt>
<pdfrwt beam="2">  1       -1 0.26191720E-01 0.87540872E+02</pdfrwt>
<totfact> 0.58162279E+04</totfact>
</mgrwt>
</event>
<event>
 6    1  0.1723639E-002  0.1162785E+03  0.7546771E-02  0.1274382E+00
         -4   -1    0    0    0  501 -0.00000000000E+00  0.00000000000E+00  0.48777390194E+02  0.48777390194E+02  0.00000000000E+00 0. -1.
          4   -1    0    0  501    0  0.00000000000E+00 -0.00000000000E+00 -0.21094673293E+03  0.21094673293E+03  0.00000000000E+00 0.  1.
         23    2    1    2    0    0  0.23119821930E+02  0.67360786125E+02 -0.14608503976E+03  0.18671243587E+03  0.91916773183E+02 0.  0.
         13    1    3    3    0    0  0.19101509730E+02  0.28385334537E+02 -0.14341483320E+03  0.14743951056E+03  0.00000000000E+00 0.  1.
        -13    1    3    3    0    0  0.40183122005E+01  0.38975451588E+02 -0.26702065596E+01  0.39272925312E+02  0.00000000000E+00 0. -1.
         22    1    1    2    0    0 -0.23119821930E+02 -0.67360786125E+02 -0.16084302971E+02  0.73011687253E+02  0.00000000000E+00 0. -1.
<mgrwt>
<rscale>  0 0.10286605E+03</rscale>
<asrwt>0</asrwt>
<pdfrwt beam="1">  1        4 0.32453343E-01 0.11627852E+03</pdfrwt>
<pdfrwt beam="2">  1       -4 0.75042140E-02 0.11627852E+03</pdfrwt>
<totfact> 0.17833879E+03</totfact>
</mgrwt>
</event>
<event>
 6    1  0.1723639E-002  0.9308431E+02  0.7546771E-02  0.1427287E+00
          2   -1    0    0  501    0  0.00000000000E+00  0.00000000000E+00  0.88675929188E+02  0.88675929188E+02  0.00000000000E+00 0. -1.
         -2   -1    0    0    0  501 -0.00000000000E+00 -0.00000000000E+00 -0.30330730929E+02  0.30330730929E+02  0.00000000000E+00 0.  1.
         23    2    1    2    0    0  0.31723930257E+01  0.96561944175E+01  0.48972228203E+02  0.10518064349E+03  0.92527738875E+02 0.  0.
         13    1    3    3    0    0  0.24593838102E+02  0.42186411094E+02  0.95398940594E+01  0.49754997058E+02  0.00000000000E+00 0.  1.
        -13    1    3    3    0    0 -0.21421445076E+02 -0.32530216677E+02  0.39432334144E+02  0.55425646430E+02  0.00000000000E+00 0. -1.
         22    1    1    2    0    0 -0.31723930257E+01 -0.96561944175E+01  0.93729700564E+01  0.13826016629E+02  0.00000000000E+00 0.  1.
<mgrwt>
<rscale>  0 0.53508545E+02</rscale>
<asrwt>0</asrwt>
<pdfrwt beam="1">  1        2 0.13642451E-01 0.93084309E+02</pdfrwt>
<pdfrwt beam="2">  1       -2 0.46662663E-02 0.93084309E+02</pdfrwt>
<totfact> 0.81211133E+04</totfact>
</mgrwt>
</event>
<event>
 6    1  0.1979060E-002  0.1084506E+03  0.7546771E-02  0.1395314E+00
         -2   -1    0    0    0  501 -0.00000000000E+00  0.00000000000E+00  0.18986366472E+02  0.18986366472E+02  0.00000000000E+00 0.  1.
          2   -1    0    0  501    0  0.00000000000E+00 -0.00000000000E+00 -0.19059593980E+03  0.19059593980E+03  0.00000000000E+00 0. -1.
         23    2    1    2    0    0 -0.80303794183E+01 -0.68818812065E+01 -0.14597833727E+03  0.18185492731E+03  0.10793374056E+03 0.  0.
         11    1    3    3    0    0 -0.40618830752E+02  0.25818593051E+02 -0.11904529240E+03  0.12840666183E+03  0.00000000000E+00 0.  1.
        -11    1    3    3    0    0  0.32588451333E+02 -0.32700474257E+02 -0.26933044875E+02  0.53448265483E+02  0.00000000000E+00 0. -1.
         22    1    1    2    0    0  0.80303794183E+01  0.68818812065E+01 -0.25631236050E+02  0.27727378960E+02  0.00000000000E+00 0.  1.
<mgrwt>
<rscale>  0 0.60604133E+02</rscale>
<asrwt>0</asrwt>
<pdfrwt beam="1">  1        2 0.29322454E-01 0.10845063E+03</pdfrwt>
<pdfrwt beam="2">  1       -2 0.29209793E-02 0.10845063E+03</pdfrwt>
<totfact> 0.70042775E+04</totfact>
</mgrwt>
</event>
<event>
 6    1  0.1723639E-002  0.9232026E+02  0.7546771E-02  0.1424626E+00
          4   -1    0    0  501    0  0.00000000000E+00  0.00000000000E+00  0.73969329686E+02  0.73969329686E+02  0.00000000000E+00 0. -1.
         -4   -1    0    0    0  501 -0.00000000000E+00 -0.00000000000E+00 -0.36237067315E+02  0.36237067315E+02  0.00000000000E+00 0.  1.
         23    2    1    2    0    0 -0.10841668856E+02 -0.41839738757E+00  0.36551040461E+02  0.99292546847E+02  0.91680502075E+02 0.  0.
         13    1    3    3    0    0 -0.51129967924E+01 -0.83030822653E+01 -0.30250766464E+02  0.31783530059E+02  0.00000000000E+00 0.  1.
        -13    1    3    3    0    0 -0.57286720638E+01  0.78846848778E+01  0.66801806926E+02  0.67509016789E+02  0.00000000000E+00 0. -1.
         22    1    1    2    0    0  0.10841668856E+02  0.41839738757E+00  0.11812219098E+01  0.10913850153E+02  0.00000000000E+00 0. -1.
<mgrwt>
<rscale>  0 0.54053971E+02</rscale>
<asrwt>0</asrwt>
<pdfrwt beam="1">  1        4 0.11379897E-01 0.92320265E+02</pdfrwt>
<pdfrwt beam="2">  1       -4 0.55749334E-02 0.92320265E+02</pdfrwt>
<totfact> 0.17627813E+04</totfact>
</mgrwt>
</event>
<event>
 6    1  0.1723639E-002  0.9214597E+02  0.7546771E-02  0.1400451E+00
         -2   -1    0    0    0  501 -0.00000000000E+00  0.00000000000E+00  0.35320830949E+02  0.35320830949E+02  0.00000000000E+00 0.  1.
          2   -1    0    0  501    0  0.00000000000E+00 -0.00000000000E+00 -0.10029239055E+03  0.10029239055E+03  0.00000000000E+00 0. -1.
         23    2    1    2    0    0  0.11373997564E+02  0.11096850139E+02 -0.29513074543E+02  0.96756921286E+02  0.90765479915E+02 0.  0.
         11    1    3    3    0    0  0.89769490248E+01  0.28210239498E+02  0.25513221898E+02  0.39081040390E+02  0.00000000000E+00 0.  1.
        -11    1    3    3    0    0  0.23970485393E+01 -0.17113389359E+02 -0.55026296441E+02  0.57675880896E+02  0.00000000000E+00 0. -1.
         22    1    1    2    0    0 -0.11373997564E+02 -0.11096850139E+02 -0.35458485056E+02  0.38856300210E+02  0.00000000000E+00 0. -1.
<mgrwt>
<rscale>  0 0.59380198E+02</rscale>
<asrwt>0</asrwt>
<pdfrwt beam="1">  1        2 0.15429598E-01 0.92145972E+02</pdfrwt>
<pdfrwt beam="2">  1       -2 0.54339741E-02 0.92145972E+02</pdfrwt>
<totfact> 0.56042945E+04</totfact>
</mgrwt>
</event>
<event>
 6    1  0.1723639E-002  0.9290699E+02  0.7546771E-02  0.1423324E+00
          2   -1    0    0  501    0  0.00000000000E+00  0.00000000000E+00  0.14755882095E+02  0.14755882095E+02  0.00000000000E+00 0. -1.
         -2   -1    0    0    0  501 -0.00000000000E+00 -0.00000000000E+00 -0.21032407090E+03  0.21032407090E+03  0.00000000000E+00 0.  1.
         23    2    1    2    0    0  0.46243088194E+01 -0.98258735607E+01 -0.19257560786E+03  0.21381551497E+03  0.92270134249E+02 0.  0.
         13    1    3    3    0    0 -0.81889765804E+01 -0.15257015530E+02  0.31464376050E+01  0.17599316178E+02  0.00000000000E+00 0. -1.
        -13    1    3    3    0    0  0.12813285400E+02  0.54311419696E+01 -0.19572204547E+03  0.19621619879E+03  0.00000000000E+00 0.  1.
         22    1    1    2    0    0 -0.46243088194E+01  0.98258735607E+01 -0.29925809377E+01  0.11264438022E+02  0.00000000000E+00 0. -1.
<mgrwt>
<rscale>  0 0.54323817E+02</rscale>
<asrwt>0</asrwt>
<pdfrwt beam="1">  1        2 0.22701358E-02 0.92906995E+02</pdfrwt>
<pdfrwt beam="2">  1       -2 0.32357548E-01 0.92906995E+02</pdfrwt>
<totfact> 0.35550219E+04</totfact>
</mgrwt>
</event>
<event>
 6    1  0.1723639E-002  0.9166313E+02  0.7546771E-02  0.1412096E+00
         -2   -1    0    0    0  501 -0.00000000000E+00  0.00000000000E+00  0.77795123181E+02  0.77795123181E+02  0.00000000000E+00 0.  1.
          2   -1    0    0  501    0  0.00000000000E+00 -0.00000000000E+00 -0.39360903532E+02  0.39360903532E+02  0.00000000000E+00 0. -1.
         23    2    1    2    0    0 -0.97842022832E+01 -0.92247192839E+01  0.45088679736E+02  0.10215243050E+03  0.90671406502E+02 0.  0.
         11    1    3    3    0    0  0.82763442652E+01 -0.19250532530E+02 -0.22932353554E+02  0.31064026084E+02  0.00000000000E+00 0. -1.
        -11    1    3    3    0    0 -0.18060546548E+02  0.10025813246E+02  0.68021033290E+02  0.71088404418E+02  0.00000000000E+00 0.  1.
         22    1    1    2    0    0  0.97842022832E+01  0.92247192839E+01 -0.66544600873E+01  0.15003596210E+02  0.00000000000E+00 0. -1.
<mgrwt>
<rscale>  0 0.56728807E+02</rscale>
<asrwt>0</asrwt>
<pdfrwt beam="1">  1        2 0.60555236E-02 0.91663133E+02</pdfrwt>
<pdfrwt beam="2">  1       -2 0.11968480E-01 0.91663133E+02</pdfrwt>
<totfact> 0.52053977E+04</totfact>
</mgrwt>
</event>
<event>
 6    1  0.1723639E-002  0.8815685E+02  0.7546771E-02  0.1435665E+00
          3   -1    0    0  501    0  0.00000000000E+00  0.00000000000E+00  0.77361253566E+01  0.77361253566E+01  0.00000000000E+00 0. -1.
         -3   -1    0    0    0  501 -0.00000000000E+00 -0.00000000000E+00 -0.31509167764E+03  0.31509167764E+03  0.00000000000E+00 0.  1.
         23    2    1    2    0    0  0.16593171358E+01 -0.10409390507E+02 -0.27136447541E+03  0.28532491833E+03  0.87524406649E+02 0.  0.
         13    1    3    3    0    0  0.37226243549E+02  0.19721834797E+01 -0.60045604692E+02  0.70676427183E+02  0.00000000000E+00 0. -1.
        -13    1    3    3    0    0 -0.35566926413E+02 -0.12381573987E+02 -0.21131887072E+03  0.21464849115E+03  0.00000000000E+00 0.  1.
         22    1    1    2    0    0 -0.16593171358E+01  0.10409390507E+02 -0.35991076870E+02  0.37502884667E+02  0.00000000000E+00 0. -1.
<mgrwt>
<rscale>  0 0.51839474E+02</rscale>
<asrwt>0</asrwt>
<pdfrwt beam="1">  1        3 0.11901731E-02 0.88156852E+02</pdfrwt>
<pdfrwt beam="2">  1       -3 0.48475645E-01 0.88156852E+02</pdfrwt>
<totfact> 0.18157693E+04</totfact>
</mgrwt>
</event>
<event>
 6    1  0.1723639E-002  0.9164764E+02  0.7546771E-02  0.1430440E+00
         -2   -1    0    0    0  501 -0.00000000000E+00  0.00000000000E+00  0.26670263344E+01  0.26670263344E+01  0.00000000000E+00 0. -1.
          2   -1    0    0  501    0  0.00000000000E+00 -0.00000000000E+00 -0.10219504556E+04  0.10219504556E+04  0.00000000000E+00 0.  1.
         23    2    1    2    0    0  0.16832202925E+01 -0.10011096389E+02 -0.96868403209E+03  0.97300978604E+03  0.91083667109E+02 0.  0.
         13    1    3    3    0    0  0.41362563194E+01 -0.49199143501E+02 -0.41309703083E+03  0.41603704308E+03  0.00000000000E+00 0. -1.
        -13    1    3    3    0    0 -0.24530360269E+01  0.39188047112E+02 -0.55558700126E+03  0.55697274295E+03  0.00000000000E+00 0.  1.
         22    1    1    2    0    0 -0.16832202925E+01  0.10011096389E+02 -0.50599397200E+02  0.51607695923E+02  0.00000000000E+00 0. -1.
<mgrwt>
<rscale>  0 0.52871879E+02</rscale>
<asrwt>0</asrwt>
<pdfrwt beam="1">  1        2 0.15722316E+00 0.91647639E+02</pdfrwt>
<pdfrwt beam="2">  1       -2 0.41031172E-03 0.91647639E+02</pdfrwt>
<totfact> 0.17151113E+05</totfact>
</mgrwt>
</event>
<event>
 6    1  0.1723639E-002  0.9176481E+02  0.7546771E-02  0.1422502E+00
         -4   -1    0    0    0  501 -0.00000000000E+00  0.00000000000E+00  0.94499076694E+02  0.94499076694E+02  0.00000000000E+00 0.  1.
          4   -1    0    0  501    0  0.00000000000E+00 -0.00000000000E+00 -0.28204436253E+02  0.28204436253E+02  0.00000000000E+00 0. -1.
         23    2    1    2    0    0 -0.76963372124E+01 -0.84275694984E+01  0.60393164321E+02  0.10985497394E+03  0.91052311719E+02 0.  0.
         13    1    3    3    0    0 -0.28249836349E+00  0.34997752705E+01 -0.24023185268E+02  0.24278419691E+02  0.00000000000E+00 0. -1.
        -13    1    3    3    0    0 -0.74138388489E+01 -0.11927344769E+02  0.84416349589E+02  0.85576554252E+02  0.00000000000E+00 0.  1.
         22    1    1    2    0    0  0.76963372124E+01  0.84275694984E+01  0.59014761203E+01  0.12848539004E+02  0.00000000000E+00 0.  1.
<mgrwt>
<rscale>  0 0.54495105E+02</rscale>
<asrwt>0</asrwt>
<pdfrwt beam="1">  1        4 0.43391441E-02 0.91764814E+02</pdfrwt>
<pdfrwt beam="2">  1       -4 0.14538319E-01 0.91764814E+02</pdfrwt>
<totfact> 0.17266132E+04</totfact>
</mgrwt>
</event>
<event>
 6    1  0.1723639E-002  0.9101299E+02  0.7546771E-02  0.1403953E+00
         -2   -1    0    0    0  501 -0.00000000000E+00  0.00000000000E+00  0.31310235285E+02  0.31310235285E+02  0.00000000000E+00 0.  1.
          2   -1    0    0  501    0  0.00000000000E+00 -0.00000000000E+00 -0.91220207192E+02  0.91220207192E+02  0.00000000000E+00 0. -1.
         23    2    1    2    0    0 -0.13913115493E+02  0.70659393781E+01 -0.47963137573E+02  0.10287772937E+03  0.89665279523E+02 0.  0.
         11    1    3    3    0    0  0.14315511830E+02 -0.35105932343E+02 -0.32191351896E+02  0.49735736664E+02  0.00000000000E+00 0. -1.
        -11    1    3    3    0    0 -0.28228627323E+02  0.42171871721E+02 -0.15771785677E+02  0.53141992703E+02  0.00000000000E+00 0.  1.
         22    1    1    2    0    0  0.13913115493E+02 -0.70659393781E+01 -0.11946834333E+02  0.19652713110E+02  0.00000000000E+00 0. -1.
<mgrwt>
<rscale>  0 0.58565307E+02</rscale>
<asrwt>0</asrwt>
<pdfrwt beam="1">  1        2 0.14033878E-01 0.91012992E+02</pdfrwt>
<pdfrwt beam="2">  1       -2 0.48169593E-02 0.91012992E+02</pdfrwt>
<totfact> 0.74708103E+04</totfact>
</mgrwt>
</event>
<event>
 6    1  0.1723639E-002  0.9388040E+02  0.7546771E-02  0.1418529E+00
          2   -1    0    0  501    0  0.00000000000E+00  0.00000000000E+00  0.27783592423E+03  0.27783592423E+03  0.00000000000E+00 0. -1.
         -2   -1    0    0    0  501 -0.00000000000E+00 -0.00000000000E+00 -0.10560754964E+02  0.10560754964E+02  0.00000000000E+00 0.  1.
         23    2    1    2    0    0  0.34415190094E+01  0.10794528684E+02  0.25479860046E+03  0.27154346965E+03  0.93194223068E+02 0.  0.
         13    1    3    3    0    0  0.26207713336E+01 -0.40651663263E+02  0.87628214585E+02  0.96634001054E+02  0.00000000000E+00 0. -1.
        -13    1    3    3    0    0  0.82074767582E+00  0.51446191947E+02  0.16717038587E+03  0.17490946860E+03  0.00000000000E+00 0.  1.
         22    1    1    2    0    0 -0.34415190094E+01 -0.10794528684E+02  0.12476568809E+02  0.16853209541E+02  0.00000000000E+00 0. -1.
<mgrwt>
<rscale>  0 0.55333406E+02</rscale>
<asrwt>0</asrwt>
<pdfrwt beam="1">  1        2 0.42743983E-01 0.93880398E+02</pdfrwt>
<pdfrwt beam="2">  1       -2 0.16247317E-02 0.93880398E+02</pdfrwt>
<totfact> 0.10731341E+05</totfact>
</mgrwt>
</event>
<event>
 6    1  0.1723639E-002  0.9402821E+02  0.7546771E-02  0.1374162E+00
         -2   -1    0    0    0  501 -0.00000000000E+00  0.00000000000E+00  0.50343129552E+01  0.50343129552E+01  0.00000000000E+00 0.  1.
          2   -1    0    0  501    0  0.00000000000E+00 -0.00000000000E+00 -0.67854252572E+03  0.67854252572E+03  0.00000000000E+00 0. -1.
         23    2    1    2    0    0  0.99989817736E+01  0.20554183253E+02 -0.54486059537E+03  0.55291443571E+03  0.91207734051E+02 0.  0.
         13    1    3    3    0    0  0.96183061653E+01  0.41882045068E+02 -0.51159806423E+03  0.51339964631E+03  0.00000000000E+00 0. -1.
        -13    1    3    3    0    0  0.38067560833E+00 -0.21327861816E+02 -0.33262531139E+02  0.39514789400E+02  0.00000000000E+00 0.  1.
         22    1    1    2    0    0 -0.99989817736E+01 -0.20554183253E+02 -0.12864761739E+03  0.13066240296E+03  0.00000000000E+00 0. -1.
<mgrwt>
<rscale>  0 0.66023669E+02</rscale>
<asrwt>0</asrwt>
<pdfrwt beam="1">  1        2 0.10439116E+00 0.94028213E+02</pdfrwt>
<pdfrwt beam="2">  1       -2 0.77450969E-03 0.94028213E+02</pdfrwt>
<totfact> 0.11762105E+05</totfact>
</mgrwt>
</event>
<event>
 6    1  0.1723639E-002  0.9338828E+02  0.7546771E-02  0.1405548E+00
         -2   -1    0    0    0  501 -0.00000000000E+00  0.00000000000E+00  0.20171894076E+03  0.20171894076E+03  0.00000000000E+00 0.  1.
          2   -1    0    0  501    0  0.00000000000E+00 -0.00000000000E+00 -0.17615763913E+02  0.17615763913E+02  0.00000000000E+00 0. -1.
         23    2    1    2    0    0  0.13786180934E+02  0.28912210521E+01  0.18269297236E+03  0.20517820014E+03  0.92319844664E+02 0.  0.
         11    1    3    3    0    0  0.28161739150E+02  0.32696501370E+02  0.15827827963E+03  0.16405535211E+03  0.00000000000E+00 0. -1.
        -11    1    3    3    0    0 -0.14375558216E+02 -0.29805280318E+02  0.24414692731E+02  0.41122848029E+02  0.00000000000E+00 0.  1.
         22    1    1    2    0    0 -0.13786180934E+02 -0.28912210521E+01  0.14102044863E+01  0.14156504534E+02  0.00000000000E+00 0.  1.
<mgrwt>
<rscale>  0 0.58199187E+02</rscale>
<asrwt>0</asrwt>
<pdfrwt beam="1">  1        2 0.27101177E-02 0.93388284E+02</pdfrwt>
<pdfrwt beam="2">  1       -2 0.31033681E-01 0.93388284E+02</pdfrwt>
<totfact> 0.30252102E+04</totfact>
</mgrwt>
</event>
<event>
 6    1  0.1723639E-002  0.9306089E+02  0.7546771E-02  0.1385361E+00
          1   -1    0    0  501    0  0.00000000000E+00  0.00000000000E+00  0.14762095248E+03  0.14762095248E+03  0.00000000000E+00 0. -1.
         -1   -1    0    0    0  501 -0.00000000000E+00 -0.00000000000E+00 -0.49153583850E+02  0.49153583850E+02  0.00000000000E+00 0.  1.
         23    2    1    2    0    0  0.15585166724E+02 -0.11950753762E+02 -0.33098404517E+01  0.93119733133E+02  0.90964892776E+02 0.  0.
         13    1    3    3    0    0 -0.13589696415E+02  0.88561397215E+01  0.36267720620E+02  0.39729820266E+02  0.00000000000E+00 0. -1.
        -13    1    3    3    0    0  0.29174863139E+02 -0.20806893484E+02 -0.39577561071E+02  0.53389912867E+02  0.00000000000E+00 0.  1.
         22    1    1    2    0    0 -0.15585166724E+02  0.11950753762E+02  0.10177720908E+03  0.10365480320E+03  0.00000000000E+00 0. -1.
<mgrwt>
<rscale>  0 0.63075273E+02</rscale>
<asrwt>0</asrwt>
<pdfrwt beam="1">  1        1 0.22710916E-01 0.93060892E+02</pdfrwt>
<pdfrwt beam="2">  1       -1 0.75620899E-02 0.93060892E+02</pdfrwt>
<totfact> 0.18170696E+04</totfact>
</mgrwt>
</event>
<event>
 6    1  0.1723639E-002  0.1836600E+03  0.7546771E-02  0.1170121E+00
         -2   -1    0    0    0  501 -0.00000000000E+00  0.00000000000E+00  0.47259191604E+03  0.47259191604E+03  0.00000000000E+00 0.  1.
          2   -1    0    0  501    0  0.00000000000E+00 -0.00000000000E+00 -0.84067736902E+02  0.84067736902E+02  0.00000000000E+00 0. -1.
         23    2    1    2    0    0 -0.13610743151E+03 -0.85410793441E+02  0.34393616921E+03  0.38990136326E+03  0.88942386055E+02 0.  0.
         13    1    3    3    0    0 -0.18814370704E+02 -0.17331221457E+02  0.67385357776E+01  0.26452970468E+02  0.00000000000E+00 0. -1.
        -13    1    3    3    0    0 -0.11729306081E+03 -0.68079571984E+02  0.33719763343E+03  0.36344839279E+03  0.00000000000E+00 0.  1.
         22    1    1    2    0    0  0.13610743151E+03  0.85410793441E+02  0.44588009936E+02  0.16675828968E+03  0.00000000000E+00 0. -1.
<mgrwt>
<rscale>  0 0.17762574E+03</rscale>
<asrwt>0</asrwt>
<pdfrwt beam="1">  1        2 0.12933498E-01 0.18365997E+03</pdfrwt>
<pdfrwt beam="2">  1       -2 0.72706447E-01 0.18365997E+03</pdfrwt>
<totfact> 0.81141637E+02</totfact>
</mgrwt>
</event>
<event>
 6    1  0.1723639E-002  0.9242883E+02  0.7546771E-02  0.1427248E+00
          2   -1    0    0  501    0  0.00000000000E+00  0.00000000000E+00  0.27597842602E+02  0.27597842602E+02  0.00000000000E+00 0. -1.
         -2   -1    0    0    0  501 -0.00000000000E+00 -0.00000000000E+00 -0.11878341066E+03  0.11878341066E+03  0.00000000000E+00 0.  1.
         23    2    1    2    0    0 -0.90437880837E+00  0.10348398609E+02 -0.97400945114E+02  0.13427595828E+03  0.91843244757E+02 0.  0.
         11    1    3    3    0    0 -0.31967391316E+02 -0.20835296544E+02 -0.15280907230E+02  0.41103890514E+02  0.00000000000E+00 0. -1.
        -11    1    3    3    0    0  0.31063012507E+02  0.31183695153E+02 -0.82120037883E+02  0.93172067764E+02  0.00000000000E+00 0.  1.
         22    1    1    2    0    0  0.90437880837E+00 -0.10348398609E+02  0.62153770540E+01  0.12105294987E+02  0.00000000000E+00 0. -1.
<mgrwt>
<rscale>  0 0.53516404E+02</rscale>
<asrwt>0</asrwt>
<pdfrwt beam="1">  1        2 0.42458219E-02 0.92428831E+02</pdfrwt>
<pdfrwt beam="2">  1       -2 0.18274371E-01 0.92428831E+02</pdfrwt>
<totfact> 0.41540869E+04</totfact>
</mgrwt>
</event>
<event>
 6    1  0.1723639E-002  0.9050993E+02  0.7546771E-02  0.1410316E+00
         -2   -1    0    0    0  501 -0.00000000000E+00  0.00000000000E+00  0.54131121006E+03  0.54131121006E+03  0.00000000000E+00 0.  1.
          2   -1    0    0  501    0  0.00000000000E+00 -0.00000000000E+00 -0.18779642626E+02  0.18779642626E+02  0.00000000000E+00 0. -1.
         23    2    1    2    0    0 -0.11888899063E+02 -0.80544861204E+01  0.53406012030E+03  0.54167541898E+03  0.89363453131E+02 0.  0.
         13    1    3    3    0    0  0.34551866439E+02 -0.18464877484E+02  0.16650330115E+03  0.17105008760E+03  0.00000000000E+00 0. -1.
        -13    1    3    3    0    0 -0.46440765503E+02  0.10410391363E+02  0.36755681916E+03  0.37062533137E+03  0.00000000000E+00 0.  1.
         22    1    1    2    0    0  0.11888899063E+02  0.80544861204E+01 -0.11528552868E+02  0.18415433713E+02  0.00000000000E+00 0. -1.
<mgrwt>
<rscale>  0 0.57123353E+02</rscale>
<asrwt>0</asrwt>
<pdfrwt beam="1">  1        2 0.28891762E-02 0.90509930E+02</pdfrwt>
<pdfrwt beam="2">  1       -2 0.83278636E-01 0.90509930E+02</pdfrwt>
<totfact> 0.39331956E+03</totfact>
</mgrwt>
</event>
<event>
 6    1  0.1723639E-002  0.9172091E+02  0.7546771E-02  0.1404305E+00
          1   -1    0    0  501    0  0.00000000000E+00  0.00000000000E+00  0.56117547122E+01  0.56117547122E+01  0.00000000000E+00 0. -1.
         -1   -1    0    0    0  501 -0.00000000000E+00 -0.00000000000E+00 -0.60653659457E+03  0.60653659457E+03  0.00000000000E+00 0.  1.
         23    2    1    2    0    0 -0.42794846324E+01  0.14545358367E+02 -0.57370502804E+03  0.58099069221E+03  0.90459072510E+02 0.  0.
         11    1    3    3    0    0 -0.11105154108E+02  0.34980136115E+02 -0.95632502980E+02  0.10243295367E+03  0.00000000000E+00 0. -1.
        -11    1    3    3    0    0  0.68256694761E+01 -0.20434777747E+02 -0.47807252506E+03  0.47855773855E+03  0.00000000000E+00 0.  1.
         22    1    1    2    0    0  0.42794846324E+01 -0.14545358367E+02 -0.27219811820E+02  0.31157657073E+02  0.00000000000E+00 0. -1.
<mgrwt>
<rscale>  0 0.58484294E+02</rscale>
<asrwt>0</asrwt>
<pdfrwt beam="1">  1        1 0.86334743E-03 0.91720909E+02</pdfrwt>
<pdfrwt beam="2">  1       -1 0.93313262E-01 0.91720909E+02</pdfrwt>
<totfact> 0.20849485E+04</totfact>
</mgrwt>
</event>
<event>
 6    1  0.1723639E-002  0.9114747E+02  0.7546771E-02  0.1399894E+00
         -1   -1    0    0    0  501 -0.00000000000E+00  0.00000000000E+00  0.77077003785E+02  0.77077003785E+02  0.00000000000E+00 0.  1.
          1   -1    0    0  501    0  0.00000000000E+00 -0.00000000000E+00 -0.54425345389E+02  0.54425345389E+02  0.00000000000E+00 0. -1.
         23    2    1    2    0    0 -0.16482478586E+02  0.16402332005E+01  0.46611607447E+02  0.10237432789E+03  0.89629786328E+02 0.  0.
         13    1    3    3    0    0  0.19058755107E+02 -0.23692992782E+02 -0.89714962228E+01  0.31703025055E+02  0.00000000000E+00 0. -1.
        -13    1    3    3    0    0 -0.35541233693E+02  0.25333225982E+02  0.55583103670E+02  0.70671302837E+02  0.00000000000E+00 0.  1.
         22    1    1    2    0    0  0.16482478586E+02 -0.16402332005E+01 -0.23959949051E+02  0.29128021282E+02  0.00000000000E+00 0. -1.
<mgrwt>
<rscale>  0 0.59511246E+02</rscale>
<asrwt>0</asrwt>
<pdfrwt beam="1">  1        1 0.83731301E-02 0.91147469E+02</pdfrwt>
<pdfrwt beam="2">  1       -1 0.11858001E-01 0.91147469E+02</pdfrwt>
<totfact> 0.33192295E+04</totfact>
</mgrwt>
</event>
<event>
 6    1  0.1723639E-002  0.2150198E+03  0.7546771E-02  0.1141750E+00
          2   -1    0    0  501    0  0.00000000000E+00  0.00000000000E+00  0.11134922391E+04  0.11134922391E+04  0.00000000000E+00 0. -1.
         -2   -1    0    0    0  501 -0.00000000000E+00 -0.00000000000E+00 -0.38855198993E+02  0.38855198993E+02  0.00000000000E+00 0.  1.
         23    2    1    2    0    0  0.10398940877E+03 -0.16468697258E+03  0.66218071684E+03  0.69621608127E+03  0.91092996387E+02 0.  0.
         11    1    3    3    0    0  0.10358094704E+03 -0.95755975665E+02  0.51005259832E+03  0.52919927486E+03  0.00000000000E+00 0. -1.
        -11    1    3    3    0    0  0.40846172377E+00 -0.68930996918E+02  0.15212811852E+03  0.16701680640E+03  0.00000000000E+00 0.  1.
         22    1    1    2    0    0 -0.10398940877E+03  0.16468697258E+03  0.41245632327E+03  0.45613135682E+03  0.00000000000E+00 0.  1.
<mgrwt>
<rscale>  0 0.20976825E+03</rscale>
<asrwt>0</asrwt>
<pdfrwt beam="1">  1        2 0.17130647E+00 0.21501984E+03</pdfrwt>
<pdfrwt beam="2">  1       -2 0.59777238E-02 0.21501984E+03</pdfrwt>
<totfact> 0.33225089E+03</totfact>
</mgrwt>
</event>
<event>
 6    1  0.1723639E-002  0.9308870E+02  0.7546771E-02  0.1398617E+00
         -2   -1    0    0    0  501 -0.00000000000E+00  0.00000000000E+00  0.12672000997E+03  0.12672000997E+03  0.00000000000E+00 0.  1.
          2   -1    0    0  501    0  0.00000000000E+00 -0.00000000000E+00 -0.48740681255E+02  0.48740681255E+02  0.00000000000E+00 0. -1.
         23    2    1    2    0    0  0.11138108525E+02  0.11300736229E+02  0.10734278000E+03  0.14208440664E+03  0.91726452524E+02 0.  0.
         11    1    3    3    0    0 -0.39292636433E+02  0.85919729948E+01  0.32081601724E+02  0.51448638922E+02  0.00000000000E+00 0.  1.
        -11    1    3    3    0    0  0.50430744958E+02  0.27087632339E+01  0.75261178274E+02  0.90635767721E+02  0.00000000000E+00 0. -1.
         22    1    1    2    0    0 -0.11138108525E+02 -0.11300736229E+02 -0.29363451286E+02  0.33376284579E+02  0.00000000000E+00 0. -1.
<mgrwt>
<rscale>  0 0.59813188E+02</rscale>
<asrwt>0</asrwt>
<pdfrwt beam="1">  1        2 0.74985664E-02 0.93088701E+02</pdfrwt>
<pdfrwt beam="2">  1       -2 0.19495386E-01 0.93088701E+02</pdfrwt>
<totfact> 0.18047098E+04</totfact>
</mgrwt>
</event>
<event>
 6    1  0.1723639E-002  0.9208779E+02  0.7546771E-02  0.1420571E+00
          1   -1    0    0  501    0  0.00000000000E+00  0.00000000000E+00  0.85802086312E+02  0.85802086312E+02  0.00000000000E+00 0. -1.
         -1   -1    0    0    0  501 -0.00000000000E+00 -0.00000000000E+00 -0.32643146303E+02  0.32643146303E+02  0.00000000000E+00 0.  1.
         23    2    1    2    0    0  0.90051796375E+01 -0.73644480179E+01  0.38704321041E+02  0.99890870206E+02  0.91350058174E+02 0.  0.
         13    1    3    3    0    0 -0.67072554933E+01  0.32827506160E+02  0.45185666622E+02  0.56252794642E+02  0.00000000000E+00 0. -1.
        -13    1    3    3    0    0  0.15712435131E+02 -0.40191954178E+02 -0.64813455805E+01  0.43638075564E+02  0.00000000000E+00 0.  1.
         22    1    1    2    0    0 -0.90051796375E+01  0.73644480179E+01  0.14454618968E+02  0.18554362409E+02  0.00000000000E+00 0.  1.
<mgrwt>
<rscale>  0 0.54900354E+02</rscale>
<asrwt>0</asrwt>
<pdfrwt beam="1">  1        1 0.13200321E-01 0.92087792E+02</pdfrwt>
<pdfrwt beam="2">  1       -1 0.50220225E-02 0.92087792E+02</pdfrwt>
<totfact> 0.66066349E+04</totfact>
</mgrwt>
</event>
<event>
 6    1  0.1723639E-002  0.9666882E+02  0.7546771E-02  0.1372779E+00
         -3   -1    0    0    0  501 -0.00000000000E+00  0.00000000000E+00  0.51638215947E+02  0.51638215947E+02  0.00000000000E+00 0.  1.
          3   -1    0    0  501    0  0.00000000000E+00 -0.00000000000E+00 -0.69691180286E+02  0.69691180286E+02  0.00000000000E+00 0. -1.
         23    2    1    2    0    0 -0.15535326710E+02  0.14890713458E+02 -0.64559777505E+01  0.96884154954E+02  0.94243196620E+02 0.  0.
         13    1    3    3    0    0  0.34117933796E+02 -0.86019560573E+01  0.14548583692E+02  0.38074773039E+02  0.00000000000E+00 0. -1.
        -13    1    3    3    0    0 -0.49653260506E+02  0.23492669515E+02 -0.21004561443E+02  0.58809381915E+02  0.00000000000E+00 0.  1.
         22    1    1    2    0    0  0.15535326710E+02 -0.14890713458E+02 -0.11596986589E+02  0.24445241279E+02  0.00000000000E+00 0. -1.
<mgrwt>
<rscale>  0 0.66400564E+02</rscale>
<asrwt>0</asrwt>
<pdfrwt beam="1">  1        3 0.10721720E-01 0.96668815E+02</pdfrwt>
<pdfrwt beam="2">  1       -3 0.79443409E-02 0.96668815E+02</pdfrwt>
<totfact> 0.14753618E+04</totfact>
</mgrwt>
</event>
<event>
 6    1  0.1723639E-002  0.9128307E+02  0.7546771E-02  0.1398150E+00
         -3   -1    0    0    0  501 -0.00000000000E+00  0.00000000000E+00  0.29411917339E+02  0.29411917339E+02  0.00000000000E+00 0.  1.
          3   -1    0    0  501    0  0.00000000000E+00 -0.00000000000E+00 -0.13386784128E+03  0.13386784128E+03  0.00000000000E+00 0. -1.
         23    2    1    2    0    0  0.13151271270E+02 -0.10697548624E+02 -0.45615617553E+02  0.10204598413E+03  0.89695065803E+02 0.  0.
         11    1    3    3    0    0  0.32083319583E+01 -0.35085247292E+02 -0.61797605254E+02  0.71135167018E+02  0.00000000000E+00 0.  1.
        -11    1    3    3    0    0  0.99429393118E+01  0.24387698668E+02  0.16181987701E+02  0.30910817110E+02  0.00000000000E+00 0. -1.
         22    1    1    2    0    0 -0.13151271270E+02  0.10697548624E+02 -0.58840306392E+02  0.61233774495E+02  0.00000000000E+00 0. -1.
<mgrwt>
<rscale>  0 0.59924205E+02</rscale>
<asrwt>0</asrwt>
<pdfrwt beam="1">  1        3 0.20595052E-01 0.91283067E+02</pdfrwt>
<pdfrwt beam="2">  1       -3 0.45249105E-02 0.91283067E+02</pdfrwt>
<totfact> 0.11736563E+04</totfact>
</mgrwt>
</event>
<event>
 6    1  0.1723639E-002  0.9151550E+02  0.7546771E-02  0.1420639E+00
          2   -1    0    0  501    0  0.00000000000E+00  0.00000000000E+00  0.56208406600E+02  0.56208406600E+02  0.00000000000E+00 0.  1.
         -2   -1    0    0    0  501 -0.00000000000E+00 -0.00000000000E+00 -0.84842601320E+02  0.84842601320E+02  0.00000000000E+00 0. -1.
         23    2    1    2    0    0 -0.66034481521E+01  0.98278928224E+01 -0.58709774457E+02  0.10872867042E+03  0.90746312046E+02 0.  0.
         11    1    3    3    0    0  0.17584127116E+02 -0.26964046982E+02 -0.56027066861E+02  0.64616511645E+02  0.00000000000E+00 0. -1.
        -11    1    3    3    0    0 -0.24187575268E+02  0.36791939804E+02 -0.26827075963E+01  0.44112158777E+02  0.00000000000E+00 0.  1.
         22    1    1    2    0    0  0.66034481521E+01 -0.98278928224E+01  0.30075579738E+02  0.32322337499E+02  0.00000000000E+00 0.  1.
<mgrwt>
<rscale>  0 0.54886024E+02</rscale>
<asrwt>0</asrwt>
<pdfrwt beam="1">  1        2 0.86474472E-02 0.91515497E+02</pdfrwt>
<pdfrwt beam="2">  1       -2 0.13052708E-01 0.91515497E+02</pdfrwt>
<totfact> 0.29033764E+04</totfact>
</mgrwt>
</event>
<event>
 6    1  0.1723639E-002  0.9483637E+02  0.7546771E-02  0.1362691E+00
         -1   -1    0    0    0  501 -0.00000000000E+00  0.00000000000E+00  0.38146095925E+03  0.38146095925E+03  0.00000000000E+00 0.  1.
          1   -1    0    0  501    0  0.00000000000E+00 -0.00000000000E+00 -0.18238094676E+02  0.18238094676E+02  0.00000000000E+00 0. -1.
         23    2    1    2    0    0  0.54799609379E+01  0.26386277926E+02  0.36032270617E+03  0.37259413642E+03  0.90926741250E+02 0.  0.
         13    1    3    3    0    0 -0.74880111564E+01 -0.30090242923E+02  0.70231533998E+02  0.76772139465E+02  0.00000000000E+00 0. -1.
        -13    1    3    3    0    0  0.12967972094E+02  0.56476520849E+02  0.29009117217E+03  0.29582199695E+03  0.00000000000E+00 0.  1.
         22    1    1    2    0    0 -0.54799609379E+01 -0.26386277926E+02  0.29001584072E+01  0.27104917514E+02  0.00000000000E+00 0. -1.
<mgrwt>
<rscale>  0 0.69241767E+02</rscale>
<asrwt>0</asrwt>
<pdfrwt beam="1">  1        1 0.28058610E-02 0.94836374E+02</pdfrwt>
<pdfrwt beam="2">  1       -1 0.58686295E-01 0.94836374E+02</pdfrwt>
<totfact> 0.10326403E+04</totfact>
</mgrwt>
</event>
<event>
 6    1  0.1723639E-002  0.9299578E+02  0.7546771E-02  0.1404522E+00
         -2   -1    0    0    0  501 -0.00000000000E+00  0.00000000000E+00  0.19611299685E+02  0.19611299685E+02  0.00000000000E+00 0.  1.
          2   -1    0    0  501    0  0.00000000000E+00 -0.00000000000E+00 -0.15762622374E+03  0.15762622374E+03  0.00000000000E+00 0. -1.
         23    2    1    2    0    0  0.53217164953E+01 -0.13484993318E+02 -0.10003131955E+03  0.13658140553E+03  0.91858857679E+02 0.  0.
         13    1    3    3    0    0  0.30716628120E+02 -0.16874657302E+02 -0.10481455909E+03  0.11051858260E+03  0.00000000000E+00 0. -1.
        -13    1    3    3    0    0 -0.25394911624E+02  0.33896639841E+01  0.47832395457E+01  0.26062822926E+02  0.00000000000E+00 0.  1.
         22    1    1    2    0    0 -0.53217164953E+01  0.13484993318E+02 -0.37983604511E+02  0.40656117902E+02  0.00000000000E+00 0.  1.
<mgrwt>
<rscale>  0 0.58434276E+02</rscale>
<asrwt>0</asrwt>
<pdfrwt beam="1">  1        2 0.24250187E-01 0.92995782E+02</pdfrwt>
<pdfrwt beam="2">  1       -2 0.30171231E-02 0.92995782E+02</pdfrwt>
<totfact> 0.80342792E+04</totfact>
</mgrwt>
</event>
<event>
 6    1  0.1723639E-002  0.9374230E+02  0.7546771E-02  0.1413125E+00
          2   -1    0    0  501    0  0.00000000000E+00  0.00000000000E+00  0.19608730390E+03  0.19608730390E+03  0.00000000000E+00 0. -1.
         -2   -1    0    0    0  501 -0.00000000000E+00 -0.00000000000E+00 -0.16413595180E+02  0.16413595180E+02  0.00000000000E+00 0.  1.
         23    2    1    2    0    0  0.62710320527E+01 -0.10665614559E+02  0.12387442333E+03  0.15534635921E+03  0.92922211496E+02 0.  0.
         11    1    3    3    0    0 -0.36059285743E+02 -0.63008968241E+01  0.17097024843E+02  0.40401505511E+02  0.00000000000E+00 0.  1.
        -11    1    3    3    0    0  0.42330317796E+02 -0.43647177344E+01  0.10677739848E+03  0.11494485370E+03  0.00000000000E+00 0. -1.
         22    1    1    2    0    0 -0.62710320527E+01  0.10665614559E+02  0.55799285398E+02  0.57154539870E+02  0.00000000000E+00 0. -1.
<mgrwt>
<rscale>  0 0.56502404E+02</rscale>
<asrwt>0</asrwt>
<pdfrwt beam="1">  1        2 0.30167276E-01 0.93742299E+02</pdfrwt>
<pdfrwt beam="2">  1       -2 0.25251686E-02 0.93742299E+02</pdfrwt>
<totfact> 0.82241515E+04</totfact>
</mgrwt>
</event>
<event>
 6    1  0.1723639E-002  0.1173470E+03  0.7546771E-02  0.1271412E+00
         -2   -1    0    0    0  501 -0.00000000000E+00  0.00000000000E+00  0.13866237219E+03  0.13866237219E+03  0.00000000000E+00 0.  1.
          2   -1    0    0  501    0  0.00000000000E+00 -0.00000000000E+00 -0.68869280594E+02  0.68869280594E+02  0.00000000000E+00 0. -1.
         23    2    1    2    0    0 -0.71939272961E+02 -0.14404194379E+02  0.64667089308E+02  0.13398564195E+03  0.91583732176E+02 0.  0.
         11    1    3    3    0    0 -0.49042162957E+02 -0.45339028104E+02  0.68050823376E+02  0.95350279386E+02  0.00000000000E+00 0.  1.
        -11    1    3    3    0    0 -0.22897110005E+02  0.30934833725E+02 -0.33837340684E+01  0.38635362564E+02  0.00000000000E+00 0. -1.
         22    1    1    2    0    0  0.71939272961E+02  0.14404194379E+02  0.51260022858E+01  0.73546010832E+02  0.00000000000E+00 0. -1.
<mgrwt>
<rscale>  0 0.10434687E+03</rscale>
<asrwt>0</asrwt>
<pdfrwt beam="1">  1        2 0.10595274E-01 0.11734701E+03</pdfrwt>
<pdfrwt beam="2">  1       -2 0.21332673E-01 0.11734701E+03</pdfrwt>
<totfact> 0.10369199E+04</totfact>
</mgrwt>
</event>
<event>
 6    1  0.1723639E-002  0.9256927E+02  0.7546771E-02  0.1383149E+00
         -4   -1    0    0    0  501 -0.00000000000E+00  0.00000000000E+00  0.45628094060E+02  0.45628094060E+02  0.00000000000E+00 0.  1.
          4   -1    0    0  501    0  0.00000000000E+00 -0.00000000000E+00 -0.72310803530E+02  0.72310803530E+02  0.00000000000E+00 0. -1.
         23    2    1    2    0    0  0.86777919459E+01 -0.18774220691E+02 -0.29289697831E+02  0.97092511238E+02  0.90229118936E+02 0.  0.
         11    1    3    3    0    0  0.21712377026E+02 -0.24594497793E+02  0.24815748398E+02  0.41135605093E+02  0.00000000000E+00 0.  1.
        -11    1    3    3    0    0 -0.13034585080E+02  0.58202771022E+01 -0.54105446229E+02  0.55956906146E+02  0.00000000000E+00 0. -1.
         22    1    1    2    0    0 -0.86777919459E+01  0.18774220691E+02  0.26069883607E+01  0.20846386351E+02  0.00000000000E+00 0. -1.
<mgrwt>
<rscale>  0 0.63643214E+02</rscale>
<asrwt>0</asrwt>
<pdfrwt beam="1">  1        4 0.11124739E-01 0.92569268E+02</pdfrwt>
<pdfrwt beam="2">  1       -4 0.70197068E-02 0.92569268E+02</pdfrwt>
<totfact> 0.12631173E+04</totfact>
</mgrwt>
</event>
<event>
 6    1  0.1723639E-002  0.9034421E+02  0.7546771E-02  0.1418614E+00
         -2   -1    0    0    0  501 -0.00000000000E+00  0.00000000000E+00  0.31752801521E+03  0.31752801521E+03  0.00000000000E+00 0.  1.
          2   -1    0    0  501    0  0.00000000000E+00 -0.00000000000E+00 -0.11464597584E+02  0.11464597584E+02  0.00000000000E+00 0. -1.
         23    2    1    2    0    0  0.12422309347E+02 -0.26232791982E+01  0.30264836032E+03  0.31584506626E+03  0.89447641206E+02 0.  0.
         11    1    3    3    0    0 -0.26060228578E+02  0.29387096547E+02  0.15686286051E+03  0.16170557803E+03  0.00000000000E+00 0.  1.
        -11    1    3    3    0    0  0.38482537925E+02 -0.32010375745E+02  0.14578549980E+03  0.15413948823E+03  0.00000000000E+00 0. -1.
         22    1    1    2    0    0 -0.12422309347E+02  0.26232791982E+01  0.34150573042E+01  0.13147546526E+02  0.00000000000E+00 0.  1.
<mgrwt>
<rscale>  0 0.55315177E+02</rscale>
<asrwt>0</asrwt>
<pdfrwt beam="1">  1        2 0.17637845E-02 0.90344208E+02</pdfrwt>
<pdfrwt beam="2">  1       -2 0.48850457E-01 0.90344208E+02</pdfrwt>
<totfact> 0.22979264E+04</totfact>
</mgrwt>
</event>
<event>
 6    1  0.1723639E-002  0.9269192E+02  0.7546771E-02  0.1418806E+00
         -2   -1    0    0    0  501 -0.00000000000E+00  0.00000000000E+00  0.41362084726E+01  0.41362084726E+01  0.00000000000E+00 0.  1.
          2   -1    0    0  501    0  0.00000000000E+00 -0.00000000000E+00 -0.65906993805E+03  0.65906993805E+03  0.00000000000E+00 0. -1.
         23    2    1    2    0    0  0.81781480115E+01 -0.83966431940E+01 -0.58427652426E+03  0.59158334020E+03  0.91947843273E+02 0.  0.
         11    1    3    3    0    0  0.48190314520E+02  0.83159448718E+01 -0.28120739518E+03  0.28542785508E+03  0.00000000000E+00 0. -1.
        -11    1    3    3    0    0 -0.40012166508E+02 -0.16712588066E+02 -0.30306912908E+03  0.30615548512E+03  0.00000000000E+00 0.  1.
         22    1    1    2    0    0 -0.81781480115E+01  0.83966431940E+01 -0.70657205320E+02  0.71622806322E+02  0.00000000000E+00 0.  1.
<mgrwt>
<rscale>  0 0.55274408E+02</rscale>
<asrwt>0</asrwt>
<pdfrwt beam="1">  1        2 0.10139533E+00 0.92691918E+02</pdfrwt>
<pdfrwt beam="2">  1       -2 0.63634002E-03 0.92691918E+02</pdfrwt>
<totfact> 0.16009184E+05</totfact>
</mgrwt>
</event>
<event>
 6    1  0.1723639E-002  0.2254653E+03  0.7546771E-02  0.1133424E+00
          2   -1    0    0  501    0  0.00000000000E+00  0.00000000000E+00  0.18031549179E+03  0.18031549179E+03  0.00000000000E+00 0. -1.
         -2   -1    0    0    0  501 -0.00000000000E+00 -0.00000000000E+00 -0.27275792962E+03  0.27275792962E+03  0.00000000000E+00 0.  1.
         23    2    1    2    0    0 -0.95133315778E+02 -0.18349398788E+03 -0.99085896895E+02  0.24627756336E+03  0.90079031358E+02 0.  0.
         13    1    3    3    0    0 -0.74892743283E+02 -0.18949314645E+03 -0.84314183630E+02  0.22051180719E+03  0.00000000000E+00 0.  1.
        -13    1    3    3    0    0 -0.20240572495E+02  0.59991585642E+01 -0.14771713266E+02  0.25765756174E+02  0.00000000000E+00 0. -1.
         22    1    1    2    0    0  0.95133315778E+02  0.18349398788E+03  0.66434590664E+01  0.20679585806E+03  0.00000000000E+00 0. -1.
<mgrwt>
<rscale>  0 0.22061714E+03</rscale>
<asrwt>0</asrwt>
<pdfrwt beam="1">  1        2 0.27740845E-01 0.22546535E+03</pdfrwt>
<pdfrwt beam="2">  1       -2 0.41962759E-01 0.22546535E+03</pdfrwt>
<totfact> 0.10361183E+03</totfact>
</mgrwt>
</event>
<event>
 6    1  0.1723639E-002  0.9365636E+02  0.7546771E-02  0.1382851E+00
          3   -1    0    0  501    0  0.00000000000E+00  0.00000000000E+00  0.25732786769E+02  0.25732786769E+02  0.00000000000E+00 0. -1.
         -3   -1    0    0    0  501 -0.00000000000E+00 -0.00000000000E+00 -0.13434875233E+03  0.13434875233E+03  0.00000000000E+00 0.  1.
         23    2    1    2    0    0  0.54137964861E+01  0.19323809035E+02 -0.10306097928E+03  0.13925903540E+03  0.91481116635E+02 0.  0.
         13    1    3    3    0    0  0.38812104229E+01  0.49485791500E+02 -0.25038194174E+02  0.55595130382E+02  0.00000000000E+00 0. -1.
        -13    1    3    3    0    0  0.15325860632E+01 -0.30161982464E+02 -0.78022785108E+02  0.83663905014E+02  0.00000000000E+00 0.  1.
         22    1    1    2    0    0 -0.54137964861E+01 -0.19323809035E+02 -0.55549862823E+01  0.20822503707E+02  0.00000000000E+00 0.  1.
<mgrwt>
<rscale>  0 0.63720355E+02</rscale>
<asrwt>0</asrwt>
<pdfrwt beam="1">  1        3 0.39588903E-02 0.93656359E+02</pdfrwt>
<pdfrwt beam="2">  1       -3 0.20669039E-01 0.93656359E+02</pdfrwt>
<totfact> 0.14446751E+04</totfact>
</mgrwt>
</event>
<event>
 6    1  0.1723639E-002  0.9215059E+02  0.7546771E-02  0.1404815E+00
         -1   -1    0    0    0  501 -0.00000000000E+00  0.00000000000E+00  0.55576306145E+03  0.55576306145E+03  0.00000000000E+00 0.  1.
          1   -1    0    0  501    0  0.00000000000E+00 -0.00000000000E+00 -0.90125854663E+01  0.90125854663E+01  0.00000000000E+00 0. -1.
         23    2    1    2    0    0  0.15705735344E+01  0.14747849796E+02  0.54112196037E+03  0.54891229409E+03  0.90949243194E+02 0.  0.
         11    1    3    3    0    0 -0.34485366285E+02  0.36061150587E+02  0.31846786512E+03  0.32235295591E+03  0.00000000000E+00 0.  1.
        -11    1    3    3    0    0  0.36055939819E+02 -0.21313300792E+02  0.22265409524E+03  0.22655933818E+03  0.00000000000E+00 0. -1.
         22    1    1    2    0    0 -0.15705735344E+01 -0.14747849796E+02  0.56285156164E+01  0.15863352825E+02  0.00000000000E+00 0. -1.
<mgrwt>
<rscale>  0 0.58367080E+02</rscale>
<asrwt>0</asrwt>
<pdfrwt beam="1">  1        1 0.13865520E-02 0.92150587E+02</pdfrwt>
<pdfrwt beam="2">  1       -1 0.85501983E-01 0.92150587E+02</pdfrwt>
<totfact> 0.12998614E+04</totfact>
</mgrwt>
</event>
<event>
 6    1  0.1723639E-002  0.9481220E+02  0.7546771E-02  0.1371974E+00
         -2   -1    0    0    0  501 -0.00000000000E+00  0.00000000000E+00  0.15840470439E+02  0.15840470439E+02  0.00000000000E+00 0.  1.
          2   -1    0    0  501    0  0.00000000000E+00 -0.00000000000E+00 -0.22130529324E+03  0.22130529324E+03  0.00000000000E+00 0. -1.
         23    2    1    2    0    0  0.16605541167E+02 -0.16077432996E+02 -0.17325621444E+03  0.19750207185E+03  0.91951751989E+02 0.  0.
         11    1    3    3    0    0 -0.37375023864E+01  0.92315231204E+00 -0.17083706109E+03  0.17088043357E+03  0.00000000000E+00 0. -1.
        -11    1    3    3    0    0  0.20343043553E+02 -0.17000585308E+02 -0.24191533478E+01  0.26621638280E+02  0.00000000000E+00 0.  1.
         22    1    1    2    0    0 -0.16605541167E+02  0.16077432996E+02 -0.32208608359E+02  0.39643691826E+02  0.00000000000E+00 0.  1.
<mgrwt>
<rscale>  0 0.66621433E+02</rscale>
<asrwt>0</asrwt>
<pdfrwt beam="1">  1        2 0.34046966E-01 0.94812196E+02</pdfrwt>
<pdfrwt beam="2">  1       -2 0.24369956E-02 0.94812196E+02</pdfrwt>
<totfact> 0.76237689E+04</totfact>
</mgrwt>
</event>
<event>
 6    1  0.1723639E-002  0.9357158E+02  0.7546771E-02  0.1388830E+00
          2   -1    0    0  501    0  0.00000000000E+00  0.00000000000E+00  0.53087019754E+03  0.53087019754E+03  0.00000000000E+00 0. -1.
         -2   -1    0    0    0  501 -0.00000000000E+00 -0.00000000000E+00 -0.59511840586E+01  0.59511840586E+01  0.00000000000E+00 0.  1.
         23    2    1    2    0    0  0.46268834597E+01 -0.17672361021E+02  0.41722722049E+03  0.42759115377E+03  0.91771024113E+02 0.  0.
         13    1    3    3    0    0  0.40450965424E+02 -0.32666211864E+02  0.28796071751E+03  0.29261704809E+03  0.00000000000E+00 0. -1.
        -13    1    3    3    0    0 -0.35824081964E+02  0.14993850843E+02  0.12926650298E+03  0.13497410568E+03  0.00000000000E+00 0.  1.
         22    1    1    2    0    0 -0.46268834597E+01  0.17672361021E+02  0.10769179299E+03  0.10923022783E+03  0.00000000000E+00 0.  1.
<mgrwt>
<rscale>  0 0.62198631E+02</rscale>
<asrwt>0</asrwt>
<pdfrwt beam="1">  1        2 0.81672301E-01 0.93571584E+02</pdfrwt>
<pdfrwt beam="2">  1       -2 0.91556720E-03 0.93571584E+02</pdfrwt>
<totfact> 0.12221458E+05</totfact>
</mgrwt>
</event>
<event>
 6    1  0.1723639E-002  0.9348458E+02  0.7546771E-02  0.1402692E+00
          2   -1    0    0  501    0  0.00000000000E+00  0.00000000000E+00  0.18895218363E+03  0.18895218363E+03  0.00000000000E+00 0. -1.
         -2   -1    0    0    0  501 -0.00000000000E+00 -0.00000000000E+00 -0.20762493099E+02  0.20762493099E+02  0.00000000000E+00 0.  1.
         23    2    1    2    0    0  0.13300364685E+02 -0.62325651824E+01  0.88662920952E+02  0.12884285439E+03  0.92323469416E+02 0.  0.
         11    1    3    3    0    0  0.14223552841E+02 -0.29475353826E+02  0.98344610462E+02  0.10364732676E+03  0.00000000000E+00 0. -1.
        -11    1    3    3    0    0 -0.92318815687E+00  0.23242788644E+02 -0.96816895101E+01  0.25195527621E+02  0.00000000000E+00 0.  1.
         22    1    1    2    0    0 -0.13300364685E+02  0.62325651824E+01  0.79526769579E+02  0.80871822344E+02  0.00000000000E+00 0. -1.
<mgrwt>
<rscale>  0 0.58856914E+02</rscale>
<asrwt>0</asrwt>
<pdfrwt beam="1">  1        2 0.29069566E-01 0.93484585E+02</pdfrwt>
<pdfrwt beam="2">  1       -2 0.31942298E-02 0.93484585E+02</pdfrwt>
<totfact> 0.60799017E+04</totfact>
</mgrwt>
</event>
<event>
 6    1  0.1723639E-002  0.1512780E+03  0.7546771E-02  0.1209597E+00
         -2   -1    0    0    0  501 -0.00000000000E+00  0.00000000000E+00  0.20496428711E+02  0.20496428711E+02  0.00000000000E+00 0.  1.
          2   -1    0    0  501    0  0.00000000000E+00 -0.00000000000E+00 -0.90841770469E+03  0.90841770469E+03  0.00000000000E+00 0. -1.
         23    2    1    2    0    0  0.94258550187E+02  0.74501668528E+02 -0.54233268436E+03  0.56303621995E+03  0.91923182869E+02 0.  0.
         13    1    3    3    0    0  0.93825159331E+02  0.70589059079E+02 -0.54549416469E+03  0.55798732916E+03  0.00000000000E+00 0. -1.
        -13    1    3    3    0    0  0.43339085647E+00  0.39126094490E+01  0.31614803311E+01  0.50488907910E+01  0.00000000000E+00 0.  1.
         22    1    1    2    0    0 -0.94258550187E+02 -0.74501668528E+02 -0.34558859161E+03  0.36587791345E+03  0.00000000000E+00 0.  1.
<mgrwt>
<rscale>  0 0.14281034E+03</rscale>
<asrwt>0</asrwt>
<pdfrwt beam="1">  1        2 0.13975658E+00 0.15127804E+03</pdfrwt>
<pdfrwt beam="2">  1       -2 0.31532965E-02 0.15127804E+03</pdfrwt>
<totfact> 0.11399366E+04</totfact>
</mgrwt>
</event>
<event>
 6    1  0.1723639E-002  0.9237216E+02  0.7546771E-02  0.1375798E+00
          1   -1    0    0  501    0  0.00000000000E+00  0.00000000000E+00  0.59060369192E+02  0.59060369192E+02  0.00000000000E+00 0. -1.
         -1   -1    0    0    0  501 -0.00000000000E+00 -0.00000000000E+00 -0.12729864910E+03  0.12729864910E+03  0.00000000000E+00 0.  1.
         23    2    1    2    0    0 -0.21783091035E+02  0.87353092376E+01 -0.10680735287E+03  0.14121057345E+03  0.89340957812E+02 0.  0.
         11    1    3    3    0    0 -0.43971074124E+02 -0.15007656114E+01 -0.10813134278E+03  0.11673943185E+03  0.00000000000E+00 0.  1.
        -11    1    3    3    0    0  0.22187983089E+02  0.10236074849E+02  0.13239899049E+01  0.24471141599E+02  0.00000000000E+00 0. -1.
         22    1    1    2    0    0  0.21783091035E+02 -0.87353092376E+01  0.38569072966E+02  0.45148444846E+02  0.00000000000E+00 0. -1.
<mgrwt>
<rscale>  0 0.65581434E+02</rscale>
<asrwt>0</asrwt>
<pdfrwt beam="1">  1        1 0.90862106E-02 0.92372157E+02</pdfrwt>
<pdfrwt beam="2">  1       -1 0.19584408E-01 0.92372157E+02</pdfrwt>
<totfact> 0.13688080E+04</totfact>
</mgrwt>
</event>
<event>
 6    1  0.1723639E-002  0.1256006E+03  0.7546771E-02  0.1254139E+00
         -2   -1    0    0    0  501 -0.00000000000E+00  0.00000000000E+00  0.16706159105E+03  0.16706159105E+03  0.00000000000E+00 0.  1.
          2   -1    0    0  501    0  0.00000000000E+00 -0.00000000000E+00 -0.76871684941E+02  0.76871684941E+02  0.00000000000E+00 0. -1.
         23    2    1    2    0    0  0.82730114736E+02  0.13915630415E+02  0.98517916607E+02  0.15962863548E+03  0.93475155620E+02 0.  0.
         11    1    3    3    0    0 -0.16091275378E+02  0.21050934166E+02  0.19489898603E+02  0.32892660581E+02  0.00000000000E+00 0. -1.
        -11    1    3    3    0    0  0.98821390113E+02 -0.71353037509E+01  0.79028018004E+02  0.12673597490E+03  0.00000000000E+00 0.  1.
         22    1    1    2    0    0 -0.82730114736E+02 -0.13915630415E+02 -0.83280104938E+01  0.84304640518E+02  0.00000000000E+00 0. -1.
<mgrwt>
<rscale>  0 0.11354667E+03</rscale>
<asrwt>0</asrwt>
<pdfrwt beam="1">  1        2 0.11826413E-01 0.12560064E+03</pdfrwt>
<pdfrwt beam="2">  1       -2 0.25701783E-01 0.12560064E+03</pdfrwt>
<totfact> 0.66213078E+03</totfact>
</mgrwt>
</event>
<event>
 6    1  0.1723639E-002  0.9209967E+02  0.7546771E-02  0.1414418E+00
         -4   -1    0    0    0  501 -0.00000000000E+00  0.00000000000E+00  0.45496359206E+02  0.45496359206E+02  0.00000000000E+00 0.  1.
          4   -1    0    0  501    0  0.00000000000E+00 -0.00000000000E+00 -0.63450421583E+02  0.63450421583E+02  0.00000000000E+00 0. -1.
         23    2    1    2    0    0 -0.10645259268E+02 -0.70846696999E+01 -0.74538089923E+01  0.92400802100E+02  0.91207646996E+02 0.  0.
         11    1    3    3    0    0 -0.51098690820E+02 -0.16450841423E+01 -0.14638338151E+01  0.51146117300E+02  0.00000000000E+00 0.  1.
        -11    1    3    3    0    0  0.40453431552E+02 -0.54395855576E+01 -0.59899751771E+01  0.41254684801E+02  0.00000000000E+00 0. -1.
         22    1    1    2    0    0  0.10645259268E+02  0.70846696999E+01 -0.10500253384E+02  0.16545978689E+02  0.00000000000E+00 0. -1.
<mgrwt>
<rscale>  0 0.56219626E+02</rscale>
<asrwt>0</asrwt>
<pdfrwt beam="1">  1        4 0.97616033E-02 0.92099669E+02</pdfrwt>
<pdfrwt beam="2">  1       -4 0.69994399E-02 0.92099669E+02</pdfrwt>
<totfact> 0.15775337E+04</totfact>
</mgrwt>
</event>
<event>
 6    1  0.1723639E-002  0.1004928E+03  0.7546771E-02  0.1327549E+00
          1   -1    0    0  501    0  0.00000000000E+00  0.00000000000E+00  0.13291865682E+02  0.13291865682E+02  0.00000000000E+00 0. -1.
         -1   -1    0    0    0  501 -0.00000000000E+00 -0.00000000000E+00 -0.65461182394E+03  0.65461182394E+03  0.00000000000E+00 0.  1.
         23    2    1    2    0    0  0.41083827861E+02 -0.54567625655E+01 -0.60345813756E+03  0.61176836531E+03  0.91548630981E+02 0.  0.
         11    1    3    3    0    0  0.14457004672E+02  0.11885173956E+02 -0.19797645120E+02  0.27243514758E+02  0.00000000000E+00 0. -1.
        -11    1    3    3    0    0  0.26626823189E+02 -0.17341936521E+02 -0.58366049244E+03  0.58452485055E+03  0.00000000000E+00 0.  1.
         22    1    1    2    0    0 -0.41083827861E+02  0.54567625655E+01 -0.37861820699E+02  0.56135324316E+02  0.00000000000E+00 0. -1.
<mgrwt>
<rscale>  0 0.80531979E+02</rscale>
<asrwt>0</asrwt>
<pdfrwt beam="1">  1        1 0.20449024E-02 0.10049283E+03</pdfrwt>
<pdfrwt beam="2">  1       -1 0.10070951E+00 0.10049283E+03</pdfrwt>
<totfact> 0.54090900E+03</totfact>
</mgrwt>
</event>
<event>
 6    1  0.1723639E-002  0.1268803E+03  0.7546771E-02  0.1259878E+00
          4   -1    0    0  501    0  0.00000000000E+00  0.00000000000E+00  0.39536150040E+02  0.39536150040E+02  0.00000000000E+00 0. -1.
         -4   -1    0    0    0  501 -0.00000000000E+00 -0.00000000000E+00 -0.27504042085E+03  0.27504042085E+03  0.00000000000E+00 0.  1.
         23    2    1    2    0    0 -0.70590400867E+02 -0.17213337931E+02 -0.19122094585E+03  0.22948652114E+03  0.10401591011E+03 0.  0.
         13    1    3    3    0    0 -0.48553314586E+02 -0.93394901015E+01 -0.14928896599E+02  0.51648062755E+02  0.00000000000E+00 0. -1.
        -13    1    3    3    0    0 -0.22037086280E+02 -0.78738478293E+01 -0.17629204925E+03  0.17783845838E+03  0.00000000000E+00 0.  1.
         22    1    1    2    0    0  0.70590400867E+02  0.17213337931E+02 -0.44283324961E+02  0.85090049752E+02  0.00000000000E+00 0.  1.
<mgrwt>
<rscale>  0 0.11037425E+03</rscale>
<asrwt>0</asrwt>
<pdfrwt beam="1">  1        4 0.60824847E-02 0.12688031E+03</pdfrwt>
<pdfrwt beam="2">  1       -4 0.42313911E-01 0.12688031E+03</pdfrwt>
<totfact> 0.15321553E+03</totfact>
</mgrwt>
</event>
<event>
 6    1  0.1723639E-002  0.9930147E+02  0.7546771E-02  0.1338525E+00
          1   -1    0    0  501    0  0.00000000000E+00  0.00000000000E+00  0.96597612071E+02  0.96597612071E+02  0.00000000000E+00 0. -1.
         -1   -1    0    0    0  501 -0.00000000000E+00 -0.00000000000E+00 -0.46990455260E+02  0.46990455260E+02  0.00000000000E+00 0.  1.
         23    2    1    2    0    0 -0.31686960429E+02 -0.15878034517E+02  0.36163196778E+02  0.10568139902E+03  0.92761014739E+02 0.  0.
         13    1    3    3    0    0 -0.14637094928E+02  0.61456124856E+01  0.64216762991E+02  0.66149873392E+02  0.00000000000E+00 0. -1.
        -13    1    3    3    0    0 -0.17049865501E+02 -0.22023647003E+02 -0.28053566212E+02  0.39531525624E+02  0.00000000000E+00 0.  1.
         22    1    1    2    0    0  0.31686960429E+02  0.15878034517E+02  0.13443960033E+02  0.37906668315E+02  0.00000000000E+00 0. -1.
<mgrwt>
<rscale>  0 0.76753473E+02</rscale>
<asrwt>0</asrwt>
<pdfrwt beam="1">  1        1 0.14861171E-01 0.99301467E+02</pdfrwt>
<pdfrwt beam="2">  1       -1 0.72293008E-02 0.99301467E+02</pdfrwt>
<totfact> 0.33469630E+04</totfact>
</mgrwt>
</event>
<event>
 6    1  0.1723639E-002  0.9970592E+02  0.7546771E-02  0.1398887E+00
         -2   -1    0    0    0  501 -0.00000000000E+00  0.00000000000E+00  0.54686280065E+03  0.54686280065E+03  0.00000000000E+00 0.  1.
          2   -1    0    0  501    0  0.00000000000E+00 -0.00000000000E+00 -0.97886490370E+01  0.97886490370E+01  0.00000000000E+00 0. -1.
         23    2    1    2    0    0 -0.12851832567E+02 -0.38909200369E+00  0.53426678271E+03  0.54349081471E+03  0.98873401760E+02 0.  0.
         11    1    3    3    0    0  0.11950147836E+02 -0.28407074602E+01  0.50457928490E+03  0.50472876914E+03  0.00000000000E+00 0.  1.
        -11    1    3    3    0    0 -0.24801980403E+02  0.24516154565E+01  0.29687497808E+02  0.38762045565E+02  0.00000000000E+00 0. -1.
         22    1    1    2    0    0  0.12851832567E+02  0.38909200369E+00  0.28073689092E+01  0.13160634982E+02  0.00000000000E+00 0. -1.
<mgrwt>
<rscale>  0 0.59749147E+02</rscale>
<asrwt>0</asrwt>
<pdfrwt beam="1">  1        2 0.15059464E-02 0.99705920E+02</pdfrwt>
<pdfrwt beam="2">  1       -2 0.84132715E-01 0.99705920E+02</pdfrwt>
<totfact> 0.93507432E+03</totfact>
</mgrwt>
</event>
<event>
 6    1  0.1723639E-002  0.9362079E+02  0.7546771E-02  0.1421965E+00
          4   -1    0    0  501    0  0.00000000000E+00  0.00000000000E+00  0.69021320596E+02  0.69021320596E+02  0.00000000000E+00 0. -1.
         -4   -1    0    0    0  501 -0.00000000000E+00 -0.00000000000E+00 -0.40130265377E+02  0.40130265377E+02  0.00000000000E+00 0.  1.
         23    2    1    2    0    0  0.43984717786E+00 -0.10827543128E+02  0.29871523696E+02  0.98270847296E+02  0.92991517595E+02 0.  0.
         11    1    3    3    0    0 -0.13762360013E+02 -0.48526352692E+02  0.44520049172E+01  0.50636249926E+02  0.00000000000E+00 0. -1.
        -11    1    3    3    0    0  0.14202207191E+02  0.37698809564E+02  0.25419518779E+02  0.47634597370E+02  0.00000000000E+00 0.  1.
         22    1    1    2    0    0 -0.43984717786E+00  0.10827543128E+02 -0.98046847750E+00  0.10880738677E+02  0.00000000000E+00 0. -1.
<mgrwt>
<rscale>  0 0.54607363E+02</rscale>
<asrwt>0</asrwt>
<pdfrwt beam="1">  1        4 0.10618665E-01 0.93620786E+02</pdfrwt>
<pdfrwt beam="2">  1       -4 0.61738870E-02 0.93620786E+02</pdfrwt>
<totfact> 0.16879213E+04</totfact>
</mgrwt>
</event>
<event>
 6    1  0.1997923E-002  0.1168394E+03  0.7546771E-02  0.1272636E+00
          2   -1    0    0  501    0  0.00000000000E+00  0.00000000000E+00  0.52201280952E+03  0.52201280952E+03  0.00000000000E+00 0. -1.
         -2   -1    0    0    0  501 -0.00000000000E+00 -0.00000000000E+00 -0.56724967866E+02  0.56724967866E+02  0.00000000000E+00 0.  1.
         23    2    1    2    0    0  0.42423700917E+01  0.72469348636E+02  0.48869169419E+03  0.50246494795E+03  0.91551339423E+02 0.  0.
         11    1    3    3    0    0  0.26186135143E+02  0.16732312095E+02  0.35017297871E+03  0.35154914161E+03  0.00000000000E+00 0. -1.
        -11    1    3    3    0    0 -0.21943765051E+02  0.55737036541E+02  0.13851871548E+03  0.15091580634E+03  0.00000000000E+00 0.  1.
         22    1    1    2    0    0 -0.42423700917E+01 -0.72469348636E+02 -0.23403852542E+02  0.76272829432E+02  0.00000000000E+00 0.  1.
<mgrwt>
<rscale>  0 0.10373287E+03</rscale>
<asrwt>0</asrwt>
<pdfrwt beam="1">  1        2 0.80309660E-01 0.11683943E+03</pdfrwt>
<pdfrwt beam="2">  1       -2 0.87269185E-02 0.11683943E+03</pdfrwt>
<totfact> 0.46833642E+03</totfact>
</mgrwt>
</event>
<event>
 6    1  0.1723639E-002  0.9264239E+02  0.7546771E-02  0.1424246E+00
         -2   -1    0    0    0  501 -0.00000000000E+00  0.00000000000E+00  0.79036152386E+02  0.79036152386E+02  0.00000000000E+00 0. -1.
          2   -1    0    0  501    0  0.00000000000E+00 -0.00000000000E+00 -0.34304380976E+02  0.34304380976E+02  0.00000000000E+00 0.  1.
         23    2    1    2    0    0 -0.82461023220E+01 -0.69736527802E+01  0.43875968583E+02  0.10250713892E+03  0.92010775860E+02 0.  0.
         11    1    3    3    0    0  0.33106794486E+02 -0.24240546574E+02  0.18548220780E+01  0.41074375276E+02  0.00000000000E+00 0.  1.
        -11    1    3    3    0    0 -0.41352896808E+02  0.17266893794E+02  0.42021146505E+02  0.61432763647E+02  0.00000000000E+00 0. -1.
         22    1    1    2    0    0  0.82461023220E+01  0.69736527802E+01  0.85580282620E+00  0.10833394439E+02  0.00000000000E+00 0.  1.
<mgrwt>
<rscale>  0 0.54132567E+02</rscale>
<asrwt>0</asrwt>
<pdfrwt beam="1">  1        2 0.52775971E-02 0.92642393E+02</pdfrwt>
<pdfrwt beam="2">  1       -2 0.12159408E-01 0.92642393E+02</pdfrwt>
<totfact> 0.60615743E+04</totfact>
</mgrwt>
</event>
<event>
 6    1  0.1723639E-002  0.1023851E+03  0.7546771E-02  0.1335968E+00
          2   -1    0    0  501    0  0.00000000000E+00  0.00000000000E+00  0.19365789748E+03  0.19365789748E+03  0.00000000000E+00 0. -1.
         -2   -1    0    0    0  501 -0.00000000000E+00 -0.00000000000E+00 -0.32676238257E+02  0.32676238257E+02  0.00000000000E+00 0.  1.
         23    2    1    2    0    0 -0.12048493741E+02  0.31587281289E+02  0.57405246365E+02  0.11738003604E+03  0.96642578657E+02 0.  0.
         13    1    3    3    0    0 -0.27127946201E+01  0.27491554621E+02  0.84250658323E+02  0.88664075351E+02  0.00000000000E+00 0. -1.
        -13    1    3    3    0    0 -0.93356991204E+01  0.40957266687E+01 -0.26845411957E+02  0.28715960687E+02  0.00000000000E+00 0.  1.
         22    1    1    2    0    0  0.12048493741E+02 -0.31587281289E+02  0.10357641286E+03  0.10895409970E+03  0.00000000000E+00 0. -1.
<mgrwt>
<rscale>  0 0.77612147E+02</rscale>
<asrwt>0</asrwt>
<pdfrwt beam="1">  1        2 0.29793522E-01 0.10238511E+03</pdfrwt>
<pdfrwt beam="2">  1       -2 0.50271137E-02 0.10238511E+03</pdfrwt>
<totfact> 0.30700669E+04</totfact>
</mgrwt>
</event>
<event>
 6    1  0.1723639E-002  0.9196047E+02  0.7546771E-02  0.1417160E+00
          1   -1    0    0  501    0  0.00000000000E+00  0.00000000000E+00  0.17429472960E+03  0.17429472960E+03  0.00000000000E+00 0. -1.
         -1   -1    0    0    0  501 -0.00000000000E+00 -0.00000000000E+00 -0.15827925868E+02  0.15827925868E+02  0.00000000000E+00 0.  1.
         23    2    1    2    0    0 -0.11056206360E+01 -0.12261898549E+02  0.14638140190E+03  0.17287059790E+03  0.91132608008E+02 0.  0.
         11    1    3    3    0    0 -0.37117640242E+02  0.19493962891E+02  0.86436177077E+02  0.96067406096E+02  0.00000000000E+00 0. -1.
        -11    1    3    3    0    0  0.36012019606E+02 -0.31755861439E+02  0.59945224820E+02  0.76803191800E+02  0.00000000000E+00 0.  1.
         22    1    1    2    0    0  0.11056206360E+01  0.12261898549E+02  0.12085401836E+02  0.17252057575E+02  0.00000000000E+00 0.  1.
<mgrwt>
<rscale>  0 0.55626266E+02</rscale>
<asrwt>0</asrwt>
<pdfrwt beam="1">  1        1 0.26814573E-01 0.91960474E+02</pdfrwt>
<pdfrwt beam="2">  1       -1 0.24350656E-02 0.91960474E+02</pdfrwt>
<totfact> 0.77039244E+04</totfact>
</mgrwt>
</event>
<event>
 6    1  0.1723639E-002  0.9772612E+02  0.7546771E-02  0.1346522E+00
          2   -1    0    0  501    0  0.00000000000E+00  0.00000000000E+00  0.11578778523E+02  0.11578778523E+02  0.00000000000E+00 0. -1.
         -2   -1    0    0    0  501 -0.00000000000E+00 -0.00000000000E+00 -0.91815813974E+03  0.91815813974E+03  0.00000000000E+00 0.  1.
         23    2    1    2    0    0  0.27147509289E+02  0.17668606682E+02 -0.88597403983E+03  0.89134751618E+03  0.92202106423E+02 0.  0.
         13    1    3    3    0    0  0.37652088761E+02 -0.18894156471E+02 -0.20352991015E+03  0.20784391563E+03  0.00000000000E+00 0. -1.
        -13    1    3    3    0    0 -0.10504579472E+02  0.36562763153E+02 -0.68244412968E+03  0.68350360056E+03  0.00000000000E+00 0.  1.
         22    1    1    2    0    0 -0.27147509289E+02 -0.17668606682E+02 -0.20605321389E+02  0.38389402082E+02  0.00000000000E+00 0. -1.
<mgrwt>
<rscale>  0 0.74150414E+02</rscale>
<asrwt>0</asrwt>
<pdfrwt beam="1">  1        2 0.17813511E-02 0.97726124E+02</pdfrwt>
<pdfrwt beam="2">  1       -2 0.14125506E+00 0.97726124E+02</pdfrwt>
<totfact> 0.22122899E+03</totfact>
</mgrwt>
</event>
<event>
 6    1  0.1723639E-002  0.9346840E+02  0.7546771E-02  0.1403094E+00
          1   -1    0    0  501    0  0.00000000000E+00  0.00000000000E+00  0.22600332179E+02  0.22600332179E+02  0.00000000000E+00 0.  1.
         -1   -1    0    0    0  501 -0.00000000000E+00 -0.00000000000E+00 -0.14602974162E+03  0.14602974162E+03  0.00000000000E+00 0. -1.
         23    2    1    2    0    0  0.82250877163E+01 -0.12066350732E+02 -0.12237784665E+03  0.15398921753E+03  0.92320598337E+02 0.  0.
         13    1    3    3    0    0 -0.26748449627E+02  0.28583310213E+02 -0.42507925229E+02  0.57787618807E+02  0.00000000000E+00 0.  1.
        -13    1    3    3    0    0  0.34973537343E+02 -0.40649660945E+02 -0.79869921417E+02  0.96201598720E+02  0.00000000000E+00 0. -1.
         22    1    1    2    0    0 -0.82250877163E+01  0.12066350732E+02 -0.10515627913E+01  0.14640856267E+02  0.00000000000E+00 0. -1.
<mgrwt>
<rscale>  0 0.58763743E+02</rscale>
<asrwt>0</asrwt>
<pdfrwt beam="1">  1        1 0.34769740E-02 0.93468400E+02</pdfrwt>
<pdfrwt beam="2">  1       -1 0.22466115E-01 0.93468400E+02</pdfrwt>
<totfact> 0.40050419E+04</totfact>
</mgrwt>
</event>
<event>
 6    1  0.1723639E-002  0.9412666E+02  0.7546771E-02  0.1421453E+00
          2   -1    0    0  501    0  0.00000000000E+00  0.00000000000E+00  0.30615053407E+03  0.30615053407E+03  0.00000000000E+00 0. -1.
         -2   -1    0    0    0  501 -0.00000000000E+00 -0.00000000000E+00 -0.89822225220E+01  0.89822225220E+01  0.00000000000E+00 0.  1.
         23    2    1    2    0    0 -0.10250208077E+02  0.32290757196E+01  0.26570265349E+03  0.28188247340E+03  0.93511149285E+02 0.  0.
         11    1    3    3    0    0 -0.51426750829E+02 -0.24534948435E+01  0.16780861550E+03  0.17552909097E+03  0.00000000000E+00 0.  1.
        -11    1    3    3    0    0  0.41176542752E+02  0.56825705631E+01  0.97894037990E+02  0.10635338243E+03  0.00000000000E+00 0. -1.
         22    1    1    2    0    0  0.10250208077E+02 -0.32290757196E+01  0.31465658058E+02  0.33250283197E+02  0.00000000000E+00 0. -1.
<mgrwt>
<rscale>  0 0.54714733E+02</rscale>
<asrwt>0</asrwt>
<pdfrwt beam="1">  1        2 0.47100074E-01 0.94126663E+02</pdfrwt>
<pdfrwt beam="2">  1       -2 0.13818806E-02 0.94126663E+02</pdfrwt>
<totfact> 0.12221562E+05</totfact>
</mgrwt>
</event>
<event>
 6    1  0.1723639E-002  0.1038979E+03  0.7546771E-02  0.1309798E+00
          2   -1    0    0  501    0  0.00000000000E+00  0.00000000000E+00  0.29401228918E+03  0.29401228918E+03  0.00000000000E+00 0. -1.
         -2   -1    0    0    0  501 -0.00000000000E+00 -0.00000000000E+00 -0.23507437826E+02  0.23507437826E+02  0.00000000000E+00 0.  1.
         23    2    1    2    0    0 -0.48260179106E+02 -0.18072665441E+02  0.22858633259E+03  0.25109060433E+03  0.90217038388E+02 0.  0.
         11    1    3    3    0    0 -0.27682442240E+02 -0.39049592494E+02  0.46796028988E+02  0.66940694734E+02  0.00000000000E+00 0.  1.
        -11    1    3    3    0    0 -0.20577736865E+02  0.20976927054E+02  0.18179030360E+03  0.18414990960E+03  0.00000000000E+00 0. -1.
         22    1    1    2    0    0  0.48260179106E+02  0.18072665441E+02  0.41918518767E+02  0.66429122672E+02  0.00000000000E+00 0.  1.
<mgrwt>
<rscale>  0 0.87192044E+02</rscale>
<asrwt>0</asrwt>
<pdfrwt beam="1">  1        2 0.45232657E-01 0.10389793E+03</pdfrwt>
<pdfrwt beam="2">  1       -2 0.36165291E-02 0.10389793E+03</pdfrwt>
<totfact> 0.32167550E+04</totfact>
</mgrwt>
</event>
<event>
 6    1  0.1723639E-002  0.8995590E+02  0.7546771E-02  0.1420231E+00
         -2   -1    0    0    0  501 -0.00000000000E+00  0.00000000000E+00  0.77748885637E+02  0.77748885637E+02  0.00000000000E+00 0.  1.
          2   -1    0    0  501    0  0.00000000000E+00 -0.00000000000E+00 -0.51212152426E+02  0.51212152426E+02  0.00000000000E+00 0. -1.
         23    2    1    2    0    0  0.11071921883E+02 -0.58989677712E+01  0.49587146539E+02  0.10271781361E+03  0.89076814360E+02 0.  0.
         13    1    3    3    0    0 -0.30973977404E+02  0.19434348325E+02  0.37046748773E+02  0.52053268540E+02  0.00000000000E+00 0.  1.
        -13    1    3    3    0    0  0.42045899287E+02 -0.25333316096E+02  0.12540397766E+02  0.50664545073E+02  0.00000000000E+00 0. -1.
         22    1    1    2    0    0 -0.11071921883E+02  0.58989677712E+01 -0.23050413328E+02  0.26243224450E+02  0.00000000000E+00 0. -1.
<mgrwt>
<rscale>  0 0.54972154E+02</rscale>
<asrwt>0</asrwt>
<pdfrwt beam="1">  1        2 0.78787927E-02 0.89955901E+02</pdfrwt>
<pdfrwt beam="2">  1       -2 0.11961367E-01 0.89955901E+02</pdfrwt>
<totfact> 0.37331114E+04</totfact>
</mgrwt>
</event>
<event>
 6    1  0.1723639E-002  0.9252743E+02  0.7546771E-02  0.1382901E+00
         -2   -1    0    0    0  501 -0.00000000000E+00  0.00000000000E+00  0.27854263677E+02  0.27854263677E+02  0.00000000000E+00 0.  1.
          2   -1    0    0  501    0  0.00000000000E+00 -0.00000000000E+00 -0.11798426992E+03  0.11798426992E+03  0.00000000000E+00 0. -1.
         23    2    1    2    0    0 -0.68079679213E+01  0.19648264455E+02 -0.64286906885E+02  0.11266823803E+03  0.90160538716E+02 0.  0.
         13    1    3    3    0    0 -0.85807032440E+01  0.32498615725E+02  0.11693608253E+02  0.35588326262E+02  0.00000000000E+00 0.  1.
        -13    1    3    3    0    0  0.17727353226E+01 -0.12850351269E+02 -0.75980515137E+02  0.77079911772E+02  0.00000000000E+00 0. -1.
         22    1    1    2    0    0  0.68079679213E+01 -0.19648264455E+02 -0.25843099363E+02  0.33170295567E+02  0.00000000000E+00 0.  1.
<mgrwt>
<rscale>  0 0.63707261E+02</rscale>
<asrwt>0</asrwt>
<pdfrwt beam="1">  1        2 0.18151426E-01 0.92527431E+02</pdfrwt>
<pdfrwt beam="2">  1       -2 0.42852713E-02 0.92527431E+02</pdfrwt>
<totfact> 0.66258078E+04</totfact>
</mgrwt>
</event>
<event>
 6    1  0.1723639E-002  0.9603794E+02  0.7546771E-02  0.1398603E+00
          4   -1    0    0  501    0  0.00000000000E+00  0.00000000000E+00  0.99013050767E+01  0.99013050767E+01  0.00000000000E+00 0. -1.
         -4   -1    0    0    0  501 -0.00000000000E+00 -0.00000000000E+00 -0.31085387658E+03  0.31085387658E+03  0.00000000000E+00 0.  1.
         23    2    1    2    0    0  0.13565297470E+02 -0.49871558380E+01 -0.27060590818E+03  0.28714255019E+03  0.94944181355E+02 0.  0.
         13    1    3    3    0    0  0.97569252593E+01 -0.20577484976E+02 -0.81370664489E+01  0.24183513576E+02  0.00000000000E+00 0. -1.
        -13    1    3    3    0    0  0.38083722104E+01  0.15590329138E+02 -0.26246884173E+03  0.26295903662E+03  0.00000000000E+00 0.  1.
         22    1    1    2    0    0 -0.13565297470E+02  0.49871558380E+01 -0.30346663330E+02  0.33612631466E+02  0.00000000000E+00 0.  1.
<mgrwt>
<rscale>  0 0.59816582E+02</rscale>
<asrwt>0</asrwt>
<pdfrwt beam="1">  1        4 0.15232779E-02 0.96037944E+02</pdfrwt>
<pdfrwt beam="2">  1       -4 0.47823666E-01 0.96037944E+02</pdfrwt>
<totfact> 0.97320657E+03</totfact>
</mgrwt>
</event>
<event>
 6    1  0.1723639E-002  0.9406359E+02  0.7546771E-02  0.1392905E+00
         -2   -1    0    0    0  501 -0.00000000000E+00  0.00000000000E+00  0.10391486913E+02  0.10391486913E+02  0.00000000000E+00 0.  1.
          2   -1    0    0  501    0  0.00000000000E+00 -0.00000000000E+00 -0.30274367883E+03  0.30274367883E+03  0.00000000000E+00 0. -1.
         23    2    1    2    0    0  0.11369941200E+02  0.12428044761E+02 -0.22862076308E+03  0.24721531379E+03  0.92543104568E+02 0.  0.
         11    1    3    3    0    0 -0.38392700139E+02  0.18773705458E+02 -0.86094164996E+02  0.96117931141E+02  0.00000000000E+00 0.  1.
        -11    1    3    3    0    0  0.49762641339E+02 -0.63456606974E+01 -0.14252659808E+03  0.15109738265E+03  0.00000000000E+00 0. -1.
         22    1    1    2    0    0 -0.11369941200E+02 -0.12428044761E+02 -0.63731428846E+02  0.65919851958E+02  0.00000000000E+00 0.  1.
<mgrwt>
<rscale>  0 0.61189888E+02</rscale>
<asrwt>0</asrwt>
<pdfrwt beam="1">  1        2 0.46575946E-01 0.94063585E+02</pdfrwt>
<pdfrwt beam="2">  1       -2 0.15986904E-02 0.94063585E+02</pdfrwt>
<totfact> 0.10041600E+05</totfact>
</mgrwt>
</event>
<event>
 6    1  0.1723639E-002  0.9597170E+02  0.7546771E-02  0.1394754E+00
          2   -1    0    0  501    0  0.00000000000E+00  0.00000000000E+00  0.15154420558E+03  0.15154420558E+03  0.00000000000E+00 0. -1.
         -2   -1    0    0    0  501 -0.00000000000E+00 -0.00000000000E+00 -0.26627119285E+02  0.26627119285E+02  0.00000000000E+00 0.  1.
         23    2    1    2    0    0 -0.77625966484E+01  0.13297877329E+02  0.64037979134E+02  0.11537516943E+03  0.94728430275E+02 0.  0.
         11    1    3    3    0    0 -0.14904109274E+02  0.34904261974E+02 -0.88890737641E+01  0.38980195094E+02  0.00000000000E+00 0.  1.
        -11    1    3    3    0    0  0.71415126252E+01 -0.21606384646E+02  0.72927052898E+02  0.76394974340E+02  0.00000000000E+00 0. -1.
         22    1    1    2    0    0  0.77625966484E+01 -0.13297877329E+02  0.60879107165E+02  0.62796155435E+02  0.00000000000E+00 0. -1.
<mgrwt>
<rscale>  0 0.60739592E+02</rscale>
<asrwt>0</asrwt>
<pdfrwt beam="1">  1        2 0.23314493E-01 0.95971699E+02</pdfrwt>
<pdfrwt beam="2">  1       -2 0.40964800E-02 0.95971699E+02</pdfrwt>
<totfact> 0.53840839E+04</totfact>
</mgrwt>
</event>
<event>
 6    1  0.1723639E-002  0.9452542E+02  0.7546771E-02  0.1415459E+00
         -4   -1    0    0    0  501 -0.00000000000E+00  0.00000000000E+00  0.57254188284E+03  0.57254188284E+03  0.00000000000E+00 0. -1.
          4   -1    0    0  501    0  0.00000000000E+00 -0.00000000000E+00 -0.54414396775E+01  0.54414396775E+01  0.00000000000E+00 0.  1.
         23    2    1    2    0    0  0.11613588382E+02 -0.76304470373E+00  0.54361725230E+03  0.55177420339E+03  0.93806166411E+02 0.  0.
         13    1    3    3    0    0 -0.66864233907E+00 -0.46829394251E+02  0.26436782932E+03  0.26848424242E+03  0.00000000000E+00 0. -1.
        -13    1    3    3    0    0  0.12282230721E+02  0.46066349547E+02  0.27924942298E+03  0.28328996097E+03  0.00000000000E+00 0.  1.
         22    1    1    2    0    0 -0.11613588382E+02  0.76304470373E+00  0.23483190863E+02  0.26209119128E+02  0.00000000000E+00 0.  1.
<mgrwt>
<rscale>  0 0.55993408E+02</rscale>
<asrwt>0</asrwt>
<pdfrwt beam="1">  1        4 0.83714502E-03 0.94525417E+02</pdfrwt>
<pdfrwt beam="2">  1       -4 0.88083319E-01 0.94525417E+02</pdfrwt>
<totfact> 0.65377325E+03</totfact>
</mgrwt>
</event>
<event>
 6    1  0.1723639E-002  0.9189444E+02  0.7546771E-02  0.1404058E+00
          2   -1    0    0  501    0  0.00000000000E+00  0.00000000000E+00  0.26293510482E+03  0.26293510482E+03  0.00000000000E+00 0.  1.
         -2   -1    0    0    0  501 -0.00000000000E+00 -0.00000000000E+00 -0.11032350075E+02  0.11032350075E+02  0.00000000000E+00 0. -1.
         23    2    1    2    0    0 -0.56486379537E+01  0.14041185850E+02  0.20427963399E+03  0.22399722735E+03  0.90639544269E+02 0.  0.
         11    1    3    3    0    0  0.36606062545E+02  0.52371333928E+00  0.41779690278E+02  0.55550163010E+02  0.00000000000E+00 0. -1.
        -11    1    3    3    0    0 -0.42254700499E+02  0.13517472511E+02  0.16249994372E+03  0.16844706434E+03  0.00000000000E+00 0.  1.
         22    1    1    2    0    0  0.56486379537E+01 -0.14041185850E+02  0.47623120748E+02  0.49970227542E+02  0.00000000000E+00 0.  1.
<mgrwt>
<rscale>  0 0.58541127E+02</rscale>
<asrwt>0</asrwt>
<pdfrwt beam="1">  1        2 0.40451550E-01 0.91894445E+02</pdfrwt>
<pdfrwt beam="2">  1       -2 0.16972848E-02 0.91894445E+02</pdfrwt>
<totfact> 0.10646087E+05</totfact>
</mgrwt>
</event>
<event>
 6    1  0.1723639E-002  0.7968409E+02  0.7546771E-02  0.1416462E+00
         -2   -1    0    0    0  501 -0.00000000000E+00  0.00000000000E+00  0.56042057597E+02  0.56042057597E+02  0.00000000000E+00 0.  1.
          2   -1    0    0  501    0  0.00000000000E+00 -0.00000000000E+00 -0.11227633810E+03  0.11227633810E+03  0.00000000000E+00 0. -1.
         23    2    1    2    0    0 -0.31709203030E+01 -0.18864256080E+02  0.26054504387E+02  0.83835503868E+02  0.77353989018E+02 0.  0.
         13    1    3    3    0    0  0.15276678924E+02 -0.97246940083E+01 -0.23794838013E+02  0.29902189026E+02  0.00000000000E+00 0. -1.
        -13    1    3    3    0    0 -0.18447599227E+02 -0.91395620718E+01  0.49849342400E+02  0.53933314842E+02  0.00000000000E+00 0.  1.
         22    1    1    2    0    0  0.31709203030E+01  0.18864256080E+02 -0.82288784894E+02  0.84482891832E+02  0.00000000000E+00 0. -1.
<mgrwt>
<rscale>  0 0.55776497E+02</rscale>
<asrwt>0</asrwt>
<pdfrwt beam="1">  1        2 0.17273283E-01 0.79684092E+02</pdfrwt>
<pdfrwt beam="2">  1       -2 0.86218551E-02 0.79684092E+02</pdfrwt>
<totfact> 0.24064387E+04</totfact>
</mgrwt>
</event>
<event>
 6    1  0.1723639E-002  0.9432663E+02  0.7546771E-02  0.1364221E+00
         -2   -1    0    0    0  501 -0.00000000000E+00  0.00000000000E+00  0.93656253133E+02  0.93656253133E+02  0.00000000000E+00 0.  1.
          2   -1    0    0  501    0  0.00000000000E+00 -0.00000000000E+00 -0.39674315315E+02  0.39674315315E+02  0.00000000000E+00 0. -1.
         23    2    1    2    0    0  0.22837280351E+02  0.13826719550E+02  0.35162802512E+02  0.10066744856E+03  0.90469845647E+02 0.  0.
         13    1    3    3    0    0 -0.99484124710E+01  0.11459859562E+02 -0.26644319432E+02  0.30662991535E+02  0.00000000000E+00 0. -1.
        -13    1    3    3    0    0  0.32785692822E+02  0.23668599878E+01  0.61807121945E+02  0.70004457023E+02  0.00000000000E+00 0.  1.
         22    1    1    2    0    0 -0.22837280351E+02 -0.13826719550E+02  0.18819135305E+02  0.32663119890E+02  0.00000000000E+00 0. -1.
<mgrwt>
<rscale>  0 0.68800336E+02</rscale>
<asrwt>0</asrwt>
<pdfrwt beam="1">  1        2 0.61037409E-02 0.94326627E+02</pdfrwt>
<pdfrwt beam="2">  1       -2 0.14408654E-01 0.94326627E+02</pdfrwt>
<totfact> 0.38473230E+04</totfact>
</mgrwt>
</event>
<event>
 6    1  0.1723639E-002  0.9177919E+02  0.7546771E-02  0.1384638E+00
          1   -1    0    0  501    0  0.00000000000E+00  0.00000000000E+00  0.88113916635E+03  0.88113916635E+03  0.00000000000E+00 0. -1.
         -1   -1    0    0    0  501 -0.00000000000E+00 -0.00000000000E+00 -0.39183365549E+01  0.39183365549E+01  0.00000000000E+00 0.  1.
         23    2    1    2    0    0  0.26594144377E+00  0.20713440498E+02  0.79444978033E+03  0.79973362599E+03  0.89410859140E+02 0.  0.
         13    1    3    3    0    0 -0.37404323323E+01 -0.80635860794E+01  0.71633960431E+03  0.71639475218E+03  0.00000000000E+00 0. -1.
        -13    1    3    3    0    0  0.40063737761E+01  0.28777026577E+02  0.78110176019E+02  0.83338873806E+02  0.00000000000E+00 0.  1.
         22    1    1    2    0    0 -0.26594144377E+00 -0.20713440498E+02  0.82771049469E+02  0.85323876918E+02  0.00000000000E+00 0.  1.
<mgrwt>
<rscale>  0 0.63260142E+02</rscale>
<asrwt>0</asrwt>
<pdfrwt beam="1">  1        1 0.13555971E+00 0.91779186E+02</pdfrwt>
<pdfrwt beam="2">  1       -1 0.60282171E-03 0.91779186E+02</pdfrwt>
<totfact> 0.68750297E+04</totfact>
</mgrwt>
</event>
<event>
 6    1  0.1723639E-002  0.9582452E+02  0.7546771E-02  0.1352362E+00
          2   -1    0    0  501    0  0.00000000000E+00  0.00000000000E+00  0.84440468317E+02  0.84440468317E+02  0.00000000000E+00 0. -1.
         -2   -1    0    0    0  501 -0.00000000000E+00 -0.00000000000E+00 -0.54008054038E+02  0.54008054038E+02  0.00000000000E+00 0.  1.
         23    2    1    2    0    0 -0.44180411840E+01 -0.30781467510E+02  0.12940657018E+01  0.95833252934E+02  0.90638402081E+02 0.  0.
         13    1    3    3    0    0 -0.28266241303E+01 -0.54537808252E+02  0.26892698063E+02  0.60873471578E+02  0.00000000000E+00 0. -1.
        -13    1    3    3    0    0 -0.15914170538E+01  0.23756340742E+02 -0.25598632361E+02  0.34959781355E+02  0.00000000000E+00 0.  1.
         22    1    1    2    0    0  0.44180411840E+01  0.30781467510E+02  0.29138348578E+02  0.42615269421E+02  0.00000000000E+00 0. -1.
<mgrwt>
<rscale>  0 0.72324724E+02</rscale>
<asrwt>0</asrwt>
<pdfrwt beam="1">  1        2 0.12990841E-01 0.95824515E+02</pdfrwt>
<pdfrwt beam="2">  1       -2 0.83089314E-02 0.95824515E+02</pdfrwt>
<totfact> 0.36216031E+04</totfact>
</mgrwt>
</event>
<event>
 6    1  0.1723639E-002  0.9269274E+02  0.7546771E-02  0.1365067E+00
          2   -1    0    0  501    0  0.00000000000E+00  0.00000000000E+00  0.17830869493E+03  0.17830869493E+03  0.00000000000E+00 0. -1.
         -2   -1    0    0    0  501 -0.00000000000E+00 -0.00000000000E+00 -0.26128031856E+02  0.26128031856E+02  0.00000000000E+00 0.  1.
         23    2    1    2    0    0 -0.14916204297E+02  0.23387117746E+02  0.65697387535E+02  0.11361378158E+03  0.88444865368E+02 0.  0.
         13    1    3    3    0    0 -0.49711934040E+01 -0.29728925456E+02  0.48133223584E+02  0.56791979938E+02  0.00000000000E+00 0. -1.
        -13    1    3    3    0    0 -0.99450108931E+01  0.53116043202E+02  0.17564163951E+02  0.56821801647E+02  0.00000000000E+00 0.  1.
         22    1    1    2    0    0  0.14916204297E+02 -0.23387117746E+02  0.86483275543E+02  0.90822945205E+02  0.00000000000E+00 0. -1.
<mgrwt>
<rscale>  0 0.68557801E+02</rscale>
<asrwt>0</asrwt>
<pdfrwt beam="1">  1        2 0.27432106E-01 0.92692743E+02</pdfrwt>
<pdfrwt beam="2">  1       -2 0.40196973E-02 0.92692743E+02</pdfrwt>
<totfact> 0.46161337E+04</totfact>
</mgrwt>
</event>
<event>
 6    1  0.1723639E-002  0.9782906E+02  0.7546771E-02  0.1358165E+00
         -2   -1    0    0    0  501 -0.00000000000E+00  0.00000000000E+00  0.13897191455E+02  0.13897191455E+02  0.00000000000E+00 0.  1.
          2   -1    0    0  501    0  0.00000000000E+00 -0.00000000000E+00 -0.34756697935E+03  0.34756697935E+03  0.00000000000E+00 0. -1.
         23    2    1    2    0    0  0.17815215259E+02  0.19604076458E+02 -0.17403484324E+03  0.19964631868E+03  0.94174434937E+02 0.  0.
         13    1    3    3    0    0 -0.37003463891E+02 -0.56213995710E+01 -0.63335419484E+02  0.73567872296E+02  0.00000000000E+00 0.  1.
        -13    1    3    3    0    0  0.54818679149E+02  0.25225476029E+02 -0.11069942375E+03  0.12607844639E+03  0.00000000000E+00 0. -1.
         22    1    1    2    0    0 -0.17815215259E+02 -0.19604076458E+02 -0.15963494466E+03  0.16181785213E+03  0.00000000000E+00 0. -1.
<mgrwt>
<rscale>  0 0.70569980E+02</rscale>
<asrwt>0</asrwt>
<pdfrwt beam="1">  1        2 0.53471836E-01 0.97829065E+02</pdfrwt>
<pdfrwt beam="2">  1       -2 0.21380297E-02 0.97829065E+02</pdfrwt>
<totfact> 0.57557206E+04</totfact>
</mgrwt>
</event>
<event>
 6    1  0.1723639E-002  0.9431272E+02  0.7546771E-02  0.1368913E+00
         -2   -1    0    0    0  501 -0.00000000000E+00  0.00000000000E+00  0.14115002687E+02  0.14115002687E+02  0.00000000000E+00 0.  1.
          2   -1    0    0  501    0  0.00000000000E+00 -0.00000000000E+00 -0.26209792650E+03  0.26209792650E+03  0.00000000000E+00 0. -1.
         23    2    1    2    0    0 -0.22515678239E+02 -0.10161099363E+02 -0.16997441082E+03  0.19438669985E+03  0.91020245225E+02 0.  0.
         11    1    3    3    0    0 -0.39317257618E+02 -0.23736830501E+02 -0.16623753135E+03  0.17246507095E+03  0.00000000000E+00 0. -1.
        -11    1    3    3    0    0  0.16801579379E+02  0.13575731138E+02 -0.37368794649E+01  0.21921628901E+02  0.00000000000E+00 0.  1.
         22    1    1    2    0    0  0.22515678239E+02  0.10161099363E+02 -0.78008512993E+02  0.81826229329E+02  0.00000000000E+00 0. -1.
<mgrwt>
<rscale>  0 0.67470208E+02</rscale>
<asrwt>0</asrwt>
<pdfrwt beam="1">  1        2 0.40322756E-01 0.94312718E+02</pdfrwt>
<pdfrwt beam="2">  1       -2 0.21715390E-02 0.94312718E+02</pdfrwt>
<totfact> 0.75271439E+04</totfact>
</mgrwt>
</event>
<event>
 6    1  0.1723639E-002  0.1261441E+03  0.7546771E-02  0.1252471E+00
         -3   -1    0    0    0  501 -0.00000000000E+00  0.00000000000E+00  0.12495178603E+04  0.12495178603E+04  0.00000000000E+00 0.  1.
          3   -1    0    0  501    0  0.00000000000E+00 -0.00000000000E+00 -0.10508814797E+02  0.10508814797E+02  0.00000000000E+00 0. -1.
         23    2    1    2    0    0 -0.75348978758E+02  0.40628673707E+02  0.95795907196E+03  0.96622870820E+03  0.92650824414E+02 0.  0.
         13    1    3    3    0    0 -0.15117889342E+02  0.56685896067E+02  0.32914765534E+03  0.33433519169E+03  0.00000000000E+00 0. -1.
        -13    1    3    3    0    0 -0.60231089415E+02 -0.16057222360E+02  0.62881141663E+03  0.63189351651E+03  0.00000000000E+00 0.  1.
         22    1    1    2    0    0  0.75348978758E+02 -0.40628673707E+02  0.28104997355E+03  0.29379796690E+03  0.00000000000E+00 0.  1.
<mgrwt>
<rscale>  0 0.11449184E+03</rscale>
<asrwt>0</asrwt>
<pdfrwt beam="1">  1        3 0.16167417E-02 0.12614410E+03</pdfrwt>
<pdfrwt beam="2">  1       -3 0.19223340E+00 0.12614410E+03</pdfrwt>
<totfact> 0.54402191E+02</totfact>
</mgrwt>
</event>
<event>
 6    1  0.1723639E-002  0.9369835E+02  0.7546771E-02  0.1406465E+00
         -2   -1    0    0    0  501 -0.00000000000E+00  0.00000000000E+00  0.50836834845E+02  0.50836834845E+02  0.00000000000E+00 0.  1.
          2   -1    0    0  501    0  0.00000000000E+00 -0.00000000000E+00 -0.73497490650E+02  0.73497490650E+02  0.00000000000E+00 0. -1.
         23    2    1    2    0    0  0.60530095313E+01 -0.12343244745E+02  0.45917129550E+01  0.93810790014E+02  0.92684334598E+02 0.  0.
         11    1    3    3    0    0 -0.32168499112E+02  0.13306785277E+02  0.25601192125E+02  0.43212311992E+02  0.00000000000E+00 0. -1.
        -11    1    3    3    0    0  0.38221508643E+02 -0.25650030022E+02 -0.21009479170E+02  0.50598478021E+02  0.00000000000E+00 0.  1.
         22    1    1    2    0    0 -0.60530095313E+01  0.12343244745E+02 -0.27252368760E+02  0.30523535481E+02  0.00000000000E+00 0. -1.
<mgrwt>
<rscale>  0 0.57990270E+02</rscale>
<asrwt>0</asrwt>
<pdfrwt beam="1">  1        2 0.11307306E-01 0.93698348E+02</pdfrwt>
<pdfrwt beam="2">  1       -2 0.78210516E-02 0.93698348E+02</pdfrwt>
<totfact> 0.46715152E+04</totfact>
</mgrwt>
</event>
<event>
 6    1  0.1723639E-002  0.9279842E+02  0.7546771E-02  0.1403488E+00
         -3   -1    0    0    0  501 -0.00000000000E+00  0.00000000000E+00  0.14511303216E+03  0.14511303216E+03  0.00000000000E+00 0.  1.
          3   -1    0    0  501    0  0.00000000000E+00 -0.00000000000E+00 -0.31590412538E+02  0.31590412538E+02  0.00000000000E+00 0. -1.
         23    2    1    2    0    0 -0.11057443419E+02 -0.98814763080E+01  0.12657481860E+03  0.15694817888E+03  0.91605870562E+02 0.  0.
         13    1    3    3    0    0  0.10371704516E+02  0.61441533904E+01 -0.11286547651E+02  0.16513904243E+02  0.00000000000E+00 0. -1.
        -13    1    3    3    0    0 -0.21429147934E+02 -0.16025629698E+02  0.13786136625E+03  0.14043427464E+03  0.00000000000E+00 0.  1.
         22    1    1    2    0    0  0.11057443419E+02  0.98814763080E+01 -0.13052198983E+02  0.19755265811E+02  0.00000000000E+00 0. -1.
<mgrwt>
<rscale>  0 0.58672717E+02</rscale>
<asrwt>0</asrwt>
<pdfrwt beam="1">  1        3 0.48600635E-02 0.92798417E+02</pdfrwt>
<pdfrwt beam="2">  1       -3 0.22325082E-01 0.92798417E+02</pdfrwt>
<totfact> 0.91440428E+03</totfact>
</mgrwt>
</event>
<event>
 6    1  0.1723639E-002  0.9736468E+02  0.7546771E-02  0.1357769E+00
         -2   -1    0    0    0  501 -0.00000000000E+00  0.00000000000E+00  0.28267213962E+03  0.28267213962E+03  0.00000000000E+00 0.  1.
          2   -1    0    0  501    0  0.00000000000E+00 -0.00000000000E+00 -0.14185999228E+02  0.14185999228E+02  0.00000000000E+00 0. -1.
         23    2    1    2    0    0  0.25675849721E+02  0.85148503602E+01  0.18437713516E+03  0.20850613436E+03  0.93531428736E+02 0.  0.
         13    1    3    3    0    0  0.16708502414E+02  0.44641897882E+02  0.15157103564E+03  0.15888943308E+03  0.00000000000E+00 0.  1.
        -13    1    3    3    0    0  0.89673473075E+01 -0.36127047522E+02  0.32806099516E+02  0.49616701279E+02  0.00000000000E+00 0. -1.
         22    1    1    2    0    0 -0.25675849721E+02 -0.85148503602E+01  0.84109005229E+02  0.88352004483E+02  0.00000000000E+00 0.  1.
<mgrwt>
<rscale>  0 0.70688140E+02</rscale>
<asrwt>0</asrwt>
<pdfrwt beam="1">  1        2 0.21824616E-02 0.97364676E+02</pdfrwt>
<pdfrwt beam="2">  1       -2 0.43488017E-01 0.97364676E+02</pdfrwt>
<totfact> 0.21789623E+04</totfact>
</mgrwt>
</event>
<event>
 6    1  0.1723639E-002  0.9202163E+02  0.7546771E-02  0.1424893E+00
         -2   -1    0    0    0  501 -0.00000000000E+00  0.00000000000E+00  0.60131378391E+02  0.60131378391E+02  0.00000000000E+00 0.  1.
          2   -1    0    0  501    0  0.00000000000E+00 -0.00000000000E+00 -0.44834878817E+02  0.44834878817E+02  0.00000000000E+00 0. -1.
         23    2    1    2    0    0 -0.39613481326E+00 -0.10903933787E+02  0.17905670509E+02  0.93747502029E+02  0.91372470720E+02 0.  0.
         13    1    3    3    0    0 -0.33666563979E+02 -0.36323413206E+02  0.15131496692E+02  0.51786002638E+02  0.00000000000E+00 0.  1.
        -13    1    3    3    0    0  0.33270429165E+02  0.25419479419E+02  0.27741738170E+01  0.41961499391E+02  0.00000000000E+00 0. -1.
         22    1    1    2    0    0  0.39613481326E+00  0.10903933787E+02 -0.26091709352E+01  0.11218755180E+02  0.00000000000E+00 0. -1.
<mgrwt>
<rscale>  0 0.53998893E+02</rscale>
<asrwt>0</asrwt>
<pdfrwt beam="1">  1        2 0.68976737E-02 0.92021634E+02</pdfrwt>
<pdfrwt beam="2">  1       -2 0.92509813E-02 0.92021634E+02</pdfrwt>
<totfact> 0.66064692E+04</totfact>
</mgrwt>
</event>
<event>
 6    1  0.1723639E-002  0.9684806E+02  0.7546771E-02  0.1365598E+00
          4   -1    0    0  501    0  0.00000000000E+00  0.00000000000E+00  0.71801079241E+02  0.71801079241E+02  0.00000000000E+00 0. -1.
         -4   -1    0    0    0  501 -0.00000000000E+00 -0.00000000000E+00 -0.93687523193E+02  0.93687523193E+02  0.00000000000E+00 0.  1.
         23    2    1    2    0    0  0.18431091187E+02  0.15535477648E+02 -0.64618634131E+02  0.11642643508E+03  0.93800270363E+02 0.  0.
         13    1    3    3    0    0 -0.18482920581E+02  0.28594107272E+02 -0.69082472474E+02  0.77017071659E+02  0.00000000000E+00 0.  1.
        -13    1    3    3    0    0  0.36914011768E+02 -0.13058629624E+02  0.44638383427E+01  0.39409363420E+02  0.00000000000E+00 0. -1.
         22    1    1    2    0    0 -0.18431091187E+02 -0.15535477648E+02  0.42732190179E+02  0.49062167355E+02  0.00000000000E+00 0. -1.
<mgrwt>
<rscale>  0 0.68406200E+02</rscale>
<asrwt>0</asrwt>
<pdfrwt beam="1">  1        4 0.11046320E-01 0.96848061E+02</pdfrwt>
<pdfrwt beam="2">  1       -4 0.14413465E-01 0.96848061E+02</pdfrwt>
<totfact> 0.38829856E+03</totfact>
</mgrwt>
</event>
<event>
 6    1  0.1723639E-002  0.9753897E+02  0.7546771E-02  0.1340203E+00
         -1   -1    0    0    0  501 -0.00000000000E+00  0.00000000000E+00  0.39214372355E+02  0.39214372355E+02  0.00000000000E+00 0.  1.
          1   -1    0    0  501    0  0.00000000000E+00 -0.00000000000E+00 -0.12860008968E+03  0.12860008968E+03  0.00000000000E+00 0. -1.
         23    2    1    2    0    0 -0.19944301142E+02 -0.30361577386E+02 -0.37550052951E+02  0.10451725333E+03  0.90522092533E+02 0.  0.
         11    1    3    3    0    0 -0.49052777164E+02 -0.25334950033E+02 -0.48026678614E+02  0.73175108469E+02  0.00000000000E+00 0. -1.
        -11    1    3    3    0    0  0.29108476023E+02 -0.50266273538E+01  0.10476625663E+02  0.31342144857E+02  0.00000000000E+00 0.  1.
         22    1    1    2    0    0  0.19944301142E+02  0.30361577386E+02 -0.51835664376E+02  0.63297208712E+02  0.00000000000E+00 0.  1.
<mgrwt>
<rscale>  0 0.76197183E+02</rscale>
<asrwt>0</asrwt>
<pdfrwt beam="1">  1        1 0.19784629E-01 0.97538965E+02</pdfrwt>
<pdfrwt beam="2">  1       -1 0.60329804E-02 0.97538965E+02</pdfrwt>
<totfact> 0.30354745E+04</totfact>
</mgrwt>
</event>
<event>
 6    1  0.1723639E-002  0.9197506E+02  0.7546771E-02  0.1381346E+00
         -2   -1    0    0    0  501 -0.00000000000E+00  0.00000000000E+00  0.13048598951E+03  0.13048598951E+03  0.00000000000E+00 0.  1.
          2   -1    0    0  501    0  0.00000000000E+00 -0.00000000000E+00 -0.26936389669E+02  0.26936389669E+02  0.00000000000E+00 0. -1.
         23    2    1    2    0    0 -0.19076345911E+02 -0.10371323395E+02  0.99199883565E+02  0.13527759754E+03  0.89375277194E+02 0.  0.
         13    1    3    3    0    0 -0.29313710540E+02 -0.12726638215E+02  0.11328519305E+03  0.11770639707E+03  0.00000000000E+00 0.  1.
        -13    1    3    3    0    0  0.10237364629E+02  0.23553148208E+01 -0.14085309488E+02  0.17571200467E+02  0.00000000000E+00 0. -1.
         22    1    1    2    0    0  0.19076345911E+02  0.10371323395E+02  0.43497162736E+01  0.22144781641E+02  0.00000000000E+00 0. -1.
<mgrwt>
<rscale>  0 0.64111283E+02</rscale>
<asrwt>0</asrwt>
<pdfrwt beam="1">  1        2 0.41440600E-02 0.91975059E+02</pdfrwt>
<pdfrwt beam="2">  1       -2 0.20074767E-01 0.91975059E+02</pdfrwt>
<totfact> 0.36635499E+04</totfact>
</mgrwt>
</event>
<event>
 6    1  0.1723639E-002  0.9413864E+02  0.7546771E-02  0.1390642E+00
          2   -1    0    0  501    0  0.00000000000E+00  0.00000000000E+00  0.79428991732E+01  0.79428991732E+01  0.00000000000E+00 0. -1.
         -2   -1    0    0    0  501 -0.00000000000E+00 -0.00000000000E+00 -0.57561932333E+03  0.57561932333E+03  0.00000000000E+00 0.  1.
         23    2    1    2    0    0 -0.57480622471E+01 -0.16449534818E+02 -0.55247636141E+03  0.56043930480E+03  0.92511929172E+02 0.  0.
         13    1    3    3    0    0 -0.10412312250E+01 -0.44789000505E+02 -0.48548986236E+03  0.48755260761E+03  0.00000000000E+00 0.  1.
        -13    1    3    3    0    0 -0.47068310220E+01  0.28339465688E+02 -0.66986499045E+02  0.72886697195E+02  0.00000000000E+00 0. -1.
         22    1    1    2    0    0  0.57480622471E+01  0.16449534818E+02 -0.15200062746E+02  0.23122917697E+02  0.00000000000E+00 0. -1.
<mgrwt>
<rscale>  0 0.61747386E+02</rscale>
<asrwt>0</asrwt>
<pdfrwt beam="1">  1        2 0.12219840E-02 0.94138645E+02</pdfrwt>
<pdfrwt beam="2">  1       -2 0.88556854E-01 0.94138645E+02</pdfrwt>
<totfact> 0.11026386E+04</totfact>
</mgrwt>
</event>
<event>
 6    1  0.1723639E-002  0.8869757E+02  0.7546771E-02  0.1430945E+00
         -1   -1    0    0    0  501 -0.00000000000E+00  0.00000000000E+00  0.13819505335E+02  0.13819505335E+02  0.00000000000E+00 0. -1.
          1   -1    0    0  501    0  0.00000000000E+00 -0.00000000000E+00 -0.20639219985E+03  0.20639219985E+03  0.00000000000E+00 0.  1.
         23    2    1    2    0    0  0.21787760255E+01 -0.10897582278E+02 -0.13469118406E+03  0.16127297753E+03  0.87998601436E+02 0.  0.
         13    1    3    3    0    0  0.41431082667E+02 -0.12098863912E+02 -0.99830876043E+02  0.10876176226E+03  0.00000000000E+00 0. -1.
        -13    1    3    3    0    0 -0.39252306641E+02  0.12012816340E+01 -0.34860308016E+02  0.52511215270E+02  0.00000000000E+00 0.  1.
         22    1    1    2    0    0 -0.21787760255E+01  0.10897582278E+02 -0.57881510452E+02  0.58938727647E+02  0.00000000000E+00 0.  1.
<mgrwt>
<rscale>  0 0.52770847E+02</rscale>
<asrwt>0</asrwt>
<pdfrwt beam="1">  1        1 0.31752644E-01 0.88697566E+02</pdfrwt>
<pdfrwt beam="2">  1       -1 0.21260779E-02 0.88697566E+02</pdfrwt>
<totfact> 0.75583953E+04</totfact>
</mgrwt>
</event>
<event>
 6    1  0.1723639E-002  0.1012728E+03  0.7546771E-02  0.1323396E+00
          2   -1    0    0  501    0  0.00000000000E+00  0.00000000000E+00  0.51272283885E+02  0.51272283885E+02  0.00000000000E+00 0.  1.
         -2   -1    0    0    0  501 -0.00000000000E+00 -0.00000000000E+00 -0.11124985995E+03  0.11124985995E+03  0.00000000000E+00 0. -1.
         23    2    1    2    0    0  0.38767417360E+01  0.43412846038E+02 -0.62254178046E+02  0.11887712987E+03  0.91413811838E+02 0.  0.
         13    1    3    3    0    0  0.23728888682E+01 -0.65812160073E+01  0.20789062740E+02  0.21934633239E+02  0.00000000000E+00 0.  1.
        -13    1    3    3    0    0  0.15038528678E+01  0.49994062046E+02 -0.83043240786E+02  0.96942496633E+02  0.00000000000E+00 0. -1.
         22    1    1    2    0    0 -0.38767417360E+01 -0.43412846038E+02  0.22766019776E+01  0.43645013967E+02  0.00000000000E+00 0.  1.
<mgrwt>
<rscale>  0 0.82026751E+02</rscale>
<asrwt>0</asrwt>
<pdfrwt beam="1">  1        2 0.78880438E-02 0.10127285E+03</pdfrwt>
<pdfrwt beam="2">  1       -2 0.17115363E-01 0.10127285E+03</pdfrwt>
<totfact> 0.21229393E+04</totfact>
</mgrwt>
</event>
<event>
 6    1  0.1723639E-002  0.8808600E+02  0.7546771E-02  0.1401670E+00
          1   -1    0    0  501    0  0.00000000000E+00  0.00000000000E+00  0.30236489342E+02  0.30236489342E+02  0.00000000000E+00 0. -1.
         -1   -1    0    0    0  501 -0.00000000000E+00 -0.00000000000E+00 -0.93287436314E+02  0.93287436314E+02  0.00000000000E+00 0.  1.
         23    2    1    2    0    0 -0.35969643174E+01  0.17477098549E+02 -0.48889905237E+02  0.10074406110E+03  0.86259816182E+02 0.  0.
         11    1    3    3    0    0 -0.39757941513E+01 -0.95164829299E+01  0.22320536575E+02  0.24588142253E+02  0.00000000000E+00 0. -1.
        -11    1    3    3    0    0  0.37882983390E+00  0.26993581479E+02 -0.71210441812E+02  0.76155918851E+02  0.00000000000E+00 0.  1.
         22    1    1    2    0    0  0.35969643174E+01 -0.17477098549E+02 -0.14161041735E+02  0.22779864552E+02  0.00000000000E+00 0.  1.
<mgrwt>
<rscale>  0 0.59094845E+02</rscale>
<asrwt>0</asrwt>
<pdfrwt beam="1">  1        1 0.46517675E-02 0.88085998E+02</pdfrwt>
<pdfrwt beam="2">  1       -1 0.14351914E-01 0.88085998E+02</pdfrwt>
<totfact> 0.54122333E+04</totfact>
</mgrwt>
</event>
<event>
 6    1  0.1723639E-002  0.9351276E+02  0.7546771E-02  0.1396045E+00
         -2   -1    0    0    0  501 -0.00000000000E+00  0.00000000000E+00  0.12980852061E+02  0.12980852061E+02  0.00000000000E+00 0.  1.
          2   -1    0    0  501    0  0.00000000000E+00 -0.00000000000E+00 -0.25205677709E+03  0.25205677709E+03  0.00000000000E+00 0. -1.
         23    2    1    2    0    0 -0.18090990179E+01 -0.16204847263E+02 -0.16957876632E+03  0.19365328225E+03  0.92080214080E+02 0.  0.
         11    1    3    3    0    0 -0.16287054626E+02  0.25701586361E+02 -0.13221820433E+03  0.13567421732E+03  0.00000000000E+00 0. -1.
        -11    1    3    3    0    0  0.14477955608E+02 -0.41906433624E+02 -0.37360561996E+02  0.57979064932E+02  0.00000000000E+00 0.  1.
         22    1    1    2    0    0  0.18090990179E+01  0.16204847263E+02 -0.69497158710E+02  0.71384346903E+02  0.00000000000E+00 0. -1.
<mgrwt>
<rscale>  0 0.60427802E+02</rscale>
<asrwt>0</asrwt>
<pdfrwt beam="1">  1        2 0.38777963E-01 0.93512757E+02</pdfrwt>
<pdfrwt beam="2">  1       -2 0.19970543E-02 0.93512757E+02</pdfrwt>
<totfact> 0.88365150E+04</totfact>
</mgrwt>
</event>
<event>
 6    1  0.1723639E-002  0.9147622E+02  0.7546771E-02  0.1429250E+00
         -1   -1    0    0    0  501 -0.00000000000E+00  0.00000000000E+00  0.53191719619E+03  0.53191719619E+03  0.00000000000E+00 0. -1.
          1   -1    0    0  501    0  0.00000000000E+00 -0.00000000000E+00 -0.10003205982E+02  0.10003205982E+02  0.00000000000E+00 0.  1.
         23    2    1    2    0    0  0.10187757239E+02  0.20633194125E+01  0.52347650330E+03  0.53140902111E+03  0.90883719826E+02 0.  0.
         11    1    3    3    0    0  0.32417913699E+02  0.28462003381E+01  0.67960127455E+02  0.75349856726E+02  0.00000000000E+00 0.  1.
        -11    1    3    3    0    0 -0.22230156460E+02 -0.78288092562E+00  0.45551637584E+03  0.45605916438E+03  0.00000000000E+00 0. -1.
         22    1    1    2    0    0 -0.10187757239E+02 -0.20633194125E+01 -0.15625130921E+01  0.10511381057E+02  0.00000000000E+00 0.  1.
<mgrwt>
<rscale>  0 0.53110829E+02</rscale>
<asrwt>0</asrwt>
<pdfrwt beam="1">  1        1 0.15389552E-02 0.91476217E+02</pdfrwt>
<pdfrwt beam="2">  1       -1 0.81833393E-01 0.91476217E+02</pdfrwt>
<totfact> 0.12303296E+04</totfact>
</mgrwt>
</event>
<event>
 6    1  0.1723639E-002  0.9534592E+02  0.7546771E-02  0.1363674E+00
         -4   -1    0    0    0  501 -0.00000000000E+00  0.00000000000E+00  0.70573493013E+01  0.70573493013E+01  0.00000000000E+00 0.  1.
          4   -1    0    0  501    0  0.00000000000E+00 -0.00000000000E+00 -0.52237919161E+03  0.52237919161E+03  0.00000000000E+00 0. -1.
         23    2    1    2    0    0 -0.20502947982E+02  0.16129412539E+02 -0.40333400401E+03  0.41445043414E+03  0.91707768148E+02 0.  0.
         11    1    3    3    0    0  0.27497996989E+02  0.16029590029E+02 -0.61360325131E+02  0.69124359636E+02  0.00000000000E+00 0.  1.
        -11    1    3    3    0    0 -0.48000944971E+02  0.99822510090E-01 -0.34197367888E+03  0.34532607450E+03  0.00000000000E+00 0. -1.
         22    1    1    2    0    0  0.20502947982E+02 -0.16129412539E+02 -0.11198783829E+03  0.11498610677E+03  0.00000000000E+00 0.  1.
<mgrwt>
<rscale>  0 0.68957639E+02</rscale>
<asrwt>0</asrwt>
<pdfrwt beam="1">  1        4 0.80366040E-01 0.95345915E+02</pdfrwt>
<pdfrwt beam="2">  1       -4 0.10857459E-02 0.95345915E+02</pdfrwt>
<totfact> 0.54452496E+03</totfact>
</mgrwt>
</event>
<event>
 6    1  0.1723639E-002  0.9545406E+02  0.7546771E-02  0.1355987E+00
         -2   -1    0    0    0  501 -0.00000000000E+00  0.00000000000E+00  0.47045266473E+01  0.47045266473E+01  0.00000000000E+00 0. -1.
          2   -1    0    0  501    0  0.00000000000E+00 -0.00000000000E+00 -0.90901105800E+03  0.90901105800E+03  0.00000000000E+00 0.  1.
         23    2    1    2    0    0 -0.67332697719E+00  0.29577225441E+02 -0.78560456063E+03  0.79138233696E+03  0.90753578169E+02 0.  0.
         11    1    3    3    0    0 -0.36637710927E+02  0.15667825628E+02 -0.17149924867E+03  0.17606758622E+03  0.00000000000E+00 0. -1.
        -11    1    3    3    0    0  0.35964383950E+02  0.13909399813E+02 -0.61410531195E+03  0.61531475075E+03  0.00000000000E+00 0.  1.
         22    1    1    2    0    0  0.67332697719E+00 -0.29577225441E+02 -0.11870197073E+03  0.12233324768E+03  0.00000000000E+00 0.  1.
<mgrwt>
<rscale>  0 0.71221856E+02</rscale>
<asrwt>0</asrwt>
<pdfrwt beam="1">  1        2 0.13984766E+00 0.95454060E+02</pdfrwt>
<pdfrwt beam="2">  1       -2 0.72377435E-03 0.95454060E+02</pdfrwt>
<totfact> 0.90810142E+04</totfact>
</mgrwt>
</event>
<event>
 6    1  0.1723639E-002  0.9223834E+02  0.7546771E-02  0.1390553E+00
          1   -1    0    0  501    0  0.00000000000E+00  0.00000000000E+00  0.20272710110E+03  0.20272710110E+03  0.00000000000E+00 0. -1.
         -1   -1    0    0    0  501 -0.00000000000E+00 -0.00000000000E+00 -0.20255705760E+02  0.20255705760E+02  0.00000000000E+00 0.  1.
         23    2    1    2    0    0  0.70736285413E+01  0.17149140654E+02  0.90722425534E+02  0.12937723701E+03  0.90353648053E+02 0.  0.
         13    1    3    3    0    0 -0.12228404016E+02 -0.94975798788E+01  0.94949519603E+02  0.96203685798E+02  0.00000000000E+00 0. -1.
        -13    1    3    3    0    0  0.19302032557E+02  0.26646720533E+02 -0.42270940687E+01  0.33173551216E+02  0.00000000000E+00 0.  1.
         22    1    1    2    0    0 -0.70736285413E+01 -0.17149140654E+02  0.91748969802E+02  0.93605569843E+02  0.00000000000E+00 0. -1.
<mgrwt>
<rscale>  0 0.61769459E+02</rscale>
<asrwt>0</asrwt>
<pdfrwt beam="1">  1        1 0.31188783E-01 0.92238338E+02</pdfrwt>
<pdfrwt beam="2">  1       -1 0.31162626E-02 0.92238338E+02</pdfrwt>
<totfact> 0.44886356E+04</totfact>
</mgrwt>
</event>
<event>
 6    1  0.1723639E-002  0.9435862E+02  0.7546771E-02  0.1362656E+00
          2   -1    0    0  501    0  0.00000000000E+00  0.00000000000E+00  0.15366935458E+02  0.15366935458E+02  0.00000000000E+00 0. -1.
         -2   -1    0    0    0  501 -0.00000000000E+00 -0.00000000000E+00 -0.27075692002E+03  0.27075692002E+03  0.00000000000E+00 0.  1.
         23    2    1    2    0    0  0.27003991081E+02  0.45026997196E+01 -0.23072783733E+03  0.24927672065E+03  0.90299826679E+02 0.  0.
         11    1    3    3    0    0  0.30474391816E+02  0.89474051002E+01 -0.18064475813E+02  0.36538608361E+02  0.00000000000E+00 0. -1.
        -11    1    3    3    0    0 -0.34704007349E+01 -0.44447053805E+01 -0.21266336152E+03  0.21273811229E+03  0.00000000000E+00 0.  1.
         22    1    1    2    0    0 -0.27003991081E+02 -0.45026997196E+01 -0.24662147224E+02  0.36847134824E+02  0.00000000000E+00 0. -1.
<mgrwt>
<rscale>  0 0.69251932E+02</rscale>
<asrwt>0</asrwt>
<pdfrwt beam="1">  1        2 0.23641441E-02 0.94358617E+02</pdfrwt>
<pdfrwt beam="2">  1       -2 0.41654908E-01 0.94358617E+02</pdfrwt>
<totfact> 0.21151623E+04</totfact>
</mgrwt>
</event>
<event>
 6    1  0.1723639E-002  0.8658421E+02  0.7546771E-02  0.1396220E+00
          2   -1    0    0  501    0  0.00000000000E+00  0.00000000000E+00  0.26976461079E+03  0.26976461079E+03  0.00000000000E+00 0. -1.
         -2   -1    0    0    0  501 -0.00000000000E+00 -0.00000000000E+00 -0.13625106849E+02  0.13625106849E+02  0.00000000000E+00 0.  1.
         23    2    1    2    0    0  0.91343291103E+01 -0.18335158371E+02  0.13396622777E+03  0.15951105358E+03  0.84126167322E+02 0.  0.
         11    1    3    3    0    0  0.32764407343E+02 -0.21039165190E+02  0.12960813869E+03  0.13533078909E+03  0.00000000000E+00 0. -1.
        -11    1    3    3    0    0 -0.23630078233E+02  0.27040068191E+01  0.43580890815E+01  0.24180264486E+02  0.00000000000E+00 0.  1.
         22    1    1    2    0    0 -0.91343291103E+01  0.18335158371E+02  0.12217327616E+03  0.12387866406E+03  0.00000000000E+00 0.  1.
<mgrwt>
<rscale>  0 0.60385864E+02</rscale>
<asrwt>0</asrwt>
<pdfrwt beam="1">  1        2 0.41502244E-01 0.86584214E+02</pdfrwt>
<pdfrwt beam="2">  1       -2 0.20961705E-02 0.86584214E+02</pdfrwt>
<totfact> 0.75902995E+04</totfact>
</mgrwt>
</event>
<event>
 6    1  0.1723639E-002  0.9318287E+02  0.7546771E-02  0.1368261E+00
          2   -1    0    0  501    0  0.00000000000E+00  0.00000000000E+00  0.41191148448E+02  0.41191148448E+02  0.00000000000E+00 0.  1.
         -2   -1    0    0    0  501 -0.00000000000E+00 -0.00000000000E+00 -0.11476480226E+03  0.11476480226E+03  0.00000000000E+00 0. -1.
         23    2    1    2    0    0  0.21346503248E+02  0.14650580292E+02 -0.86389099727E+02  0.12706740008E+03  0.89513881089E+02 0.  0.
         11    1    3    3    0    0  0.46153329561E+02  0.25849630550E+02 -0.84617697713E+02  0.99792224123E+02  0.00000000000E+00 0. -1.
        -11    1    3    3    0    0 -0.24806826313E+02 -0.11199050257E+02 -0.17714020136E+01  0.27275175957E+02  0.00000000000E+00 0.  1.
         22    1    1    2    0    0 -0.21346503248E+02 -0.14650580292E+02  0.12815445910E+02  0.28888550633E+02  0.00000000000E+00 0. -1.
<mgrwt>
<rscale>  0 0.67652952E+02</rscale>
<asrwt>0</asrwt>
<pdfrwt beam="1">  1        2 0.63370998E-02 0.93182872E+02</pdfrwt>
<pdfrwt beam="2">  1       -2 0.17656123E-01 0.93182872E+02</pdfrwt>
<totfact> 0.26294560E+04</totfact>
</mgrwt>
</event>
<event>
 6    1  0.1723639E-002  0.9134551E+02  0.7546771E-02  0.1414283E+00
          2   -1    0    0  501    0  0.00000000000E+00  0.00000000000E+00  0.59861107011E+03  0.59861107011E+03  0.00000000000E+00 0. -1.
         -2   -1    0    0    0  501 -0.00000000000E+00 -0.00000000000E+00 -0.48943100217E+01  0.48943100217E+01  0.00000000000E+00 0.  1.
         23    2    1    2    0    0 -0.10225339833E+02 -0.82428329337E+01  0.55846937147E+03  0.56589048582E+03  0.90396356150E+02 0.  0.
         13    1    3    3    0    0 -0.12325941316E+02  0.21964421715E+02  0.49423967446E+03  0.49488101647E+03  0.00000000000E+00 0. -1.
        -13    1    3    3    0    0  0.21006014830E+01 -0.30207254649E+02  0.64229697013E+02  0.71009469358E+02  0.00000000000E+00 0.  1.
         22    1    1    2    0    0  0.10225339833E+02  0.82428329337E+01  0.35247388619E+02  0.37614894310E+02  0.00000000000E+00 0. -1.
<mgrwt>
<rscale>  0 0.56248979E+02</rscale>
<asrwt>0</asrwt>
<pdfrwt beam="1">  1        2 0.92093953E-01 0.91345515E+02</pdfrwt>
<pdfrwt beam="2">  1       -2 0.75297124E-03 0.91345515E+02</pdfrwt>
<totfact> 0.14055232E+05</totfact>
</mgrwt>
</event>
<event>
 6    1  0.1723639E-002  0.9839404E+02  0.7546771E-02  0.1339698E+00
          2   -1    0    0  501    0  0.00000000000E+00  0.00000000000E+00  0.27400274989E+03  0.27400274989E+03  0.00000000000E+00 0. -1.
         -2   -1    0    0    0  501 -0.00000000000E+00 -0.00000000000E+00 -0.42879878220E+02  0.42879878220E+02  0.00000000000E+00 0.  1.
         23    2    1    2    0    0  0.19774356646E+02  0.29721870353E+02  0.17058305641E+02  0.99861769234E+02  0.91689543598E+02 0.  0.
         11    1    3    3    0    0  0.45094688109E+02  0.17687494508E+02  0.40638629820E+02  0.63228763955E+02  0.00000000000E+00 0. -1.
        -11    1    3    3    0    0 -0.25320331463E+02  0.12034375844E+02 -0.23580324179E+02  0.36633005279E+02  0.00000000000E+00 0.  1.
         22    1    1    2    0    0 -0.19774356646E+02 -0.29721870353E+02  0.21406456603E+03  0.21702085887E+03  0.00000000000E+00 0. -1.
<mgrwt>
<rscale>  0 0.76364312E+02</rscale>
<asrwt>0</asrwt>
<pdfrwt beam="1">  1        2 0.42154268E-01 0.98394040E+02</pdfrwt>
<pdfrwt beam="2">  1       -2 0.65969045E-02 0.98394040E+02</pdfrwt>
<totfact> 0.14072302E+04</totfact>
</mgrwt>
</event>
<event>
 6    1  0.1723639E-002  0.9054583E+02  0.7546771E-02  0.1422631E+00
          2   -1    0    0  501    0  0.00000000000E+00  0.00000000000E+00  0.59848838849E+01  0.59848838849E+01  0.00000000000E+00 0. -1.
         -2   -1    0    0    0  501 -0.00000000000E+00 -0.00000000000E+00 -0.47575050204E+03  0.47575050204E+03  0.00000000000E+00 0.  1.
         23    2    1    2    0    0 -0.11696648172E+02  0.19420499264E+01 -0.44687850264E+03  0.45595936619E+03  0.89766164931E+02 0.  0.
         13    1    3    3    0    0 -0.28955770137E+02  0.33880238787E+01 -0.43240975489E+03  0.43339140676E+03  0.00000000000E+00 0.  1.
        -13    1    3    3    0    0  0.17259121965E+02 -0.14459739523E+01 -0.14468747745E+02  0.22567959433E+02  0.00000000000E+00 0. -1.
         22    1    1    2    0    0  0.11696648172E+02 -0.19420499264E+01 -0.22887115524E+02  0.25776019735E+02  0.00000000000E+00 0. -1.
<mgrwt>
<rscale>  0 0.54468197E+02</rscale>
<asrwt>0</asrwt>
<pdfrwt beam="1">  1        2 0.92075138E-03 0.90545831E+02</pdfrwt>
<pdfrwt beam="2">  1       -2 0.73192384E-01 0.90545831E+02</pdfrwt>
<totfact> 0.24452831E+04</totfact>
</mgrwt>
</event>
<event>
 6    1  0.1723639E-002  0.9393888E+02  0.7546771E-02  0.1386571E+00
          2   -1    0    0  501    0  0.00000000000E+00  0.00000000000E+00  0.10567261734E+03  0.10567261734E+03  0.00000000000E+00 0. -1.
         -2   -1    0    0    0  501 -0.00000000000E+00 -0.00000000000E+00 -0.33424415701E+02  0.33424415701E+02  0.00000000000E+00 0.  1.
         23    2    1    2    0    0 -0.11120746760E+02  0.15064208418E+02  0.40626806806E+02  0.10234769298E+03  0.92053850779E+02 0.  0.
         13    1    3    3    0    0 -0.28686724081E+02  0.44930450485E+02  0.64789166294E+01  0.53699626441E+02  0.00000000000E+00 0. -1.
        -13    1    3    3    0    0  0.17565977321E+02 -0.29866242067E+02  0.34147890176E+02  0.48648066538E+02  0.00000000000E+00 0.  1.
         22    1    1    2    0    0  0.11120746760E+02 -0.15064208418E+02  0.31621394828E+02  0.36749340057E+02  0.00000000000E+00 0. -1.
<mgrwt>
<rscale>  0 0.62767630E+02</rscale>
<asrwt>0</asrwt>
<pdfrwt beam="1">  1        2 0.16257326E-01 0.93938878E+02</pdfrwt>
<pdfrwt beam="2">  1       -2 0.51422178E-02 0.93938878E+02</pdfrwt>
<totfact> 0.57452586E+04</totfact>
</mgrwt>
</event>
<event>
 6    1  0.1723639E-002  0.9480647E+02  0.7546771E-02  0.1385142E+00
         -1   -1    0    0    0  501 -0.00000000000E+00  0.00000000000E+00  0.12967954302E+03  0.12967954302E+03  0.00000000000E+00 0.  1.
          1   -1    0    0  501    0  0.00000000000E+00 -0.00000000000E+00 -0.26999428476E+02  0.26999428476E+02  0.00000000000E+00 0. -1.
         23    2    1    2    0    0 -0.14679317112E+02 -0.11488883866E+02  0.10008304592E+03  0.13785819657E+03  0.92955846934E+02 0.  0.
         13    1    3    3    0    0 -0.45131116000E+02 -0.27498713051E+02  0.85448440934E+02  0.10047105508E+03  0.00000000000E+00 0.  1.
        -13    1    3    3    0    0  0.30451798888E+02  0.16009829186E+02  0.14634604983E+02  0.37387141494E+02  0.00000000000E+00 0. -1.
         22    1    1    2    0    0  0.14679317112E+02  0.11488883866E+02  0.25970686308E+01  0.18820774926E+02  0.00000000000E+00 0. -1.
<mgrwt>
<rscale>  0 0.63131223E+02</rscale>
<asrwt>0</asrwt>
<pdfrwt beam="1">  1        1 0.41537583E-02 0.94806468E+02</pdfrwt>
<pdfrwt beam="2">  1       -1 0.19950699E-01 0.94806468E+02</pdfrwt>
<totfact> 0.38072922E+04</totfact>
</mgrwt>
</event>
<event>
 6    1  0.1723639E-002  0.9405686E+02  0.7546771E-02  0.1381305E+00
          2   -1    0    0  501    0  0.00000000000E+00  0.00000000000E+00  0.27093617689E+02  0.27093617689E+02  0.00000000000E+00 0. -1.
         -2   -1    0    0    0  501 -0.00000000000E+00 -0.00000000000E+00 -0.21754988994E+03  0.21754988994E+03  0.00000000000E+00 0.  1.
         23    2    1    2    0    0  0.66064406995E+01 -0.19212670577E+02 -0.20087943345E+03  0.22180901489E+03  0.91836379140E+02 0.  0.
         11    1    3    3    0    0  0.29592095661E+02  0.92914619449E-01 -0.18593883318E+03  0.18827891661E+03  0.00000000000E+00 0.  1.
        -11    1    3    3    0    0 -0.22985654962E+02 -0.19305585197E+02 -0.14940600275E+02  0.33530098276E+02  0.00000000000E+00 0. -1.
         22    1    1    2    0    0 -0.66064406995E+01  0.19212670577E+02  0.10423161197E+02  0.22834492742E+02  0.00000000000E+00 0. -1.
<mgrwt>
<rscale>  0 0.64121931E+02</rscale>
<asrwt>0</asrwt>
<pdfrwt beam="1">  1        2 0.41682489E-02 0.94056857E+02</pdfrwt>
<pdfrwt beam="2">  1       -2 0.33469214E-01 0.94056857E+02</pdfrwt>
<totfact> 0.14956465E+04</totfact>
</mgrwt>
</event>
<event>
 6    1  0.1723639E-002  0.1566069E+03  0.7546771E-02  0.1205640E+00
         -2   -1    0    0    0  501 -0.00000000000E+00  0.00000000000E+00  0.17233870246E+02  0.17233870246E+02  0.00000000000E+00 0.  1.
          2   -1    0    0  501    0  0.00000000000E+00 -0.00000000000E+00 -0.10988058178E+04  0.10988058178E+04  0.00000000000E+00 0. -1.
         23    2    1    2    0    0  0.11764472273E+03  0.74550686694E+01 -0.57636711895E+03  0.59726442102E+03  0.10310128016E+03 0.  0.
         13    1    3    3    0    0  0.12687088996E+03  0.25707605834E+02 -0.41809230333E+03  0.43767371159E+03  0.00000000000E+00 0.  1.
        -13    1    3    3    0    0 -0.92261672248E+01 -0.18252537164E+02 -0.15827481562E+03  0.15959070943E+03  0.00000000000E+00 0. -1.
         22    1    1    2    0    0 -0.11764472273E+03 -0.74550686694E+01 -0.50520482858E+03  0.51877526701E+03  0.00000000000E+00 0. -1.
<mgrwt>
<rscale>  0 0.14587099E+03</rscale>
<asrwt>0</asrwt>
<pdfrwt beam="1">  1        2 0.16904707E+00 0.15660694E+03</pdfrwt>
<pdfrwt beam="2">  1       -2 0.26513643E-02 0.15660694E+03</pdfrwt>
<totfact> 0.11329264E+04</totfact>
</mgrwt>
</event>
<event>
 6    1  0.1723639E-002  0.9615952E+02  0.7546771E-02  0.1370663E+00
          2   -1    0    0  501    0  0.00000000000E+00  0.00000000000E+00  0.14158932598E+03  0.14158932598E+03  0.00000000000E+00 0.  1.
         -2   -1    0    0    0  501 -0.00000000000E+00 -0.00000000000E+00 -0.27882681842E+02  0.27882681842E+02  0.00000000000E+00 0. -1.
         23    2    1    2    0    0  0.12654111087E+02  0.18774204121E+02  0.65896027060E+02  0.11657160732E+03  0.93456171457E+02 0.  0.
         11    1    3    3    0    0 -0.23486587101E+01 -0.30344912618E+02 -0.30618425251E+01  0.30589292230E+02  0.00000000000E+00 0. -1.
        -11    1    3    3    0    0  0.15002769797E+02  0.49119116739E+02  0.68957869585E+02  0.85982315091E+02  0.00000000000E+00 0.  1.
         22    1    1    2    0    0 -0.12654111087E+02 -0.18774204121E+02  0.47810617075E+02  0.52900400498E+02  0.00000000000E+00 0. -1.
<mgrwt>
<rscale>  0 0.66983255E+02</rscale>
<asrwt>0</asrwt>
<pdfrwt beam="1">  1        2 0.21782973E-01 0.96159520E+02</pdfrwt>
<pdfrwt beam="2">  1       -2 0.42896435E-02 0.96159520E+02</pdfrwt>
<totfact> 0.54233121E+04</totfact>
</mgrwt>
</event>
<event>
 6    1  0.1723639E-002  0.9700945E+02  0.7546771E-02  0.1370069E+00
         -2   -1    0    0    0  501 -0.00000000000E+00  0.00000000000E+00  0.30239963772E+03  0.30239963772E+03  0.00000000000E+00 0. -1.
          2   -1    0    0  501    0  0.00000000000E+00 -0.00000000000E+00 -0.12855454435E+02  0.12855454435E+02  0.00000000000E+00 0.  1.
         23    2    1    2    0    0  0.17251144180E+02 -0.14081173958E+02  0.26457174891E+03  0.28179610361E+03  0.94419024863E+02 0.  0.
         13    1    3    3    0    0  0.21191401526E+02 -0.79949877495E+01  0.27109718660E+03  0.27204168782E+03  0.00000000000E+00 0. -1.
        -13    1    3    3    0    0 -0.39402573465E+01 -0.60861862089E+01 -0.65254376902E+01  0.97544157987E+01  0.00000000000E+00 0.  1.
         22    1    1    2    0    0 -0.17251144180E+02  0.14081173958E+02  0.24972434381E+02  0.33458988545E+02  0.00000000000E+00 0. -1.
<mgrwt>
<rscale>  0 0.67147952E+02</rscale>
<asrwt>0</asrwt>
<pdfrwt beam="1">  1        2 0.19777624E-02 0.97009452E+02</pdfrwt>
<pdfrwt beam="2">  1       -2 0.46523016E-01 0.97009452E+02</pdfrwt>
<totfact> 0.21849126E+04</totfact>
</mgrwt>
</event>
<event>
 6    1  0.1723639E-002  0.9381118E+02  0.7546771E-02  0.1376416E+00
         -2   -1    0    0    0  501 -0.00000000000E+00  0.00000000000E+00  0.98830289357E+02  0.98830289357E+02  0.00000000000E+00 0.  1.
          2   -1    0    0  501    0  0.00000000000E+00 -0.00000000000E+00 -0.58234587866E+02  0.58234587866E+02  0.00000000000E+00 0. -1.
         23    2    1    2    0    0  0.44246935328E+01 -0.21733830222E+02  0.72253392071E+02  0.11841068390E+03  0.91151522785E+02 0.  0.
         13    1    3    3    0    0  0.38709698660E+02 -0.19021557097E+02  0.72102725422E+02  0.84018232653E+02  0.00000000000E+00 0.  1.
        -13    1    3    3    0    0 -0.34285005127E+02 -0.27122731246E+01  0.15066664815E+00  0.34392451243E+02  0.00000000000E+00 0. -1.
         22    1    1    2    0    0 -0.44246935328E+01  0.21733830222E+02 -0.31657690580E+02  0.38654193328E+02  0.00000000000E+00 0. -1.
<mgrwt>
<rscale>  0 0.65415349E+02</rscale>
<asrwt>0</asrwt>
<pdfrwt beam="1">  1        2 0.89591673E-02 0.93811179E+02</pdfrwt>
<pdfrwt beam="2">  1       -2 0.15204660E-01 0.93811179E+02</pdfrwt>
<totfact> 0.21813662E+04</totfact>
</mgrwt>
</event>
<event>
 6    1  0.1723639E-002  0.9243967E+02  0.7546771E-02  0.1394403E+00
         -2   -1    0    0    0  501 -0.00000000000E+00  0.00000000000E+00  0.22309051166E+03  0.22309051166E+03  0.00000000000E+00 0. -1.
          2   -1    0    0  501    0  0.00000000000E+00 -0.00000000000E+00 -0.36767324374E+02  0.36767324374E+02  0.00000000000E+00 0.  1.
         23    2    1    2    0    0  0.97421941059E+01 -0.14329967093E+02  0.21062130085E+03  0.23001396521E+03  0.90801065631E+02 0.  0.
         11    1    3    3    0    0 -0.30882890237E+02  0.15006418927E+02  0.13499088663E+03  0.13928921348E+03  0.00000000000E+00 0. -1.
        -11    1    3    3    0    0  0.40625084343E+02 -0.29336386020E+02  0.75630414217E+02  0.90724751734E+02  0.00000000000E+00 0.  1.
         22    1    1    2    0    0 -0.97421941059E+01  0.14329967093E+02 -0.24298113561E+02  0.29843870820E+02  0.00000000000E+00 0.  1.
<mgrwt>
<rscale>  0 0.60824795E+02</rscale>
<asrwt>0</asrwt>
<pdfrwt beam="1">  1        2 0.56565116E-02 0.92439666E+02</pdfrwt>
<pdfrwt beam="2">  1       -2 0.34321616E-01 0.92439666E+02</pdfrwt>
<totfact> 0.96091800E+03</totfact>
</mgrwt>
</event>
<event>
 6    1  0.1723639E-002  0.9288200E+02  0.7546771E-02  0.1381507E+00
         -3   -1    0    0    0  501 -0.00000000000E+00  0.00000000000E+00  0.20812180934E+02  0.20812180934E+02  0.00000000000E+00 0.  1.
          3   -1    0    0  501    0  0.00000000000E+00 -0.00000000000E+00 -0.15845471677E+03  0.15845471677E+03  0.00000000000E+00 0. -1.
         23    2    1    2    0    0  0.14693361435E+02 -0.15042950313E+02 -0.10258365095E+03  0.13838523147E+03  0.90470335599E+02 0.  0.
         13    1    3    3    0    0  0.44970054739E+02  0.14981797086E+02 -0.36876828324E+02  0.60055478804E+02  0.00000000000E+00 0.  1.
        -13    1    3    3    0    0 -0.30276693303E+02 -0.30024747399E+02 -0.65706822622E+02  0.78329752666E+02  0.00000000000E+00 0. -1.
         22    1    1    2    0    0 -0.14693361435E+02  0.15042950313E+02 -0.35058884894E+02  0.40881666238E+02  0.00000000000E+00 0. -1.
<mgrwt>
<rscale>  0 0.64069187E+02</rscale>
<asrwt>0</asrwt>
<pdfrwt beam="1">  1        3 0.24377650E-01 0.92882005E+02</pdfrwt>
<pdfrwt beam="2">  1       -3 0.32018739E-02 0.92882005E+02</pdfrwt>
<totfact> 0.14941771E+04</totfact>
</mgrwt>
</event>
<event>
 6    1  0.1723639E-002  0.9517960E+02  0.7546771E-02  0.1358385E+00
         -2   -1    0    0    0  501 -0.00000000000E+00  0.00000000000E+00  0.42632777470E+03  0.42632777470E+03  0.00000000000E+00 0.  1.
          2   -1    0    0  501    0  0.00000000000E+00 -0.00000000000E+00 -0.13114311929E+02  0.13114311929E+02  0.00000000000E+00 0. -1.
         23    2    1    2    0    0  0.51544829133E+01  0.28190198915E+02  0.39302928896E+03  0.40438988440E+03  0.90762881237E+02 0.  0.
         11    1    3    3    0    0  0.17727479866E+02 -0.71394151435E+01  0.14453149918E+02  0.23960975221E+02  0.00000000000E+00 0. -1.
        -11    1    3    3    0    0 -0.12572996953E+02  0.35329614058E+02  0.37857613905E+03  0.38042890918E+03  0.00000000000E+00 0.  1.
         22    1    1    2    0    0 -0.51544829133E+01 -0.28190198915E+02  0.20184173807E+02  0.35052202231E+02  0.00000000000E+00 0.  1.
<mgrwt>
<rscale>  0 0.70504645E+02</rscale>
<asrwt>0</asrwt>
<pdfrwt beam="1">  1        2 0.20175868E-02 0.95179602E+02</pdfrwt>
<pdfrwt beam="2">  1       -2 0.65588878E-01 0.95179602E+02</pdfrwt>
<totfact> 0.10653586E+04</totfact>
</mgrwt>
</event>
<event>
 6    1  0.1723639E-002  0.9390108E+02  0.7546771E-02  0.1356682E+00
          2   -1    0    0  501    0  0.00000000000E+00  0.00000000000E+00  0.11878919681E+02  0.11878919681E+02  0.00000000000E+00 0. -1.
         -2   -1    0    0    0  501 -0.00000000000E+00 -0.00000000000E+00 -0.43323323895E+03  0.43323323895E+03  0.00000000000E+00 0.  1.
         23    2    1    2    0    0 -0.28234826200E+02  0.12089917075E+02 -0.39029100717E+03  0.40142805552E+03  0.88735798764E+02 0.  0.
         11    1    3    3    0    0  0.52381692001E+00  0.15994613091E+02 -0.35660535284E+03  0.35696425550E+03  0.00000000000E+00 0.  1.
        -11    1    3    3    0    0 -0.28758643120E+02 -0.39046960153E+01 -0.33685654325E+02  0.44463800022E+02  0.00000000000E+00 0. -1.
         22    1    1    2    0    0  0.28234826200E+02 -0.12089917075E+02 -0.31063312102E+02  0.43684103106E+02  0.00000000000E+00 0.  1.
<mgrwt>
<rscale>  0 0.71013071E+02</rscale>
<asrwt>0</asrwt>
<pdfrwt beam="1">  1        2 0.18275264E-02 0.93901084E+02</pdfrwt>
<pdfrwt beam="2">  1       -2 0.66651255E-01 0.93901084E+02</pdfrwt>
<totfact> 0.11758134E+04</totfact>
</mgrwt>
</event>
<event>
 6    1  0.1723639E-002  0.9417955E+02  0.7546771E-02  0.1389606E+00
         -2   -1    0    0    0  501 -0.00000000000E+00  0.00000000000E+00  0.43831060315E+01  0.43831060315E+01  0.00000000000E+00 0.  1.
          2   -1    0    0  501    0  0.00000000000E+00 -0.00000000000E+00 -0.71505424974E+03  0.71505424974E+03  0.00000000000E+00 0. -1.
         23    2    1    2    0    0  0.17405032112E+02  0.31854311816E+01 -0.60859506816E+03  0.61583905793E+03  0.92502465797E+02 0.  0.
         13    1    3    3    0    0 -0.31578797083E+02 -0.17174222864E+02 -0.35118674665E+03  0.35302167834E+03  0.00000000000E+00 0. -1.
        -13    1    3    3    0    0  0.48983829196E+02  0.20359654045E+02 -0.25740832151E+03  0.26281737960E+03  0.00000000000E+00 0.  1.
         22    1    1    2    0    0 -0.17405032112E+02 -0.31854311816E+01 -0.10207607555E+03  0.10359829783E+03  0.00000000000E+00 0. -1.
<mgrwt>
<rscale>  0 0.62004720E+02</rscale>
<asrwt>0</asrwt>
<pdfrwt beam="1">  1        2 0.11000823E+00 0.94179553E+02</pdfrwt>
<pdfrwt beam="2">  1       -2 0.67432471E-03 0.94179553E+02</pdfrwt>
<totfact> 0.13453256E+05</totfact>
</mgrwt>
</event>
<event>
 6    1  0.1723639E-002  0.9857039E+02  0.7546771E-02  0.1329637E+00
          2   -1    0    0  501    0  0.00000000000E+00  0.00000000000E+00  0.17630036105E+03  0.17630036105E+03  0.00000000000E+00 0.  1.
         -2   -1    0    0    0  501 -0.00000000000E+00 -0.00000000000E+00 -0.38748615297E+02  0.38748615297E+02  0.00000000000E+00 0. -1.
         23    2    1    2    0    0  0.29714868173E+02 -0.30146846070E+02  0.35845742632E+02  0.10488583919E+03  0.89018628828E+02 0.  0.
         11    1    3    3    0    0  0.22119928514E+01 -0.31095790832E+02 -0.23784707520E+02  0.39211649183E+02  0.00000000000E+00 0. -1.
        -11    1    3    3    0    0  0.27502875321E+02  0.94894476207E+00  0.59630450153E+02  0.65674190003E+02  0.00000000000E+00 0.  1.
         22    1    1    2    0    0 -0.29714868173E+02  0.30146846070E+02  0.10170600312E+03  0.11016313716E+03  0.00000000000E+00 0.  1.
<mgrwt>
<rscale>  0 0.79794182E+02</rscale>
<asrwt>0</asrwt>
<pdfrwt beam="1">  1        2 0.27123132E-01 0.98570391E+02</pdfrwt>
<pdfrwt beam="2">  1       -2 0.59613255E-02 0.98570391E+02</pdfrwt>
<totfact> 0.26207276E+04</totfact>
</mgrwt>
</event>
<event>
 6    1  0.1723639E-002  0.9709472E+02  0.7546771E-02  0.1355883E+00
         -2   -1    0    0    0  501 -0.00000000000E+00  0.00000000000E+00  0.20586060316E+02  0.20586060316E+02  0.00000000000E+00 0. -1.
          2   -1    0    0  501    0  0.00000000000E+00 -0.00000000000E+00 -0.19616528853E+03  0.19616528853E+03  0.00000000000E+00 0.  1.
         23    2    1    2    0    0  0.13055008288E+02 -0.24950515609E+02 -0.15015527900E+03  0.17881273179E+03  0.92921600114E+02 0.  0.
         13    1    3    3    0    0  0.30998763504E+02 -0.82285384405E+01 -0.15090312938E+03  0.15427373931E+03  0.00000000000E+00 0.  1.
        -13    1    3    3    0    0 -0.17943755216E+02 -0.16721977169E+02  0.74785038251E+00  0.24538992479E+02  0.00000000000E+00 0. -1.
         22    1    1    2    0    0 -0.13055008288E+02  0.24950515609E+02 -0.25423949219E+02  0.37938617060E+02  0.00000000000E+00 0.  1.
<mgrwt>
<rscale>  0 0.71253013E+02</rscale>
<asrwt>0</asrwt>
<pdfrwt beam="1">  1        2 0.30179276E-01 0.97094723E+02</pdfrwt>
<pdfrwt beam="2">  1       -2 0.31670861E-02 0.97094723E+02</pdfrwt>
<totfact> 0.59442241E+04</totfact>
</mgrwt>
</event>
<event>
 6    1  0.1723639E-002  0.8922730E+02  0.7546771E-02  0.1425425E+00
         -4   -1    0    0    0  501 -0.00000000000E+00  0.00000000000E+00  0.17893574653E+02  0.17893574653E+02  0.00000000000E+00 0.  1.
          4   -1    0    0  501    0  0.00000000000E+00 -0.00000000000E+00 -0.16863142865E+03  0.16863142865E+03  0.00000000000E+00 0. -1.
         23    2    1    2    0    0  0.11382787590E+02 -0.33723562017E+01 -0.98286657000E+02  0.13274704587E+03  0.88433990084E+02 0.  0.
         13    1    3    3    0    0 -0.91831022536E+00  0.24008735492E+02 -0.99839296055E+02  0.10268956963E+03  0.00000000000E+00 0. -1.
        -13    1    3    3    0    0  0.12301097816E+02 -0.27381091693E+02  0.15526390548E+01  0.30057476239E+02  0.00000000000E+00 0.  1.
         22    1    1    2    0    0 -0.11382787590E+02  0.33723562017E+01 -0.52451196997E+02  0.53777957437E+02  0.00000000000E+00 0. -1.
<mgrwt>
<rscale>  0 0.53889338E+02</rscale>
<asrwt>0</asrwt>
<pdfrwt beam="1">  1        4 0.25943296E-01 0.89227301E+02</pdfrwt>
<pdfrwt beam="2">  1       -4 0.27528578E-02 0.89227301E+02</pdfrwt>
<totfact> 0.12445008E+04</totfact>
</mgrwt>
</event>
<event>
 6    1  0.1723639E-002  0.9725135E+02  0.7546771E-02  0.1341528E+00
         -2   -1    0    0    0  501 -0.00000000000E+00  0.00000000000E+00  0.11382291495E+03  0.11382291495E+03  0.00000000000E+00 0.  1.
          2   -1    0    0  501    0  0.00000000000E+00 -0.00000000000E+00 -0.44459073442E+02  0.44459073442E+02  0.00000000000E+00 0. -1.
         23    2    1    2    0    0 -0.22547888419E+02  0.27831901892E+02  0.73945257829E+02  0.12217089023E+03  0.90414618442E+02 0.  0.
         13    1    3    3    0    0  0.16873346178E+02 -0.17507061447E+02 -0.30536076452E+01  0.24505744865E+02  0.00000000000E+00 0. -1.
        -13    1    3    3    0    0 -0.39421234597E+02  0.45338963340E+02  0.76998865474E+02  0.97665145360E+02  0.00000000000E+00 0.  1.
         22    1    1    2    0    0  0.22547888419E+02 -0.27831901892E+02 -0.45814163230E+01  0.36111098164E+02  0.00000000000E+00 0. -1.
<mgrwt>
<rscale>  0 0.75761924E+02</rscale>
<asrwt>0</asrwt>
<pdfrwt beam="1">  1        2 0.68398575E-02 0.97251351E+02</pdfrwt>
<pdfrwt beam="2">  1       -2 0.17511218E-01 0.97251351E+02</pdfrwt>
<totfact> 0.24328475E+04</totfact>
</mgrwt>
</event>
<event>
 6    1  0.1723639E-002  0.9666539E+02  0.7546771E-02  0.1358659E+00
          2   -1    0    0  501    0  0.00000000000E+00  0.00000000000E+00  0.11706598684E+04  0.11706598684E+04  0.00000000000E+00 0. -1.
         -2   -1    0    0    0  501 -0.00000000000E+00 -0.00000000000E+00 -0.35532571189E+01  0.35532571189E+01  0.00000000000E+00 0.  1.
         23    2    1    2    0    0  0.18646868295E+02 -0.19844505947E+02  0.10229528362E+04  0.10275099525E+04  0.92750672314E+02 0.  0.
         13    1    3    3    0    0  0.49783139106E+02 -0.29942210018E+02  0.46787357212E+03  0.47146641065E+03  0.00000000000E+00 0.  1.
        -13    1    3    3    0    0 -0.31136270811E+02  0.10097704072E+02  0.55507926409E+03  0.55604354183E+03  0.00000000000E+00 0. -1.
         22    1    1    2    0    0 -0.18646868295E+02  0.19844505947E+02  0.14415377507E+03  0.14670317304E+03  0.00000000000E+00 0. -1.
<mgrwt>
<rscale>  0 0.70423545E+02</rscale>
<asrwt>0</asrwt>
<pdfrwt beam="1">  1        2 0.18010121E+00 0.96665388E+02</pdfrwt>
<pdfrwt beam="2">  1       -2 0.54665588E-03 0.96665388E+02</pdfrwt>
<totfact> 0.95245059E+04</totfact>
</mgrwt>
</event>
<event>
 6    1  0.1723639E-002  0.1340552E+03  0.7546771E-02  0.1267213E+00
          2   -1    0    0  501    0  0.00000000000E+00  0.00000000000E+00  0.34582256315E+03  0.34582256315E+03  0.00000000000E+00 0. -1.
         -2   -1    0    0    0  501 -0.00000000000E+00 -0.00000000000E+00 -0.29334808109E+02  0.29334808109E+02  0.00000000000E+00 0.  1.
         23    2    1    2    0    0 -0.31867234878E+02  0.42822782626E+02  0.15424064733E+03  0.20435504303E+03  0.12296948788E+03 0.  0.
         11    1    3    3    0    0 -0.46576064812E+02 -0.19241763300E+02  0.12383224074E+03  0.13369367642E+03  0.00000000000E+00 0. -1.
        -11    1    3    3    0    0  0.14708829933E+02  0.62064545926E+02  0.30408406596E+02  0.70661366607E+02  0.00000000000E+00 0.  1.
         22    1    1    2    0    0  0.31867234878E+02 -0.42822782626E+02  0.16224710771E+03  0.17080232823E+03  0.00000000000E+00 0. -1.
<mgrwt>
<rscale>  0 0.10648914E+03</rscale>
<asrwt>0</asrwt>
<pdfrwt beam="1">  1        2 0.53203468E-01 0.13405524E+03</pdfrwt>
<pdfrwt beam="2">  1       -2 0.45130476E-02 0.13405524E+03</pdfrwt>
<totfact> 0.20040254E+04</totfact>
</mgrwt>
</event>
<event>
 6    1  0.1723639E-002  0.9250418E+02  0.7546771E-02  0.1400777E+00
          2   -1    0    0  501    0  0.00000000000E+00  0.00000000000E+00  0.11774652022E+03  0.11774652022E+03  0.00000000000E+00 0. -1.
         -2   -1    0    0    0  501 -0.00000000000E+00 -0.00000000000E+00 -0.28167913177E+02  0.28167913177E+02  0.00000000000E+00 0.  1.
         23    2    1    2    0    0  0.13884493633E+01 -0.15564150042E+02  0.54137786571E+02  0.10718172998E+03  0.91174847127E+02 0.  0.
         11    1    3    3    0    0  0.30234213363E+02  0.25906334893E+02  0.35480855539E+02  0.53330450543E+02  0.00000000000E+00 0. -1.
        -11    1    3    3    0    0 -0.28845764000E+02 -0.41470484936E+02  0.18656931032E+02  0.53851279438E+02  0.00000000000E+00 0.  1.
         22    1    1    2    0    0 -0.13884493633E+01  0.15564150042E+02  0.35440820469E+02  0.38732703413E+02  0.00000000000E+00 0. -1.
<mgrwt>
<rscale>  0 0.59303822E+02</rscale>
<asrwt>0</asrwt>
<pdfrwt beam="1">  1        2 0.18114849E-01 0.92504180E+02</pdfrwt>
<pdfrwt beam="2">  1       -2 0.43335252E-02 0.92504180E+02</pdfrwt>
<totfact> 0.65318599E+04</totfact>
</mgrwt>
</event>
<event>
 6    1  0.1723639E-002  0.9366988E+02  0.7546771E-02  0.1374109E+00
          1   -1    0    0  501    0  0.00000000000E+00  0.00000000000E+00  0.58884815978E+02  0.58884815978E+02  0.00000000000E+00 0. -1.
         -1   -1    0    0    0  501 -0.00000000000E+00 -0.00000000000E+00 -0.59207761003E+02  0.59207761003E+02  0.00000000000E+00 0.  1.
         23    2    1    2    0    0 -0.22552946047E+02 -0.51812480785E+01 -0.72156528602E+01  0.93947388468E+02  0.90766543652E+02 0.  0.
         13    1    3    3    0    0 -0.34000885891E+02  0.35977229617E+02 -0.12068777291E+02  0.50951709271E+02  0.00000000000E+00 0. -1.
        -13    1    3    3    0    0  0.11447939844E+02 -0.41158477695E+02  0.48531244307E+01  0.42995679197E+02  0.00000000000E+00 0.  1.
         22    1    1    2    0    0  0.22552946047E+02  0.51812480785E+01  0.68927078348E+01  0.24145188514E+02  0.00000000000E+00 0. -1.
<mgrwt>
<rscale>  0 0.66037853E+02</rscale>
<asrwt>0</asrwt>
<pdfrwt beam="1">  1        1 0.90592025E-02 0.93669879E+02</pdfrwt>
<pdfrwt beam="2">  1       -1 0.91088863E-02 0.93669879E+02</pdfrwt>
<totfact> 0.44758318E+04</totfact>
</mgrwt>
</event>
<event>
 6    1  0.1723639E-002  0.9181986E+02  0.7546771E-02  0.1414386E+00
          2   -1    0    0  501    0  0.00000000000E+00  0.00000000000E+00  0.16202683713E+03  0.16202683713E+03  0.00000000000E+00 0. -1.
         -2   -1    0    0    0  501 -0.00000000000E+00 -0.00000000000E+00 -0.16933291918E+02  0.16933291918E+02  0.00000000000E+00 0.  1.
         23    2    1    2    0    0 -0.12853546973E+02  0.12150303492E+01  0.12579254288E+03  0.15573904683E+03  0.90907628359E+02 0.  0.
         13    1    3    3    0    0 -0.48082523436E+02  0.13236895276E+02  0.95536410393E+02  0.10776989453E+03  0.00000000000E+00 0.  1.
        -13    1    3    3    0    0  0.35228976463E+02 -0.12021864926E+02  0.30256132490E+02  0.47969152299E+02  0.00000000000E+00 0. -1.
         22    1    1    2    0    0  0.12853546973E+02 -0.12150303492E+01  0.19301002333E+02  0.23221082222E+02  0.00000000000E+00 0.  1.
<mgrwt>
<rscale>  0 0.56226514E+02</rscale>
<asrwt>0</asrwt>
<pdfrwt beam="1">  1        2 0.24927205E-01 0.91819861E+02</pdfrwt>
<pdfrwt beam="2">  1       -2 0.26051219E-02 0.91819861E+02</pdfrwt>
<totfact> 0.96298331E+04</totfact>
</mgrwt>
</event>
<event>
 6    1  0.1723639E-002  0.9819000E+02  0.7546771E-02  0.1369290E+00
          2   -1    0    0  501    0  0.00000000000E+00  0.00000000000E+00  0.65009715231E+03  0.65009715231E+03  0.00000000000E+00 0. -1.
         -2   -1    0    0    0  501 -0.00000000000E+00 -0.00000000000E+00 -0.63443932595E+01  0.63443932595E+01  0.00000000000E+00 0.  1.
         23    2    1    2    0    0  0.18875718059E+02  0.10813393607E+02  0.59511084961E+03  0.60315686139E+03  0.95749955148E+02 0.  0.
         13    1    3    3    0    0  0.41847870435E+02  0.22288222362E+01  0.55176750802E+03  0.55335666149E+03  0.00000000000E+00 0. -1.
        -13    1    3    3    0    0 -0.22972152376E+02  0.85845713704E+01  0.43343341590E+02  0.49800199905E+02  0.00000000000E+00 0.  1.
         22    1    1    2    0    0 -0.18875718059E+02 -0.10813393607E+02  0.48641909438E+02  0.53284684172E+02  0.00000000000E+00 0.  1.
<mgrwt>
<rscale>  0 0.67364887E+02</rscale>
<asrwt>0</asrwt>
<pdfrwt beam="1">  1        2 0.10001489E+00 0.98190000E+02</pdfrwt>
<pdfrwt beam="2">  1       -2 0.97606101E-03 0.98190000E+02</pdfrwt>
<totfact> 0.89620752E+04</totfact>
</mgrwt>
</event>
<event>
 6    1  0.1723639E-002  0.8479647E+02  0.7546771E-02  0.1431998E+00
         -2   -1    0    0    0  501 -0.00000000000E+00  0.00000000000E+00  0.52826681247E+01  0.52826681247E+01  0.00000000000E+00 0.  1.
          2   -1    0    0  501    0  0.00000000000E+00 -0.00000000000E+00 -0.45252106681E+03  0.45252106681E+03  0.00000000000E+00 0. -1.
         23    2    1    2    0    0  0.70632898616E+01  0.10334383072E+02 -0.37298400013E+03  0.38250164172E+03  0.83867467061E+02 0.  0.
         13    1    3    3    0    0  0.75972039566E+01 -0.34705469199E+02 -0.22585489614E+03  0.22863206514E+03  0.00000000000E+00 0. -1.
        -13    1    3    3    0    0 -0.53391409500E+00  0.45039852271E+02 -0.14712910399E+03  0.15386957658E+03  0.00000000000E+00 0.  1.
         22    1    1    2    0    0 -0.70632898616E+01 -0.10334383072E+02 -0.74254398558E+02  0.75302093214E+02  0.00000000000E+00 0. -1.
<mgrwt>
<rscale>  0 0.52560966E+02</rscale>
<asrwt>0</asrwt>
<pdfrwt beam="1">  1        2 0.69618638E-01 0.84796471E+02</pdfrwt>
<pdfrwt beam="2">  1       -2 0.81271803E-03 0.84796471E+02</pdfrwt>
<totfact> 0.16911516E+05</totfact>
</mgrwt>
</event>
<event>
 6    1  0.1723639E-002  0.6208890E+02  0.7546771E-02  0.1512187E+00
          4   -1    0    0  501    0  0.00000000000E+00  0.00000000000E+00  0.72923166201E+01  0.72923166201E+01  0.00000000000E+00 0. -1.
         -4   -1    0    0    0  501 -0.00000000000E+00 -0.00000000000E+00 -0.20658905408E+03  0.20658905408E+03  0.00000000000E+00 0.  1.
         23    2    1    2    0    0 -0.15172360821E+01  0.10020243022E+02 -0.19082652658E+03  0.20067335238E+03  0.61256214658E+02 0.  0.
         11    1    3    3    0    0  0.29681643628E+02  0.22719693439E+01 -0.84272311322E+02  0.89375523880E+02  0.00000000000E+00 0. -1.
        -11    1    3    3    0    0 -0.31198879711E+02  0.77482736785E+01 -0.10655421525E+03  0.11129782850E+03  0.00000000000E+00 0.  1.
         22    1    1    2    0    0  0.15172360821E+01 -0.10020243022E+02 -0.84702108830E+01  0.13208018321E+02  0.00000000000E+00 0.  1.
<mgrwt>
<rscale>  0 0.39464864E+02</rscale>
<asrwt>0</asrwt>
<pdfrwt beam="1">  1        4 0.11218949E-02 0.62088897E+02</pdfrwt>
<pdfrwt beam="2">  1       -4 0.31782931E-01 0.62088897E+02</pdfrwt>
<totfact> 0.29387324E+04</totfact>
</mgrwt>
</event>
<event>
 6    1  0.1723639E-002  0.8825745E+02  0.7546771E-02  0.1393133E+00
          2   -1    0    0  501    0  0.00000000000E+00  0.00000000000E+00  0.74922401385E+03  0.74922401385E+03  0.00000000000E+00 0. -1.
         -2   -1    0    0    0  501 -0.00000000000E+00 -0.00000000000E+00 -0.57822084208E+01  0.57822084208E+01  0.00000000000E+00 0.  1.
         23    2    1    2    0    0  0.44116037192E+01 -0.19833375319E+02  0.71278104404E+03  0.71822433389E+03  0.85886855945E+02 0.  0.
         11    1    3    3    0    0  0.12167428766E+02 -0.51353895491E+02  0.52626916070E+03  0.52890878080E+03  0.00000000000E+00 0. -1.
        -11    1    3    3    0    0 -0.77558250471E+01  0.31520520171E+02  0.18651188334E+03  0.18931555309E+03  0.00000000000E+00 0.  1.
         22    1    1    2    0    0 -0.44116037192E+01  0.19833375319E+02  0.30660761388E+02  0.36781888381E+02  0.00000000000E+00 0.  1.
<mgrwt>
<rscale>  0 0.61134206E+02</rscale>
<asrwt>0</asrwt>
<pdfrwt beam="1">  1        2 0.11526516E+00 0.88257448E+02</pdfrwt>
<pdfrwt beam="2">  1       -2 0.88957112E-03 0.88257448E+02</pdfrwt>
<totfact> 0.85366424E+04</totfact>
</mgrwt>
</event>
<event>
 6    1  0.1723639E-002  0.9933741E+02  0.7546771E-02  0.1385861E+00
         -4   -1    0    0    0  501 -0.00000000000E+00  0.00000000000E+00  0.60792191258E+02  0.60792191258E+02  0.00000000000E+00 0.  1.
          4   -1    0    0  501    0  0.00000000000E+00 -0.00000000000E+00 -0.54977881976E+02  0.54977881976E+02  0.00000000000E+00 0. -1.
         23    2    1    2    0    0 -0.57929429757E+01  0.14932981893E+02  0.22595439222E+01  0.99363108454E+02  0.98037593026E+02 0.  0.
         13    1    3    3    0    0  0.28905909552E+02 -0.63917090186E+01  0.35904744139E+02  0.46535536990E+02  0.00000000000E+00 0.  1.
        -13    1    3    3    0    0 -0.34698852528E+02  0.21324690911E+02 -0.33645200217E+02  0.52827571465E+02  0.00000000000E+00 0. -1.
         22    1    1    2    0    0  0.57929429757E+01 -0.14932981893E+02  0.35547653601E+01  0.16406964780E+02  0.00000000000E+00 0.  1.
<mgrwt>
<rscale>  0 0.62947950E+02</rscale>
<asrwt>0</asrwt>
<pdfrwt beam="1">  1        4 0.84581357E-02 0.99337414E+02</pdfrwt>
<pdfrwt beam="2">  1       -4 0.93526448E-02 0.99337414E+02</pdfrwt>
<totfact> 0.12705379E+04</totfact>
</mgrwt>
</event>
<event>
 6    1  0.1723639E-002  0.9323854E+02  0.7546771E-02  0.1366205E+00
          2   -1    0    0  501    0  0.00000000000E+00  0.00000000000E+00  0.56856543590E+02  0.56856543590E+02  0.00000000000E+00 0. -1.
         -2   -1    0    0    0  501 -0.00000000000E+00 -0.00000000000E+00 -0.66048209362E+02  0.66048209362E+02  0.00000000000E+00 0.  1.
         23    2    1    2    0    0 -0.17933371591E+02 -0.19838340856E+02 -0.17571836028E+02  0.94879891881E+02  0.89321099844E+02 0.  0.
         11    1    3    3    0    0  0.19420575144E+02  0.12510853783E+02 -0.35465104561E+02  0.42325569610E+02  0.00000000000E+00 0.  1.
        -11    1    3    3    0    0 -0.37353946735E+02 -0.32349194639E+02  0.17893268533E+02  0.52554322270E+02  0.00000000000E+00 0. -1.
         22    1    1    2    0    0  0.17933371591E+02  0.19838340856E+02  0.83801702563E+01  0.28024861072E+02  0.00000000000E+00 0. -1.
<mgrwt>
<rscale>  0 0.68233462E+02</rscale>
<asrwt>0</asrwt>
<pdfrwt beam="1">  1        2 0.87471606E-02 0.93238535E+02</pdfrwt>
<pdfrwt beam="2">  1       -2 0.10161263E-01 0.93238535E+02</pdfrwt>
<totfact> 0.42575270E+04</totfact>
</mgrwt>
</event>
<event>
 6    1  0.1723639E-002  0.9105463E+02  0.7546771E-02  0.1422367E+00
          4   -1    0    0  501    0  0.00000000000E+00  0.00000000000E+00  0.24540872212E+03  0.24540872212E+03  0.00000000000E+00 0. -1.
         -4   -1    0    0    0  501 -0.00000000000E+00 -0.00000000000E+00 -0.12083231356E+02  0.12083231356E+02  0.00000000000E+00 0.  1.
         23    2    1    2    0    0 -0.11453548331E+02 -0.24198659223E+01  0.16764895938E+03  0.19078028811E+03  0.90298976917E+02 0.  0.
         11    1    3    3    0    0  0.34336377099E+02 -0.67575611916E+01  0.11809160084E+03  0.12316768089E+03  0.00000000000E+00 0. -1.
        -11    1    3    3    0    0 -0.45789925429E+02  0.43376952694E+01  0.49557358533E+02  0.67612607225E+02  0.00000000000E+00 0.  1.
         22    1    1    2    0    0  0.11453548331E+02  0.24198659223E+01  0.65676531384E+02  0.66711665360E+02  0.00000000000E+00 0. -1.
<mgrwt>
<rscale>  0 0.54523313E+02</rscale>
<asrwt>0</asrwt>
<pdfrwt beam="1">  1        4 0.37755184E-01 0.91054625E+02</pdfrwt>
<pdfrwt beam="2">  1       -4 0.18589589E-02 0.91054625E+02</pdfrwt>
<totfact> 0.11279847E+04</totfact>
</mgrwt>
</event>
<event>
 6    1  0.1723639E-002  0.1057290E+03  0.7546771E-02  0.1331321E+00
         -2   -1    0    0    0  501 -0.00000000000E+00  0.00000000000E+00  0.63329713322E+02  0.63329713322E+02  0.00000000000E+00 0.  1.
          2   -1    0    0  501    0  0.00000000000E+00 -0.00000000000E+00 -0.83571280608E+02  0.83571280608E+02  0.00000000000E+00 0. -1.
         23    2    1    2    0    0  0.15699890082E+02  0.29366200821E+02  0.38520112575E+01  0.10579915910E+03  0.10034821262E+03 0.  0.
         11    1    3    3    0    0 -0.34605973936E+02  0.16416539329E+02 -0.25614277548E+02  0.46077840769E+02  0.00000000000E+00 0. -1.
        -11    1    3    3    0    0  0.50305864018E+02  0.12949661493E+02  0.29466288806E+02  0.59721318332E+02  0.00000000000E+00 0.  1.
         22    1    1    2    0    0 -0.15699890082E+02 -0.29366200821E+02 -0.24093578543E+02  0.41101834829E+02  0.00000000000E+00 0. -1.
<mgrwt>
<rscale>  0 0.79205481E+02</rscale>
<asrwt>0</asrwt>
<pdfrwt beam="1">  1        2 0.12857120E-01 0.10572901E+03</pdfrwt>
<pdfrwt beam="2">  1       -2 0.97430329E-02 0.10572901E+03</pdfrwt>
<totfact> 0.29008863E+04</totfact>
</mgrwt>
</event>
<event>
 6    1  0.1723639E-002  0.8935706E+02  0.7546771E-02  0.1398579E+00
          2   -1    0    0  501    0  0.00000000000E+00  0.00000000000E+00  0.98110573904E+01  0.98110573904E+01  0.00000000000E+00 0. -1.
         -2   -1    0    0    0  501 -0.00000000000E+00 -0.00000000000E+00 -0.30312891606E+03  0.30312891606E+03  0.00000000000E+00 0.  1.
         23    2    1    2    0    0  0.38362116494E+01  0.17535318818E+02 -0.26229828166E+03  0.27710119440E+03  0.87535589625E+02 0.  0.
         13    1    3    3    0    0  0.13146428211E+02 -0.36615801241E+01  0.13620479243E+00  0.13647501436E+02  0.00000000000E+00 0. -1.
        -13    1    3    3    0    0 -0.93102165617E+01  0.21196898942E+02 -0.26243448645E+03  0.26345369297E+03  0.00000000000E+00 0.  1.
         22    1    1    2    0    0 -0.38362116494E+01 -0.17535318818E+02 -0.31019577010E+02  0.35838779049E+02  0.00000000000E+00 0. -1.
<mgrwt>
<rscale>  0 0.59822284E+02</rscale>
<asrwt>0</asrwt>
<pdfrwt beam="1">  1        2 0.15093938E-02 0.89357056E+02</pdfrwt>
<pdfrwt beam="2">  1       -2 0.46635206E-01 0.89357056E+02</pdfrwt>
<totfact> 0.31010007E+04</totfact>
</mgrwt>
</event>
<event>
 6    1  0.1723639E-002  0.9402019E+02  0.7546771E-02  0.1390120E+00
         -1   -1    0    0    0  501 -0.00000000000E+00  0.00000000000E+00  0.57051550470E+01  0.57051550470E+01  0.00000000000E+00 0.  1.
          1   -1    0    0  501    0  0.00000000000E+00 -0.00000000000E+00 -0.54801616741E+03  0.54801616741E+03  0.00000000000E+00 0. -1.
         23    2    1    2    0    0 -0.17590866991E+02  0.12901318849E+01 -0.44485494110E+03  0.45468199255E+03  0.92350921432E+02 0.  0.
         11    1    3    3    0    0 -0.74792066408E+01  0.56977660465E+00 -0.44447427353E+03  0.44453756085E+03  0.00000000000E+00 0. -1.
        -11    1    3    3    0    0 -0.10111660350E+02  0.72035528023E+00 -0.38066757027E+00  0.10144431703E+02  0.00000000000E+00 0.  1.
         22    1    1    2    0    0  0.17590866991E+02 -0.12901318849E+01 -0.97456071265E+02  0.99039329906E+02  0.00000000000E+00 0. -1.
<mgrwt>
<rscale>  0 0.61876946E+02</rscale>
<asrwt>0</asrwt>
<pdfrwt beam="1">  1        1 0.84310205E-01 0.94020188E+02</pdfrwt>
<pdfrwt beam="2">  1       -1 0.87771590E-03 0.94020188E+02</pdfrwt>
<totfact> 0.79566966E+04</totfact>
</mgrwt>
</event>
<event>
 6    1  0.1723639E-002  0.9257568E+02  0.7546771E-02  0.1423021E+00
         -2   -1    0    0    0  501 -0.00000000000E+00  0.00000000000E+00  0.28375335110E+03  0.28375335110E+03  0.00000000000E+00 0.  1.
          2   -1    0    0  501    0  0.00000000000E+00 -0.00000000000E+00 -0.11995254042E+02  0.11995254042E+02  0.00000000000E+00 0. -1.
         23    2    1    2    0    0 -0.40687141416E+01 -0.10249649450E+02  0.26885225805E+03  0.28434449847E+03  0.91916524107E+02 0.  0.
         11    1    3    3    0    0 -0.22575875600E+02  0.21201026988E+02  0.31396012264E+02  0.44100604197E+02  0.00000000000E+00 0. -1.
        -11    1    3    3    0    0  0.18507161458E+02 -0.31450676438E+02  0.23745624578E+03  0.24024389427E+03  0.00000000000E+00 0.  1.
         22    1    1    2    0    0  0.40687141416E+01  0.10249649450E+02  0.29058390089E+01  0.11404106671E+02  0.00000000000E+00 0. -1.
<mgrwt>
<rscale>  0 0.54386830E+02</rscale>
<asrwt>0</asrwt>
<pdfrwt beam="1">  1        2 0.18454239E-02 0.92575683E+02</pdfrwt>
<pdfrwt beam="2">  1       -2 0.43654357E-01 0.92575683E+02</pdfrwt>
<totfact> 0.26946869E+04</totfact>
</mgrwt>
</event>
<event>
 6    1  0.1723639E-002  0.9263344E+02  0.7546771E-02  0.1417515E+00
         -1   -1    0    0    0  501 -0.00000000000E+00  0.00000000000E+00  0.13676937962E+03  0.13676937962E+03  0.00000000000E+00 0.  1.
          1   -1    0    0  501    0  0.00000000000E+00 -0.00000000000E+00 -0.25761442690E+02  0.25761442690E+02  0.00000000000E+00 0. -1.
         23    2    1    2    0    0  0.99441834834E+01  0.66798571224E+01  0.11692280565E+03  0.14917069700E+03  0.91855577320E+02 0.  0.
         13    1    3    3    0    0 -0.20856420845E+02 -0.31540346172E+02  0.77430106508E+02  0.86169629922E+02  0.00000000000E+00 0.  1.
        -13    1    3    3    0    0  0.30800604329E+02  0.38220203294E+02  0.39492699143E+02  0.63001067074E+02  0.00000000000E+00 0. -1.
         22    1    1    2    0    0 -0.99441834834E+01 -0.66798571224E+01 -0.59148687227E+01  0.13360125311E+02  0.00000000000E+00 0.  1.
<mgrwt>
<rscale>  0 0.55550131E+02</rscale>
<asrwt>0</asrwt>
<pdfrwt beam="1">  1        1 0.39632990E-02 0.92633441E+02</pdfrwt>
<pdfrwt beam="2">  1       -1 0.21041443E-01 0.92633441E+02</pdfrwt>
<totfact> 0.37167076E+04</totfact>
</mgrwt>
</event>
<event>
 6    1  0.1723639E-002  0.9198877E+02  0.7546771E-02  0.1391590E+00
          2   -1    0    0  501    0  0.00000000000E+00  0.00000000000E+00  0.10125247484E+03  0.10125247484E+03  0.00000000000E+00 0. -1.
         -2   -1    0    0    0  501 -0.00000000000E+00 -0.00000000000E+00 -0.30170242413E+02  0.30170242413E+02  0.00000000000E+00 0.  1.
         23    2    1    2    0    0 -0.15154629585E+02  0.10423799261E+02  0.61794270347E+02  0.11081726583E+03  0.90131105445E+02 0.  0.
         13    1    3    3    0    0  0.93534275105E+01 -0.37235549685E+02  0.25232174113E+02  0.45941651875E+02  0.00000000000E+00 0.  1.
        -13    1    3    3    0    0 -0.24508057095E+02  0.47659348946E+02  0.36562096235E+02  0.64875613952E+02  0.00000000000E+00 0. -1.
         22    1    1    2    0    0  0.15154629585E+02 -0.10423799261E+02  0.92879620805E+01  0.20605451427E+02  0.00000000000E+00 0.  1.
<mgrwt>
<rscale>  0 0.61512988E+02</rscale>
<asrwt>0</asrwt>
<pdfrwt beam="1">  1        2 0.15577304E-01 0.91988774E+02</pdfrwt>
<pdfrwt beam="2">  1       -2 0.46415758E-02 0.91988774E+02</pdfrwt>
<totfact> 0.70049586E+04</totfact>
</mgrwt>
</event>
<event>
 6    1  0.1723639E-002  0.9541447E+02  0.7546771E-02  0.1382968E+00
         -1   -1    0    0    0  501 -0.00000000000E+00  0.00000000000E+00  0.68434754177E+02  0.68434754177E+02  0.00000000000E+00 0.  1.
          1   -1    0    0  501    0  0.00000000000E+00 -0.00000000000E+00 -0.47930948613E+02  0.47930948613E+02  0.00000000000E+00 0. -1.
         23    2    1    2    0    0  0.18881688170E+02 -0.15187614179E+01  0.14604682989E+02  0.96525732238E+02  0.93515214989E+02 0.  0.
         11    1    3    3    0    0 -0.22789325383E+02  0.30483059944E+02 -0.87097852853E+01  0.39043957979E+02  0.00000000000E+00 0. -1.
        -11    1    3    3    0    0  0.41671013552E+02 -0.32001821362E+02  0.23314468274E+02  0.57481774258E+02  0.00000000000E+00 0.  1.
         22    1    1    2    0    0 -0.18881688170E+02  0.15187614179E+01  0.58991225752E+01  0.19839970553E+02  0.00000000000E+00 0.  1.
<mgrwt>
<rscale>  0 0.63689959E+02</rscale>
<asrwt>0</asrwt>
<pdfrwt beam="1">  1        1 0.73739921E-02 0.95414465E+02</pdfrwt>
<pdfrwt beam="2">  1       -1 0.10528424E-01 0.95414465E+02</pdfrwt>
<totfact> 0.47363916E+04</totfact>
</mgrwt>
</event>
<event>
 6    1  0.1723639E-002  0.8984755E+02  0.7546771E-02  0.1390911E+00
          2   -1    0    0  501    0  0.00000000000E+00  0.00000000000E+00  0.63591371723E+03  0.63591371723E+03  0.00000000000E+00 0. -1.
         -2   -1    0    0    0  501 -0.00000000000E+00 -0.00000000000E+00 -0.47413853820E+01  0.47413853820E+01  0.00000000000E+00 0.  1.
         23    2    1    2    0    0  0.65261914340E+01  0.18859007269E+02  0.52064935758E+03  0.52834490196E+03  0.87603245073E+02 0.  0.
         11    1    3    3    0    0 -0.36049258181E+02  0.27960702383E+02  0.23369026436E+03  0.23810184701E+03  0.00000000000E+00 0. -1.
        -11    1    3    3    0    0  0.42575449615E+02 -0.91016951142E+01  0.28695909322E+03  0.29024305495E+03  0.00000000000E+00 0.  1.
         22    1    1    2    0    0 -0.65261914340E+01 -0.18859007269E+02  0.11052297427E+03  0.11231020066E+03  0.00000000000E+00 0.  1.
<mgrwt>
<rscale>  0 0.61680743E+02</rscale>
<asrwt>0</asrwt>
<pdfrwt beam="1">  1        2 0.97832812E-01 0.89847548E+02</pdfrwt>
<pdfrwt beam="2">  1       -2 0.72944441E-03 0.89847548E+02</pdfrwt>
<totfact> 0.13696299E+05</totfact>
</mgrwt>
</event>
<event>
 6    1  0.1723639E-002  0.1024138E+03  0.7546771E-02  0.1370342E+00
          2   -1    0    0  501    0  0.00000000000E+00  0.00000000000E+00  0.43633377037E+03  0.43633377037E+03  0.00000000000E+00 0. -1.
         -2   -1    0    0    0  501 -0.00000000000E+00 -0.00000000000E+00 -0.85391281019E+01  0.85391281019E+01  0.00000000000E+00 0.  1.
         23    2    1    2    0    0 -0.68754171662E+01  0.17541189073E+02  0.34050318435E+03  0.35557136824E+03  0.10066585662E+03 0.  0.
         13    1    3    3    0    0  0.24118681352E+02 -0.28672330064E+02  0.69921819010E+02  0.79327637524E+02  0.00000000000E+00 0.  1.
        -13    1    3    3    0    0 -0.30994098518E+02  0.46213519136E+02  0.27058136534E+03  0.27624373072E+03  0.00000000000E+00 0. -1.
         22    1    1    2    0    0  0.68754171662E+01 -0.17541189073E+02  0.87291457920E+02  0.89301530229E+02  0.00000000000E+00 0. -1.
<mgrwt>
<rscale>  0 0.67072098E+02</rscale>
<asrwt>0</asrwt>
<pdfrwt beam="1">  1        2 0.67128255E-01 0.10241377E+03</pdfrwt>
<pdfrwt beam="2">  1       -2 0.13137124E-02 0.10241377E+03</pdfrwt>
<totfact> 0.91576453E+04</totfact>
</mgrwt>
</event>
<event>
 6    1  0.1723639E-002  0.9257817E+02  0.7546771E-02  0.1398964E+00
         -2   -1    0    0    0  501 -0.00000000000E+00  0.00000000000E+00  0.47019171370E+02  0.47019171370E+02  0.00000000000E+00 0.  1.
          2   -1    0    0  501    0  0.00000000000E+00 -0.00000000000E+00 -0.68673490733E+02  0.68673490733E+02  0.00000000000E+00 0. -1.
         23    2    1    2    0    0  0.13182225903E+02 -0.91431164667E+01 -0.52183886007E+01  0.92725131141E+02  0.91177577875E+02 0.  0.
         11    1    3    3    0    0  0.33430171586E+02  0.28839261454E+02  0.12942176057E+02  0.46008469814E+02  0.00000000000E+00 0.  1.
        -11    1    3    3    0    0 -0.20247945683E+02 -0.37982377921E+02 -0.18160564658E+02  0.46716661328E+02  0.00000000000E+00 0. -1.
         22    1    1    2    0    0 -0.13182225903E+02  0.91431164667E+01 -0.16435930762E+02  0.22967530962E+02  0.00000000000E+00 0. -1.
<mgrwt>
<rscale>  0 0.59731127E+02</rscale>
<asrwt>0</asrwt>
<pdfrwt beam="1">  1        2 0.10565152E-01 0.92578174E+02</pdfrwt>
<pdfrwt beam="2">  1       -2 0.72337187E-02 0.92578174E+02</pdfrwt>
<totfact> 0.56987919E+04</totfact>
</mgrwt>
</event>
<event>
 6    1  0.1723639E-002  0.9306485E+02  0.7546771E-02  0.1420761E+00
         -2   -1    0    0    0  501 -0.00000000000E+00  0.00000000000E+00  0.30656965649E+02  0.30656965649E+02  0.00000000000E+00 0.  1.
          2   -1    0    0  501    0  0.00000000000E+00 -0.00000000000E+00 -0.88732640114E+02  0.88732640114E+02  0.00000000000E+00 0. -1.
         23    2    1    2    0    0 -0.11199232122E+02  0.92768784077E+00 -0.52327923664E+02  0.10676740135E+03  0.92383889246E+02 0.  0.
         11    1    3    3    0    0 -0.53159651812E+01  0.16036078809E+01 -0.79127118852E+02  0.79321699313E+02  0.00000000000E+00 0. -1.
        -11    1    3    3    0    0 -0.58832669413E+01 -0.67592004009E+00  0.26799195189E+02  0.27445702042E+02  0.00000000000E+00 0.  1.
         22    1    1    2    0    0  0.11199232122E+02 -0.92768784077E+00 -0.57477508007E+01  0.12622204408E+02  0.00000000000E+00 0.  1.
<mgrwt>
<rscale>  0 0.54860220E+02</rscale>
<asrwt>0</asrwt>
<pdfrwt beam="1">  1        2 0.13651175E-01 0.93064850E+02</pdfrwt>
<pdfrwt beam="2">  1       -2 0.47164563E-02 0.93064850E+02</pdfrwt>
<totfact> 0.79871429E+04</totfact>
</mgrwt>
</event>
<event>
 6    1  0.1723639E-002  0.9033738E+02  0.7546771E-02  0.1403662E+00
         -2   -1    0    0    0  501 -0.00000000000E+00  0.00000000000E+00  0.44533037339E+02  0.44533037339E+02  0.00000000000E+00 0.  1.
          2   -1    0    0  501    0  0.00000000000E+00 -0.00000000000E+00 -0.67578810920E+02  0.67578810920E+02  0.00000000000E+00 0. -1.
         23    2    1    2    0    0  0.14391285169E+02  0.70619489580E+01 -0.89753929502E+01  0.90782154801E+02  0.88903665502E+02 0.  0.
         11    1    3    3    0    0 -0.13613633543E+01 -0.13085957655E+01 -0.47914391624E+02  0.47951586603E+02  0.00000000000E+00 0. -1.
        -11    1    3    3    0    0  0.15752648523E+02  0.83705447235E+01  0.38938998673E+02  0.42830568198E+02  0.00000000000E+00 0.  1.
         22    1    1    2    0    0 -0.14391285169E+02 -0.70619489580E+01 -0.14070380631E+02  0.21329693458E+02  0.00000000000E+00 0.  1.
<mgrwt>
<rscale>  0 0.58632454E+02</rscale>
<asrwt>0</asrwt>
<pdfrwt beam="1">  1        2 0.10396740E-01 0.90337378E+02</pdfrwt>
<pdfrwt beam="2">  1       -2 0.68512365E-02 0.90337378E+02</pdfrwt>
<totfact> 0.62867820E+04</totfact>
</mgrwt>
</event>
<event>
 6    1  0.1723639E-002  0.9557318E+02  0.7546771E-02  0.1353075E+00
          2   -1    0    0  501    0  0.00000000000E+00  0.00000000000E+00  0.19187885722E+03  0.19187885722E+03  0.00000000000E+00 0.  1.
         -2   -1    0    0    0  501 -0.00000000000E+00 -0.00000000000E+00 -0.26914151969E+02  0.26914151969E+02  0.00000000000E+00 0. -1.
         23    2    1    2    0    0 -0.16096324831E+01  0.30923462856E+02  0.68787242209E+02  0.11775363138E+03  0.90417816495E+02 0.  0.
         11    1    3    3    0    0 -0.31518511426E+02  0.13528972275E+00  0.67856909264E+02  0.74819750071E+02  0.00000000000E+00 0.  1.
        -11    1    3    3    0    0  0.29908878943E+02  0.30788173133E+02  0.93033294492E+00  0.42933881305E+02  0.00000000000E+00 0. -1.
         22    1    1    2    0    0  0.16096324831E+01 -0.30923462856E+02  0.96177463040E+02  0.10103937781E+03  0.00000000000E+00 0.  1.
<mgrwt>
<rscale>  0 0.72105925E+02</rscale>
<asrwt>0</asrwt>
<pdfrwt beam="1">  1        2 0.29519823E-01 0.95573181E+02</pdfrwt>
<pdfrwt beam="2">  1       -2 0.41406389E-02 0.95573181E+02</pdfrwt>
<totfact> 0.40996717E+04</totfact>
</mgrwt>
</event>
<event>
 6    1  0.1723639E-002  0.9663306E+02  0.7546771E-02  0.1385174E+00
         -2   -1    0    0    0  501 -0.00000000000E+00  0.00000000000E+00  0.53499441613E+02  0.53499441613E+02  0.00000000000E+00 0. -1.
          2   -1    0    0  501    0  0.00000000000E+00 -0.00000000000E+00 -0.85641732741E+02  0.85641732741E+02  0.00000000000E+00 0.  1.
         23    2    1    2    0    0 -0.10448007960E+02 -0.14156566324E+02  0.63262321791E+01  0.96839915203E+02  0.95017781086E+02 0.  0.
         11    1    3    3    0    0  0.12592129638E+01 -0.21939880896E+01  0.50002381465E+02  0.50066329536E+02  0.00000000000E+00 0. -1.
        -11    1    3    3    0    0 -0.11707220924E+02 -0.11962578234E+02 -0.43676149286E+02  0.46773585667E+02  0.00000000000E+00 0.  1.
         22    1    1    2    0    0  0.10448007960E+02  0.14156566324E+02 -0.38468523307E+02  0.42301259152E+02  0.00000000000E+00 0.  1.
<mgrwt>
<rscale>  0 0.63123202E+02</rscale>
<asrwt>0</asrwt>
<pdfrwt beam="1">  1        2 0.13175651E-01 0.96633058E+02</pdfrwt>
<pdfrwt beam="2">  1       -2 0.82306833E-02 0.96633058E+02</pdfrwt>
<totfact> 0.36177787E+04</totfact>
</mgrwt>
</event>
<event>
 6    1  0.1723639E-002  0.9423383E+02  0.7546771E-02  0.1382709E+00
         -2   -1    0    0    0  501 -0.00000000000E+00  0.00000000000E+00  0.23653757592E+02  0.23653757592E+02  0.00000000000E+00 0.  1.
          2   -1    0    0  501    0  0.00000000000E+00 -0.00000000000E+00 -0.16369566397E+03  0.16369566397E+03  0.00000000000E+00 0. -1.
         23    2    1    2    0    0 -0.19009706815E+02 -0.53442917308E+01 -0.78275636955E+02  0.12250343136E+03  0.92141656953E+02 0.  0.
         11    1    3    3    0    0 -0.30223769465E+02 -0.31414027133E+02 -0.49442155421E+01  0.43872116529E+02  0.00000000000E+00 0.  1.
        -11    1    3    3    0    0  0.11214062650E+02  0.26069735402E+02 -0.73331421413E+02  0.78631314827E+02  0.00000000000E+00 0. -1.
         22    1    1    2    0    0  0.19009706815E+02  0.53442917308E+01 -0.61766269419E+02  0.64845990201E+02  0.00000000000E+00 0. -1.
<mgrwt>
<rscale>  0 0.63757097E+02</rscale>
<asrwt>0</asrwt>
<pdfrwt beam="1">  1        2 0.25183948E-01 0.94233833E+02</pdfrwt>
<pdfrwt beam="2">  1       -2 0.36390396E-02 0.94233833E+02</pdfrwt>
<totfact> 0.58743792E+04</totfact>
</mgrwt>
</event>
<event>
 6    1  0.1723639E-002  0.9192795E+02  0.7546771E-02  0.1421437E+00
         -3   -1    0    0    0  501 -0.00000000000E+00  0.00000000000E+00  0.77070775604E+01  0.77070775604E+01  0.00000000000E+00 0.  1.
          3   -1    0    0  501    0  0.00000000000E+00 -0.00000000000E+00 -0.34783152646E+03  0.34783152646E+03  0.00000000000E+00 0. -1.
         23    2    1    2    0    0 -0.10729952243E+02 -0.42454769493E+01 -0.29743766292E+03  0.31131963019E+03  0.91200838080E+02 0.  0.
         11    1    3    3    0    0 -0.26599447096E+02 -0.39977180113E+02 -0.11292280001E+03  0.12270804488E+03  0.00000000000E+00 0.  1.
        -11    1    3    3    0    0  0.15869494854E+02  0.35731703164E+02 -0.18451486292E+03  0.18861158531E+03  0.00000000000E+00 0. -1.
         22    1    1    2    0    0  0.10729952243E+02  0.42454769493E+01 -0.42686785974E+02  0.44218973829E+02  0.00000000000E+00 0.  1.
<mgrwt>
<rscale>  0 0.54718070E+02</rscale>
<asrwt>0</asrwt>
<pdfrwt beam="1">  1        3 0.53512545E-01 0.91927954E+02</pdfrwt>
<pdfrwt beam="2">  1       -3 0.11857042E-02 0.91927954E+02</pdfrwt>
<totfact> 0.15177582E+04</totfact>
</mgrwt>
</event>
<event>
 6    1  0.1723639E-002  0.9150365E+02  0.7546771E-02  0.1415256E+00
         -4   -1    0    0    0  501 -0.00000000000E+00  0.00000000000E+00  0.11866999190E+03  0.11866999190E+03  0.00000000000E+00 0.  1.
          4   -1    0    0  501    0  0.00000000000E+00 -0.00000000000E+00 -0.47215952203E+02  0.47215952203E+02  0.00000000000E+00 0. -1.
         23    2    1    2    0    0 -0.78140227967E+01 -0.10226842458E+02  0.99408512207E+02  0.13511095763E+03  0.90593991604E+02 0.  0.
         13    1    3    3    0    0 -0.24120426872E+02  0.21370685186E+02  0.93715008946E+02  0.99100979206E+02  0.00000000000E+00 0.  1.
        -13    1    3    3    0    0  0.16306404075E+02 -0.31597527644E+02  0.56935032612E+01  0.36009978429E+02  0.00000000000E+00 0. -1.
         22    1    1    2    0    0  0.78140227967E+01  0.10226842458E+02 -0.27954472509E+02  0.30774986469E+02  0.00000000000E+00 0.  1.
<mgrwt>
<rscale>  0 0.56037256E+02</rscale>
<asrwt>0</asrwt>
<pdfrwt beam="1">  1        4 0.72639927E-02 0.91503653E+02</pdfrwt>
<pdfrwt beam="2">  1       -4 0.18256922E-01 0.91503653E+02</pdfrwt>
<totfact> 0.50697882E+03</totfact>
</mgrwt>
</event>
<event>
 6    1  0.1723639E-002  0.9504251E+02  0.7546771E-02  0.1421430E+00
         -2   -1    0    0    0  501 -0.00000000000E+00  0.00000000000E+00  0.37067237739E+02  0.37067237739E+02  0.00000000000E+00 0.  1.
          2   -1    0    0  501    0  0.00000000000E+00 -0.00000000000E+00 -0.10951602722E+03  0.10951602722E+03  0.00000000000E+00 0. -1.
         23    2    1    2    0    0 -0.77983014216E+01 -0.69452577769E+01 -0.25384034911E+02  0.98373916972E+02  0.94467074695E+02 0.  0.
         13    1    3    3    0    0  0.41862638501E+02  0.27658508050E+01 -0.22699735713E+02  0.47701241435E+02  0.00000000000E+00 0. -1.
        -13    1    3    3    0    0 -0.49660939923E+02 -0.97111085819E+01 -0.26842991972E+01  0.50672675537E+02  0.00000000000E+00 0.  1.
         22    1    1    2    0    0  0.77983014216E+01  0.69452577769E+01 -0.47064754569E+02  0.48209347986E+02  0.00000000000E+00 0. -1.
<mgrwt>
<rscale>  0 0.54719444E+02</rscale>
<asrwt>0</asrwt>
<pdfrwt beam="1">  1        2 0.16848620E-01 0.95042508E+02</pdfrwt>
<pdfrwt beam="2">  1       -2 0.57026520E-02 0.95042508E+02</pdfrwt>
<totfact> 0.47331421E+04</totfact>
</mgrwt>
</event>
<event>
 6    1  0.1723639E-002  0.8052152E+02  0.7546771E-02  0.1449769E+00
          2   -1    0    0  501    0  0.00000000000E+00  0.00000000000E+00  0.43396749839E+02  0.43396749839E+02  0.00000000000E+00 0. -1.
         -2   -1    0    0    0  501 -0.00000000000E+00 -0.00000000000E+00 -0.14333617456E+03  0.14333617456E+03  0.00000000000E+00 0.  1.
         23    2    1    2    0    0 -0.82614006743E+01  0.75813056659E+01 -0.13096765832E+03  0.15374083114E+03  0.79736997040E+02 0.  0.
         11    1    3    3    0    0 -0.13185064834E+02  0.20872447744E+02 -0.28620457878E+01  0.24853497050E+02  0.00000000000E+00 0. -1.
        -11    1    3    3    0    0  0.49236641600E+01 -0.13291142078E+02 -0.12810561253E+03  0.12888733409E+03  0.00000000000E+00 0.  1.
         22    1    1    2    0    0  0.82614006743E+01 -0.75813056659E+01  0.31028233604E+02  0.32992093254E+02  0.00000000000E+00 0. -1.
<mgrwt>
<rscale>  0 0.49188381E+02</rscale>
<asrwt>0</asrwt>
<pdfrwt beam="1">  1        2 0.66764231E-02 0.80521523E+02</pdfrwt>
<pdfrwt beam="2">  1       -2 0.22051719E-01 0.80521523E+02</pdfrwt>
<totfact> 0.16678898E+04</totfact>
</mgrwt>
</event>
<event>
 6    1  0.1723639E-002  0.9870741E+02  0.7546771E-02  0.1332177E+00
          1   -1    0    0  501    0  0.00000000000E+00  0.00000000000E+00  0.21522480838E+02  0.21522480838E+02  0.00000000000E+00 0. -1.
         -1   -1    0    0    0  501 -0.00000000000E+00 -0.00000000000E+00 -0.35808742389E+03  0.35808742389E+03  0.00000000000E+00 0.  1.
         23    2    1    2    0    0 -0.46104011354E+01 -0.40049295186E+02 -0.32192888946E+03  0.33672149244E+03  0.90099676799E+02 0.  0.
         13    1    3    3    0    0 -0.29063201656E+02 -0.22891715246E+02 -0.29235507363E+03  0.29468659521E+03  0.00000000000E+00 0.  1.
        -13    1    3    3    0    0  0.24452800521E+02 -0.17157579940E+02 -0.29573815828E+02  0.42034897232E+02  0.00000000000E+00 0. -1.
         22    1    1    2    0    0  0.46104011354E+01  0.40049295186E+02 -0.14636053589E+02  0.42888412283E+02  0.00000000000E+00 0. -1.
<mgrwt>
<rscale>  0 0.78908855E+02</rscale>
<asrwt>0</asrwt>
<pdfrwt beam="1">  1        1 0.33111511E-02 0.98707414E+02</pdfrwt>
<pdfrwt beam="2">  1       -1 0.55090370E-01 0.98707414E+02</pdfrwt>
<totfact> 0.92921151E+03</totfact>
</mgrwt>
</event>
<event>
 6    1  0.1723639E-002  0.9302947E+02  0.7546771E-02  0.1422458E+00
         -4   -1    0    0    0  501 -0.00000000000E+00  0.00000000000E+00  0.26845137038E+02  0.26845137038E+02  0.00000000000E+00 0.  1.
          4   -1    0    0  501    0  0.00000000000E+00 -0.00000000000E+00 -0.10284102618E+03  0.10284102618E+03  0.00000000000E+00 0. -1.
         23    2    1    2    0    0  0.33115390041E+00 -0.10956159416E+02 -0.61530440545E+02  0.11153688513E+03  0.92381462092E+02 0.  0.
         11    1    3    3    0    0  0.19520322360E+02  0.23644704253E+02  0.78656187490E+01  0.31654114781E+02  0.00000000000E+00 0.  1.
        -11    1    3    3    0    0 -0.19189168460E+02 -0.34600863668E+02 -0.69396059294E+02  0.79882770347E+02  0.00000000000E+00 0. -1.
         22    1    1    2    0    0 -0.33115390041E+00  0.10956159416E+02 -0.14465448595E+02  0.18149278088E+02  0.00000000000E+00 0.  1.
<mgrwt>
<rscale>  0 0.54504148E+02</rscale>
<asrwt>0</asrwt>
<pdfrwt beam="1">  1        4 0.15821696E-01 0.93029466E+02</pdfrwt>
<pdfrwt beam="2">  1       -4 0.41300212E-02 0.93029466E+02</pdfrwt>
<totfact> 0.16189034E+04</totfact>
</mgrwt>
</event>
<event>
 6    1  0.1723639E-002  0.9293101E+02  0.7546771E-02  0.1425075E+00
          2   -1    0    0  501    0  0.00000000000E+00  0.00000000000E+00  0.29023535729E+02  0.29023535729E+02  0.00000000000E+00 0. -1.
         -2   -1    0    0    0  501 -0.00000000000E+00 -0.00000000000E+00 -0.18962515961E+03  0.18962515961E+03  0.00000000000E+00 0.  1.
         23    2    1    2    0    0  0.10559452565E+02  0.33157334072E+00 -0.17655229494E+03  0.19951663098E+03  0.92328550360E+02 0.  0.
         11    1    3    3    0    0 -0.28324696500E+02 -0.15780032824E+02 -0.21624623727E+02  0.38973352679E+02  0.00000000000E+00 0. -1.
        -11    1    3    3    0    0  0.38884149064E+02  0.16111606165E+02 -0.15492767121E+03  0.16054327831E+03  0.00000000000E+00 0.  1.
         22    1    1    2    0    0 -0.10559452565E+02 -0.33157334072E+00  0.15950671057E+02  0.19132064356E+02  0.00000000000E+00 0. -1.
<mgrwt>
<rscale>  0 0.53961542E+02</rscale>
<asrwt>0</asrwt>
<pdfrwt beam="1">  1        2 0.44651591E-02 0.92931013E+02</pdfrwt>
<pdfrwt beam="2">  1       -2 0.29173103E-01 0.92931013E+02</pdfrwt>
<totfact> 0.17475055E+04</totfact>
</mgrwt>
</event>
<event>
 6    1  0.1723639E-002  0.9281867E+02  0.7546771E-02  0.1401675E+00
          2   -1    0    0  501    0  0.00000000000E+00  0.00000000000E+00  0.52932854606E+02  0.52932854606E+02  0.00000000000E+00 0. -1.
         -2   -1    0    0    0  501 -0.00000000000E+00 -0.00000000000E+00 -0.60602646182E+02  0.60602646182E+02  0.00000000000E+00 0.  1.
         23    2    1    2    0    0 -0.11492064644E+02 -0.10024255028E+02 -0.18739700318E+02  0.94691506566E+02  0.91557368950E+02 0.  0.
         13    1    3    3    0    0 -0.28928572508E+02  0.21901976269E+02 -0.38822322748E+02  0.53138795765E+02  0.00000000000E+00 0.  1.
        -13    1    3    3    0    0  0.17436507863E+02 -0.31926231297E+02  0.20082622430E+02  0.41552710801E+02  0.00000000000E+00 0. -1.
         22    1    1    2    0    0  0.11492064644E+02  0.10024255028E+02  0.11069908742E+02  0.18843994221E+02  0.00000000000E+00 0. -1.
<mgrwt>
<rscale>  0 0.59093783E+02</rscale>
<asrwt>0</asrwt>
<pdfrwt beam="1">  1        2 0.81435161E-02 0.92818668E+02</pdfrwt>
<pdfrwt beam="2">  1       -2 0.93234840E-02 0.92818668E+02</pdfrwt>
<totfact> 0.53118982E+04</totfact>
</mgrwt>
</event>
<event>
 6    1  0.1723639E-002  0.9002269E+02  0.7546771E-02  0.1394801E+00
         -2   -1    0    0    0  501 -0.00000000000E+00  0.00000000000E+00  0.44982589183E+02  0.44982589183E+02  0.00000000000E+00 0. -1.
          2   -1    0    0  501    0  0.00000000000E+00 -0.00000000000E+00 -0.14183815894E+03  0.14183815894E+03  0.00000000000E+00 0.  1.
         23    2    1    2    0    0 -0.12740002354E+02  0.13610299114E+02 -0.18899111273E+01  0.90042526292E+02  0.88071203437E+02 0.  0.
         13    1    3    3    0    0  0.73964894442E+01 -0.28717167347E+02 -0.24063303575E+02  0.38189348456E+02  0.00000000000E+00 0.  1.
        -13    1    3    3    0    0 -0.20136491799E+02  0.42327466461E+02  0.22173392448E+02  0.51853177836E+02  0.00000000000E+00 0. -1.
         22    1    1    2    0    0  0.12740002354E+02 -0.13610299114E+02 -0.94965658625E+02  0.96778221827E+02  0.00000000000E+00 0.  1.
<mgrwt>
<rscale>  0 0.60728258E+02</rscale>
<asrwt>0</asrwt>
<pdfrwt beam="1">  1        2 0.21821255E-01 0.90022690E+02</pdfrwt>
<pdfrwt beam="2">  1       -2 0.69203984E-02 0.90022690E+02</pdfrwt>
<totfact> 0.26274285E+04</totfact>
</mgrwt>
</event>
<event>
 6    1  0.1723639E-002  0.1011227E+03  0.7546771E-02  0.1333461E+00
          2   -1    0    0  501    0  0.00000000000E+00  0.00000000000E+00  0.15538676232E+03  0.15538676232E+03  0.00000000000E+00 0. -1.
         -2   -1    0    0    0  501 -0.00000000000E+00 -0.00000000000E+00 -0.41033879455E+02  0.41033879455E+02  0.00000000000E+00 0.  1.
         23    2    1    2    0    0 -0.36438421710E+02  0.40213635951E+01  0.31655158087E+02  0.10596157023E+03  0.94243702123E+02 0.  0.
         11    1    3    3    0    0 -0.47526609099E+02 -0.64232447874E+01 -0.20108045468E+02  0.52003558903E+02  0.00000000000E+00 0.  1.
        -11    1    3    3    0    0  0.11088187389E+02  0.10444608382E+02  0.51763203555E+02  0.53958011325E+02  0.00000000000E+00 0. -1.
         22    1    1    2    0    0  0.36438421710E+02 -0.40213635951E+01  0.82697724774E+02  0.90459071544E+02  0.00000000000E+00 0. -1.
<mgrwt>
<rscale>  0 0.78466386E+02</rscale>
<asrwt>0</asrwt>
<pdfrwt beam="1">  1        2 0.23905655E-01 0.10112272E+03</pdfrwt>
<pdfrwt beam="2">  1       -2 0.63129046E-02 0.10112272E+03</pdfrwt>
<totfact> 0.27670558E+04</totfact>
</mgrwt>
</event>
<event>
 6    1  0.1723639E-002  0.9379517E+02  0.7546771E-02  0.1377479E+00
          2   -1    0    0  501    0  0.00000000000E+00  0.00000000000E+00  0.18974804027E+02  0.18974804027E+02  0.00000000000E+00 0. -1.
         -2   -1    0    0    0  501 -0.00000000000E+00 -0.00000000000E+00 -0.49342063447E+03  0.49342063447E+03  0.00000000000E+00 0.  1.
         23    2    1    2    0    0  0.54133430226E+01  0.21125111446E+02 -0.48065494617E+03  0.48972105352E+03  0.91224768366E+02 0.  0.
         11    1    3    3    0    0  0.16087391305E+02  0.33405222238E+02 -0.46702873191E+03  0.46849818512E+03  0.00000000000E+00 0.  1.
        -11    1    3    3    0    0 -0.10674048283E+02 -0.12280110792E+02 -0.13626214255E+02  0.21222868391E+02  0.00000000000E+00 0. -1.
         22    1    1    2    0    0 -0.54133430226E+01 -0.21125111446E+02  0.62091157250E+01  0.22674384983E+02  0.00000000000E+00 0. -1.
<mgrwt>
<rscale>  0 0.65130989E+02</rscale>
<asrwt>0</asrwt>
<pdfrwt beam="1">  1        2 0.29192010E-02 0.93795165E+02</pdfrwt>
<pdfrwt beam="2">  1       -2 0.75910856E-01 0.93795165E+02</pdfrwt>
<totfact> 0.47591469E+03</totfact>
</mgrwt>
</event>
<event>
 6    1  0.1723639E-002  0.9075717E+02  0.7546771E-02  0.1376830E+00
          2   -1    0    0  501    0  0.00000000000E+00  0.00000000000E+00  0.65944107857E+01  0.65944107857E+01  0.00000000000E+00 0. -1.
         -2   -1    0    0    0  501 -0.00000000000E+00 -0.00000000000E+00 -0.62243819622E+03  0.62243819622E+03  0.00000000000E+00 0.  1.
         23    2    1    2    0    0 -0.24214539763E+02 -0.23607624088E+01 -0.56954391492E+03  0.57672968983E+03  0.87435387444E+02 0.  0.
         11    1    3    3    0    0  0.17873001207E+02  0.24410431708E+02 -0.98226351563E+02  0.10278000530E+03  0.00000000000E+00 0. -1.
        -11    1    3    3    0    0 -0.42087540970E+02 -0.26771194117E+02 -0.47131756336E+03  0.47394968453E+03  0.00000000000E+00 0.  1.
         22    1    1    2    0    0  0.24214539763E+02  0.23607624088E+01 -0.46299870512E+02  0.52302917170E+02  0.00000000000E+00 0. -1.
<mgrwt>
<rscale>  0 0.65304533E+02</rscale>
<asrwt>0</asrwt>
<pdfrwt beam="1">  1        2 0.10145245E-02 0.90757171E+02</pdfrwt>
<pdfrwt beam="2">  1       -2 0.95759743E-01 0.90757171E+02</pdfrwt>
<totfact> 0.11879130E+04</totfact>
</mgrwt>
</event>
<event>
 6    1  0.1723639E-002  0.9531558E+02  0.7546771E-02  0.1363459E+00
          2   -1    0    0  501    0  0.00000000000E+00  0.00000000000E+00  0.33858771641E+02  0.33858771641E+02  0.00000000000E+00 0. -1.
         -2   -1    0    0    0  501 -0.00000000000E+00 -0.00000000000E+00 -0.10930861302E+03  0.10930861302E+03  0.00000000000E+00 0.  1.
         23    2    1    2    0    0 -0.21158942122E+02  0.15461133696E+02 -0.62061725914E+02  0.11373969154E+03  0.91642305298E+02 0.  0.
         11    1    3    3    0    0 -0.16012028926E+02 -0.25790396410E+02 -0.65331610512E+02  0.72039912198E+02  0.00000000000E+00 0.  1.
        -11    1    3    3    0    0 -0.51469131953E+01  0.41251530106E+02  0.32698845981E+01  0.41699779338E+02  0.00000000000E+00 0. -1.
         22    1    1    2    0    0  0.21158942122E+02 -0.15461133696E+02 -0.13388115464E+02  0.29427693123E+02  0.00000000000E+00 0.  1.
<mgrwt>
<rscale>  0 0.69019618E+02</rscale>
<asrwt>0</asrwt>
<pdfrwt beam="1">  1        2 0.52090418E-02 0.95315579E+02</pdfrwt>
<pdfrwt beam="2">  1       -2 0.16816710E-01 0.95315579E+02</pdfrwt>
<totfact> 0.36703154E+04</totfact>
</mgrwt>
</event>
<event>
 6    1  0.1723639E-002  0.9175274E+02  0.7546771E-02  0.1372060E+00
          2   -1    0    0  501    0  0.00000000000E+00  0.00000000000E+00  0.19097353656E+03  0.19097353656E+03  0.00000000000E+00 0. -1.
         -2   -1    0    0    0  501 -0.00000000000E+00 -0.00000000000E+00 -0.20823589659E+02  0.20823589659E+02  0.00000000000E+00 0.  1.
         23    2    1    2    0    0 -0.35763569785E+01 -0.25214913925E+02  0.15987988754E+03  0.18433704004E+03  0.88147510902E+02 0.  0.
         13    1    3    3    0    0  0.36263604632E+02 -0.35269245498E+02  0.84442305832E+02  0.98435114228E+02  0.00000000000E+00 0.  1.
        -13    1    3    3    0    0 -0.39839961611E+02  0.10054331573E+02  0.75437581710E+02  0.85901925815E+02  0.00000000000E+00 0. -1.
         22    1    1    2    0    0  0.35763569785E+01  0.25214913925E+02  0.10270059358E+02  0.27460086174E+02  0.00000000000E+00 0. -1.
<mgrwt>
<rscale>  0 0.66597806E+02</rscale>
<asrwt>0</asrwt>
<pdfrwt beam="1">  1        2 0.29380543E-01 0.91752743E+02</pdfrwt>
<pdfrwt beam="2">  1       -2 0.32036293E-02 0.91752743E+02</pdfrwt>
<totfact> 0.59699858E+04</totfact>
</mgrwt>
</event>
<event>
 6    1  0.1723639E-002  0.8982810E+02  0.7546771E-02  0.1414291E+00
         -2   -1    0    0    0  501 -0.00000000000E+00  0.00000000000E+00  0.24545577464E+02  0.24545577464E+02  0.00000000000E+00 0.  1.
          2   -1    0    0  501    0  0.00000000000E+00 -0.00000000000E+00 -0.16367769855E+03  0.16367769855E+03  0.00000000000E+00 0. -1.
         23    2    1    2    0    0 -0.12900377231E+02  0.49269339399E+01 -0.60299234132E+02  0.10819004244E+03  0.88760313404E+02 0.  0.
         13    1    3    3    0    0  0.19412607451E+01  0.43672492491E+02 -0.13735273856E+02  0.45822623687E+02  0.00000000000E+00 0.  1.
        -13    1    3    3    0    0 -0.14841637976E+02 -0.38745558551E+02 -0.46563960276E+02  0.62367418753E+02  0.00000000000E+00 0. -1.
         22    1    1    2    0    0  0.12900377231E+02 -0.49269339399E+01 -0.78832886952E+02  0.80033233571E+02  0.00000000000E+00 0.  1.
<mgrwt>
<rscale>  0 0.56247265E+02</rscale>
<asrwt>0</asrwt>
<pdfrwt beam="1">  1        2 0.25181184E-01 0.89828101E+02</pdfrwt>
<pdfrwt beam="2">  1       -2 0.37762427E-02 0.89828101E+02</pdfrwt>
<totfact> 0.55284032E+04</totfact>
</mgrwt>
</event>
<event>
 6    1  0.1723639E-002  0.9316564E+02  0.7546771E-02  0.1379074E+00
         -2   -1    0    0    0  501 -0.00000000000E+00  0.00000000000E+00  0.13670439082E+02  0.13670439082E+02  0.00000000000E+00 0. -1.
          2   -1    0    0  501    0  0.00000000000E+00 -0.00000000000E+00 -0.26367561341E+03  0.26367561341E+03  0.00000000000E+00 0.  1.
         23    2    1    2    0    0  0.14744154223E+02  0.15894534495E+02 -0.22870574545E+03  0.24695375115E+03  0.90608006777E+02 0.  0.
         11    1    3    3    0    0 -0.21695485217E+02  0.12488351068E+02 -0.13080345630E+02  0.28244440745E+02  0.00000000000E+00 0. -1.
        -11    1    3    3    0    0  0.36439639439E+02  0.34061834265E+01 -0.21562539982E+03  0.21870931040E+03  0.00000000000E+00 0.  1.
         22    1    1    2    0    0 -0.14744154223E+02 -0.15894534495E+02 -0.21299428871E+02  0.30392301341E+02  0.00000000000E+00 0. -1.
<mgrwt>
<rscale>  0 0.64707871E+02</rscale>
<asrwt>0</asrwt>
<pdfrwt beam="1">  1        2 0.40565479E-01 0.93165644E+02</pdfrwt>
<pdfrwt beam="2">  1       -2 0.21031445E-02 0.93165644E+02</pdfrwt>
<totfact> 0.78192459E+04</totfact>
</mgrwt>
</event>
<event>
 6    1  0.1723639E-002  0.9024358E+02  0.7546771E-02  0.1418679E+00
          2   -1    0    0  501    0  0.00000000000E+00  0.00000000000E+00  0.67738024764E+03  0.67738024764E+03  0.00000000000E+00 0. -1.
         -2   -1    0    0    0  501 -0.00000000000E+00 -0.00000000000E+00 -0.40243133338E+01  0.40243133338E+01  0.00000000000E+00 0.  1.
         23    2    1    2    0    0 -0.10316592302E+02 -0.74512426672E+01  0.62107444930E+03  0.62759650610E+03  0.89341758497E+02 0.  0.
         11    1    3    3    0    0  0.39099596307E+02 -0.11139364480E+02  0.28856567478E+03  0.29141553241E+03  0.00000000000E+00 0.  1.
        -11    1    3    3    0    0 -0.49416188609E+02  0.36881218129E+01  0.33250877452E+03  0.33618097369E+03  0.00000000000E+00 0. -1.
         22    1    1    2    0    0  0.10316592302E+02  0.74512426672E+01  0.52281485010E+02  0.53808054869E+02  0.00000000000E+00 0. -1.
<mgrwt>
<rscale>  0 0.55301368E+02</rscale>
<asrwt>0</asrwt>
<pdfrwt beam="1">  1        2 0.10421226E+00 0.90243575E+02</pdfrwt>
<pdfrwt beam="2">  1       -2 0.61912567E-03 0.90243575E+02</pdfrwt>
<totfact> 0.16056462E+05</totfact>
</mgrwt>
</event>
<event>
 6    1  0.1723639E-002  0.9026633E+02  0.7546771E-02  0.1403819E+00
          2   -1    0    0  501    0  0.00000000000E+00  0.00000000000E+00  0.32572790781E+03  0.32572790781E+03  0.00000000000E+00 0. -1.
         -2   -1    0    0    0  501 -0.00000000000E+00 -0.00000000000E+00 -0.90685503710E+01  0.90685503710E+01  0.00000000000E+00 0.  1.
         23    2    1    2    0    0  0.42649052608E+01 -0.15450858960E+02  0.23849646523E+03  0.25500700915E+03  0.88831820453E+02 0.  0.
         13    1    3    3    0    0 -0.44083085108E+01  0.34956084443E+02  0.13555611908E+03  0.14006006727E+03  0.00000000000E+00 0. -1.
        -13    1    3    3    0    0  0.86732137717E+01 -0.50406943403E+02  0.10294034615E+03  0.11494694187E+03  0.00000000000E+00 0.  1.
         22    1    1    2    0    0 -0.42649052608E+01  0.15450858960E+02  0.78162892210E+02  0.79789449040E+02  0.00000000000E+00 0.  1.
<mgrwt>
<rscale>  0 0.58596107E+02</rscale>
<asrwt>0</asrwt>
<pdfrwt beam="1">  1        2 0.50111977E-01 0.90266333E+02</pdfrwt>
<pdfrwt beam="2">  1       -2 0.13951618E-02 0.90266333E+02</pdfrwt>
<totfact> 0.11227776E+05</totfact>
</mgrwt>
</event>
<event>
 6    1  0.1723639E-002  0.9034695E+02  0.7546771E-02  0.1390052E+00
          3   -1    0    0  501    0  0.00000000000E+00  0.00000000000E+00  0.86030661966E+02  0.86030661966E+02  0.00000000000E+00 0. -1.
         -3   -1    0    0    0  501 -0.00000000000E+00 -0.00000000000E+00 -0.41003577091E+02  0.41003577091E+02  0.00000000000E+00 0.  1.
         23    2    1    2    0    0  0.40346751063E+01  0.19486529094E+02  0.15864863770E+02  0.91729302304E+02  0.88128131601E+02 0.  0.
         13    1    3    3    0    0  0.38688420115E+02  0.22081185554E+02 -0.13162405801E+02  0.46450204875E+02  0.00000000000E+00 0.  1.
        -13    1    3    3    0    0 -0.34653745008E+02 -0.25946564603E+01  0.29027269571E+02  0.45279097429E+02  0.00000000000E+00 0. -1.
         22    1    1    2    0    0 -0.40346751063E+01 -0.19486529094E+02  0.29162221105E+02  0.35304936753E+02  0.00000000000E+00 0. -1.
<mgrwt>
<rscale>  0 0.61893848E+02</rscale>
<asrwt>0</asrwt>
<pdfrwt beam="1">  1        3 0.13235486E-01 0.90346948E+02</pdfrwt>
<pdfrwt beam="2">  1       -3 0.63082426E-02 0.90346948E+02</pdfrwt>
<totfact> 0.14788941E+04</totfact>
</mgrwt>
</event>
<event>
 6    1  0.1723639E-002  0.9316181E+02  0.7546771E-02  0.1375125E+00
          2   -1    0    0  501    0  0.00000000000E+00  0.00000000000E+00  0.12481539375E+02  0.12481539375E+02  0.00000000000E+00 0. -1.
         -2   -1    0    0    0  501 -0.00000000000E+00 -0.00000000000E+00 -0.29259208705E+03  0.29259208705E+03  0.00000000000E+00 0.  1.
         23    2    1    2    0    0 -0.22337875869E+02  0.60078362287E+01 -0.25200056025E+03  0.26866969549E+03  0.90244379956E+02 0.  0.
         13    1    3    3    0    0 -0.48013077500E+02  0.23256859551E+02 -0.20899019189E+03  0.21569199668E+03  0.00000000000E+00 0. -1.
        -13    1    3    3    0    0  0.25675201630E+02 -0.17249023322E+02 -0.43010368363E+02  0.52977698808E+02  0.00000000000E+00 0.  1.
         22    1    1    2    0    0  0.22337875869E+02 -0.60078362287E+01 -0.28109987426E+02  0.36403930936E+02  0.00000000000E+00 0.  1.
<mgrwt>
<rscale>  0 0.65762793E+02</rscale>
<asrwt>0</asrwt>
<pdfrwt beam="1">  1        2 0.19202368E-02 0.93161810E+02</pdfrwt>
<pdfrwt beam="2">  1       -2 0.45014167E-01 0.93161810E+02</pdfrwt>
<totfact> 0.24101039E+04</totfact>
</mgrwt>
</event>
<event>
 6    1  0.1723639E-002  0.9625712E+02  0.7546771E-02  0.1351522E+00
         -2   -1    0    0    0  501 -0.00000000000E+00  0.00000000000E+00  0.24403022219E+02  0.24403022219E+02  0.00000000000E+00 0. -1.
          2   -1    0    0  501    0  0.00000000000E+00 -0.00000000000E+00 -0.16727618552E+03  0.16727618552E+03  0.00000000000E+00 0.  1.
         23    2    1    2    0    0 -0.27991143805E+02 -0.13601404876E+02 -0.10118567741E+03  0.13965662778E+03  0.91087485544E+02 0.  0.
         11    1    3    3    0    0 -0.57588229400E+02  0.45803847630E+01 -0.43484592165E+02  0.72306941892E+02  0.00000000000E+00 0. -1.
        -11    1    3    3    0    0  0.29597085595E+02 -0.18181789639E+02 -0.57701085245E+02  0.67349685884E+02  0.00000000000E+00 0.  1.
         22    1    1    2    0    0  0.27991143805E+02  0.13601404876E+02 -0.41687485890E+02  0.52022579963E+02  0.00000000000E+00 0.  1.
<mgrwt>
<rscale>  0 0.72583385E+02</rscale>
<asrwt>0</asrwt>
<pdfrwt beam="1">  1        2 0.25734798E-01 0.96257116E+02</pdfrwt>
<pdfrwt beam="2">  1       -2 0.37543111E-02 0.96257116E+02</pdfrwt>
<totfact> 0.54966939E+04</totfact>
</mgrwt>
</event>
<event>
 6    1  0.1723639E-002  0.9713910E+02  0.7546771E-02  0.1363035E+00
         -2   -1    0    0    0  501 -0.00000000000E+00  0.00000000000E+00  0.43404671185E+02  0.43404671185E+02  0.00000000000E+00 0.  1.
          2   -1    0    0  501    0  0.00000000000E+00 -0.00000000000E+00 -0.97490431386E+02  0.97490431386E+02  0.00000000000E+00 0. -1.
         23    2    1    2    0    0  0.14838144033E+02 -0.20037923330E+02 -0.20858905348E+02  0.99353403362E+02  0.93884588392E+02 0.  0.
         13    1    3    3    0    0  0.11503658527E+02  0.37154928169E+02 -0.16540894825E+01  0.38930179280E+02  0.00000000000E+00 0. -1.
        -13    1    3    3    0    0  0.33344855056E+01 -0.57192851498E+02 -0.19204815866E+02  0.60423224083E+02  0.00000000000E+00 0.  1.
         22    1    1    2    0    0 -0.14838144033E+02  0.20037923330E+02 -0.33226854853E+02  0.41541699208E+02  0.00000000000E+00 0. -1.
<mgrwt>
<rscale>  0 0.69142041E+02</rscale>
<asrwt>0</asrwt>
<pdfrwt beam="1">  1        2 0.14998528E-01 0.97139100E+02</pdfrwt>
<pdfrwt beam="2">  1       -2 0.66776418E-02 0.97139100E+02</pdfrwt>
<totfact> 0.42788941E+04</totfact>
</mgrwt>
</event>
<event>
 6    1  0.1723639E-002  0.9395878E+02  0.7546771E-02  0.1393161E+00
         -2   -1    0    0    0  501 -0.00000000000E+00  0.00000000000E+00  0.40537635825E+02  0.40537635825E+02  0.00000000000E+00 0.  1.
          2   -1    0    0  501    0  0.00000000000E+00 -0.00000000000E+00 -0.75990084622E+02  0.75990084622E+02  0.00000000000E+00 0. -1.
         23    2    1    2    0    0 -0.16133363815E+02  0.47982574930E+01 -0.27423202929E+02  0.97878927131E+02  0.92438864199E+02 0.  0.
         11    1    3    3    0    0  0.36632061123E+02 -0.25342056633E+01  0.24517428667E+01  0.36801374208E+02  0.00000000000E+00 0.  1.
        -11    1    3    3    0    0 -0.52765424938E+02  0.73324631563E+01 -0.29874945795E+02  0.61077552923E+02  0.00000000000E+00 0. -1.
         22    1    1    2    0    0  0.16133363815E+02 -0.47982574930E+01 -0.80292458686E+01  0.18648793317E+02  0.00000000000E+00 0. -1.
<mgrwt>
<rscale>  0 0.61127343E+02</rscale>
<asrwt>0</asrwt>
<pdfrwt beam="1">  1        2 0.11690782E-01 0.93958780E+02</pdfrwt>
<pdfrwt beam="2">  1       -2 0.62365594E-02 0.93958780E+02</pdfrwt>
<totfact> 0.63293575E+04</totfact>
</mgrwt>
</event>
<event>
 6    1  0.1723639E-002  0.8774659E+02  0.7546771E-02  0.1369766E+00
          2   -1    0    0  501    0  0.00000000000E+00  0.00000000000E+00  0.18356035358E+03  0.18356035358E+03  0.00000000000E+00 0.  1.
         -2   -1    0    0    0  501 -0.00000000000E+00 -0.00000000000E+00 -0.26793109560E+02  0.26793109560E+02  0.00000000000E+00 0. -1.
         23    2    1    2    0    0  0.21908587572E+02 -0.20847864315E+02  0.53548547348E+02  0.10279548343E+03  0.82370169570E+02 0.  0.
         11    1    3    3    0    0  0.23678444390E+02  0.24487302927E+02  0.45306662051E+02  0.56683245845E+02  0.00000000000E+00 0.  1.
        -11    1    3    3    0    0 -0.17698568174E+01 -0.45335167242E+02  0.82418852964E+01  0.46112237587E+02  0.00000000000E+00 0. -1.
         22    1    1    2    0    0 -0.21908587572E+02  0.20847864315E+02  0.10321869667E+03  0.10755797971E+03  0.00000000000E+00 0.  1.
<mgrwt>
<rscale>  0 0.67232268E+02</rscale>
<asrwt>0</asrwt>
<pdfrwt beam="1">  1        2 0.28240054E-01 0.87746592E+02</pdfrwt>
<pdfrwt beam="2">  1       -2 0.41220170E-02 0.87746592E+02</pdfrwt>
<totfact> 0.42807072E+04</totfact>
</mgrwt>
</event>
<event>
 6    1  0.1723639E-002  0.9428617E+02  0.7546771E-02  0.1407724E+00
         -2   -1    0    0    0  501 -0.00000000000E+00  0.00000000000E+00  0.26393800158E+02  0.26393800158E+02  0.00000000000E+00 0. -1.
          2   -1    0    0  501    0  0.00000000000E+00 -0.00000000000E+00 -0.14419814156E+03  0.14419814156E+03  0.00000000000E+00 0.  1.
         23    2    1    2    0    0  0.58278014970E+01  0.11875276159E+02 -0.61070833450E+02  0.11233667261E+03  0.93353606578E+02 0.  0.
         11    1    3    3    0    0 -0.11759624455E+02  0.29768835315E+02  0.12685623431E+02  0.34429600131E+02  0.00000000000E+00 0. -1.
        -11    1    3    3    0    0  0.17587425952E+02 -0.17893559157E+02 -0.73756456881E+02  0.77907072481E+02  0.00000000000E+00 0.  1.
         22    1    1    2    0    0 -0.58278014970E+01 -0.11875276159E+02 -0.56733507956E+02  0.58255269111E+02  0.00000000000E+00 0.  1.
<mgrwt>
<rscale>  0 0.57704706E+02</rscale>
<asrwt>0</asrwt>
<pdfrwt beam="1">  1        2 0.22184329E-01 0.94286167E+02</pdfrwt>
<pdfrwt beam="2">  1       -2 0.40605847E-02 0.94286167E+02</pdfrwt>
<totfact> 0.57476017E+04</totfact>
</mgrwt>
</event>
<event>
 6    1  0.1723639E-002  0.9818516E+02  0.7546771E-02  0.1341012E+00
         -1   -1    0    0    0  501 -0.00000000000E+00  0.00000000000E+00  0.33536696277E+02  0.33536696277E+02  0.00000000000E+00 0.  1.
          1   -1    0    0  501    0  0.00000000000E+00 -0.00000000000E+00 -0.13309505803E+03  0.13309505803E+03  0.00000000000E+00 0. -1.
         23    2    1    2    0    0  0.26331870794E+02  0.23237204304E+02 -0.78265980355E+02  0.12556229377E+03  0.91689644191E+02 0.  0.
         11    1    3    3    0    0  0.48411444256E+02 -0.96596953615E+01 -0.69055732993E+02  0.84886229205E+02  0.00000000000E+00 0. -1.
        -11    1    3    3    0    0 -0.22079573462E+02  0.32896899665E+02 -0.92102473618E+01  0.40676064563E+02  0.00000000000E+00 0.  1.
         22    1    1    2    0    0 -0.26331870794E+02 -0.23237204304E+02 -0.21292381399E+02  0.41069460540E+02  0.00000000000E+00 0. -1.
<mgrwt>
<rscale>  0 0.75931072E+02</rscale>
<asrwt>0</asrwt>
<pdfrwt beam="1">  1        1 0.20476163E-01 0.98185161E+02</pdfrwt>
<pdfrwt beam="2">  1       -1 0.51594916E-02 0.98185161E+02</pdfrwt>
<totfact> 0.36628381E+04</totfact>
</mgrwt>
</event>
<event>
 6    1  0.1723639E-002  0.9271817E+02  0.7546771E-02  0.1384394E+00
         -1   -1    0    0    0  501 -0.00000000000E+00  0.00000000000E+00  0.66451503746E+03  0.66451503746E+03  0.00000000000E+00 0.  1.
          1   -1    0    0  501    0  0.00000000000E+00 -0.00000000000E+00 -0.64355608042E+01  0.64355608042E+01  0.00000000000E+00 0. -1.
         23    2    1    2    0    0 -0.15213424587E+02  0.13246013918E+02  0.62752720808E+03  0.63433985821E+03  0.90497257744E+02 0.  0.
         13    1    3    3    0    0  0.15675530399E+02  0.44870097328E+02  0.37090569508E+03  0.37393860797E+03  0.00000000000E+00 0.  1.
        -13    1    3    3    0    0 -0.30888954986E+02 -0.31624083410E+02  0.25662151300E+03  0.26040125024E+03  0.00000000000E+00 0. -1.
         22    1    1    2    0    0  0.15213424587E+02 -0.13246013918E+02  0.30552268583E+02  0.36610740063E+02  0.00000000000E+00 0. -1.
<mgrwt>
<rscale>  0 0.63322826E+02</rscale>
<asrwt>0</asrwt>
<pdfrwt beam="1">  1        1 0.99008680E-03 0.92718169E+02</pdfrwt>
<pdfrwt beam="2">  1       -1 0.10223303E+00 0.92718169E+02</pdfrwt>
<totfact> 0.14176162E+04</totfact>
</mgrwt>
</event>
