<event>
 6    1  0.2436515E-005  0.1977932E+04  0.7818608E-02  0.8617008E-01
          2   -1    0    0  501    0  0.00000000000E+00  0.00000000000E+00  0.42184683592E+04  0.42184683592E+04  0.00000000000E+00 0.  1.
         -2   -1    0    0    0  501 -0.00000000000E+00 -0.00000000000E+00 -0.23185055758E+03  0.23185055758E+03  0.00000000000E+00 0. -1.
         23    2    1    2    0    0  0.34121572116E+03 -0.39227719158E+03  0.38849882147E+04  0.39205660156E+04  0.85993550368E+02 0.  0.
         11    1    3    3    0    0  0.15578118899E+03 -0.15059725560E+03  0.19048194496E+04  0.19171031396E+04  0.00000000000E+00 0.  1.
        -11    1    3    3    0    0  0.18543453217E+03 -0.24167993599E+03  0.19801687651E+04  0.20034628760E+04  0.00000000000E+00 0. -1.
         22    1    1    2    0    0 -0.34121572116E+03  0.39227719158E+03  0.10162958691E+03  0.52975290121E+03  0.00000000000E+00 0. -1.
<mgrwt>
<rscale>  0 0.19779325E+04</rscale>
<asrwt>0</asrwt>
<pdfrwt beam="1">  1        2 0.64899507E+00 0.19779325E+04</pdfrwt>
<pdfrwt beam="2">  1       -2 0.35669320E-01 0.19779325E+04</pdfrwt>
<totfact> 0.15616456E+00</totfact>
</mgrwt>
</event>
<event>
 6    1  0.2436515E-005  0.1480279E+04  0.7818608E-02  0.8897674E-01
          2   -1    0    0  501    0  0.00000000000E+00  0.00000000000E+00  0.17893081747E+04  0.17893081747E+04  0.00000000000E+00 0.  1.
         -2   -1    0    0    0  501 -0.00000000000E+00 -0.00000000000E+00 -0.30615537152E+03  0.30615537152E+03  0.00000000000E+00 0. -1.
         23    2    1    2    0    0  0.65888267187E+03  0.12337120754E+03  0.30862758800E+03  0.74311140596E+03  0.87273956320E+02 0.  0.
         13    1    3    3    0    0  0.39245869248E+03  0.33938279198E+02  0.20029558577E+03  0.44192075509E+03  0.00000000000E+00 0. -1.
        -13    1    3    3    0    0  0.26642397939E+03  0.89432928341E+02  0.10833200223E+03  0.30119065088E+03  0.00000000000E+00 0.  1.
         22    1    1    2    0    0 -0.65888267187E+03 -0.12337120754E+03  0.11745252152E+04  0.13523521402E+04  0.00000000000E+00 0.  1.
<mgrwt>
<rscale>  0 0.14802788E+04</rscale>
<asrwt>0</asrwt>
<pdfrwt beam="1">  1        2 0.27527817E+00 0.14802788E+04</pdfrwt>
<pdfrwt beam="2">  1       -2 0.47100827E-01 0.14802788E+04</pdfrwt>
<totfact> 0.36162480E+01</totfact>
</mgrwt>
</event>
<event>
 6    1  0.2436515E-005  0.1962721E+04  0.7818608E-02  0.8624251E-01
          2   -1    0    0  501    0  0.00000000000E+00  0.00000000000E+00  0.29435793904E+04  0.29435793904E+04  0.00000000000E+00 0.  1.
         -2   -1    0    0    0  501 -0.00000000000E+00 -0.00000000000E+00 -0.32717588059E+03  0.32717588059E+03  0.00000000000E+00 0. -1.
         23    2    1    2    0    0  0.18726404375E+03 -0.44592821195E+03  0.27299596765E+04  0.27739506864E+04  0.90569216933E+02 0.  0.
         11    1    3    3    0    0  0.10279769703E+03 -0.21480442291E+03  0.15900279815E+04  0.16077615770E+04  0.00000000000E+00 0. -1.
        -11    1    3    3    0    0  0.84466346721E+02 -0.23112378904E+03  0.11399316950E+04  0.11661891094E+04  0.00000000000E+00 0.  1.
         22    1    1    2    0    0 -0.18726404375E+03  0.44592821195E+03 -0.11355616665E+03  0.49680458460E+03  0.00000000000E+00 0. -1.
<mgrwt>
<rscale>  0 0.19627207E+04</rscale>
<asrwt>0</asrwt>
<pdfrwt beam="1">  1        2 0.45285835E+00 0.19627207E+04</pdfrwt>
<pdfrwt beam="2">  1       -2 0.50334753E-01 0.19627207E+04</pdfrwt>
<totfact> 0.65837041E+00</totfact>
</mgrwt>
</event>
<event>
 6    1  0.2436515E-005  0.4115557E+04  0.7818608E-02  0.7981632E-01
         -2   -1    0    0    0  501 -0.00000000000E+00  0.00000000000E+00  0.15137760276E+04  0.15137760276E+04  0.00000000000E+00 0.  1.
          2   -1    0    0  501    0  0.00000000000E+00 -0.00000000000E+00 -0.27972777809E+04  0.27972777809E+04  0.00000000000E+00 0. -1.
         23    2    1    2    0    0  0.11423324328E+04  0.16284852592E+04 -0.94555167270E+02  0.19936238504E+04  0.93315330346E+02 0.  0.
         11    1    3    3    0    0  0.64466507167E+03  0.98928242661E+03 -0.77856988750E+02  0.11833572939E+04  0.00000000000E+00 0.  1.
        -11    1    3    3    0    0  0.49766736115E+03  0.63920283255E+03 -0.16698178520E+02  0.81026655655E+03  0.00000000000E+00 0. -1.
         22    1    1    2    0    0 -0.11423324328E+04 -0.16284852592E+04 -0.11889465860E+04  0.23174299581E+04  0.00000000000E+00 0.  1.
<mgrwt>
<rscale>  0 0.41155569E+04</rscale>
<asrwt>0</asrwt>
<pdfrwt beam="1">  1        2 0.43035042E+00 0.41155569E+04</pdfrwt>
<pdfrwt beam="2">  1       -2 0.23288862E+00 0.41155569E+04</pdfrwt>
<totfact> 0.14875278E-01</totfact>
</mgrwt>
</event>
<event>
 6    1  0.2436515E-005  0.2212202E+04  0.7818608E-02  0.8513366E-01
          2   -1    0    0  501    0  0.00000000000E+00  0.00000000000E+00  0.10435768103E+04  0.10435768103E+04  0.00000000000E+00 0.  1.
         -2   -1    0    0    0  501 -0.00000000000E+00 -0.00000000000E+00 -0.11723717167E+04  0.11723717167E+04  0.00000000000E+00 0. -1.
         23    2    1    2    0    0  0.96749445293E+03  0.41833189715E+03 -0.39320365976E+03  0.11292291145E+04  0.97479137912E+02 0.  0.
         11    1    3    3    0    0  0.77792242281E+03  0.29468577474E+03 -0.32112723626E+03  0.89169821330E+03  0.00000000000E+00 0.  1.
        -11    1    3    3    0    0  0.18957203013E+03  0.12364612241E+03 -0.72076423500E+02  0.23753090118E+03  0.00000000000E+00 0. -1.
         22    1    1    2    0    0 -0.96749445293E+03 -0.41833189715E+03  0.26440875336E+03  0.10867194125E+04  0.00000000000E+00 0.  1.
<mgrwt>
<rscale>  0 0.22122025E+04</rscale>
<asrwt>0</asrwt>
<pdfrwt beam="1">  1        2 0.16055028E+00 0.22122025E+04</pdfrwt>
<pdfrwt beam="2">  1       -2 0.18036488E+00 0.22122025E+04</pdfrwt>
<totfact> 0.38889236E+00</totfact>
</mgrwt>
</event>
<event>
 6    1  0.2436515E-005  0.2125593E+04  0.7818608E-02  0.8550052E-01
          2   -1    0    0  501    0  0.00000000000E+00  0.00000000000E+00  0.13851018216E+04  0.13851018216E+04  0.00000000000E+00 0.  1.
         -2   -1    0    0    0  501 -0.00000000000E+00 -0.00000000000E+00 -0.81548990473E+03  0.81548990473E+03  0.00000000000E+00 0. -1.
         23    2    1    2    0    0 -0.73605005956E+03  0.25707470847E+03 -0.45950606323E+03  0.90949106685E+03  0.90394040861E+02 0.  0.
         13    1    3    3    0    0 -0.17769495482E+03  0.47719840302E+02 -0.68063014138E+02  0.19617658887E+03  0.00000000000E+00 0. -1.
        -13    1    3    3    0    0 -0.55835510474E+03  0.20935486817E+03 -0.39144304909E+03  0.71331447798E+03  0.00000000000E+00 0.  1.
         22    1    1    2    0    0  0.73605005956E+03 -0.25707470847E+03  0.10291179801E+04  0.12911006595E+04  0.00000000000E+00 0.  1.
<mgrwt>
<rscale>  0 0.21255931E+04</rscale>
<asrwt>0</asrwt>
<pdfrwt beam="1">  1        2 0.21309259E+00 0.21255931E+04</pdfrwt>
<pdfrwt beam="2">  1       -2 0.12545998E+00 0.21255931E+04</pdfrwt>
<totfact> 0.64489450E+00</totfact>
</mgrwt>
</event>
<event>
 6    1  0.2436515E-005  0.2150756E+04  0.7818608E-02  0.8539209E-01
          2   -1    0    0  501    0  0.00000000000E+00  0.00000000000E+00  0.72598276641E+03  0.72598276641E+03  0.00000000000E+00 0.  1.
         -2   -1    0    0    0  501 -0.00000000000E+00 -0.00000000000E+00 -0.15929268206E+04  0.15929268206E+04  0.00000000000E+00 0. -1.
         23    2    1    2    0    0  0.10064190930E+04 -0.96058670616E+02 -0.82316638878E+03  0.13069693007E+04  0.91973858072E+02 0.  0.
         13    1    3    3    0    0  0.33437708905E+03  0.93644200042E+01 -0.28868554189E+03  0.44185412994E+03  0.00000000000E+00 0.  1.
        -13    1    3    3    0    0  0.67204200392E+03 -0.10542309062E+03 -0.53448084689E+03  0.86511517081E+03  0.00000000000E+00 0. -1.
         22    1    1    2    0    0 -0.10064190930E+04  0.96058670616E+02 -0.43777665371E+02  0.10119402862E+04  0.00000000000E+00 0.  1.
<mgrwt>
<rscale>  0 0.21507556E+04</rscale>
<asrwt>0</asrwt>
<pdfrwt beam="1">  1        2 0.11168966E+00 0.21507556E+04</pdfrwt>
<pdfrwt beam="2">  1       -2 0.24506566E+00 0.21507556E+04</pdfrwt>
<totfact> 0.24732118E+00</totfact>
</mgrwt>
</event>
<event>
 6    1  0.2436515E-005  0.2205086E+04  0.7818608E-02  0.8516314E-01
          2   -1    0    0  501    0  0.00000000000E+00  0.00000000000E+00  0.19685487661E+04  0.19685487661E+04  0.00000000000E+00 0.  1.
         -2   -1    0    0    0  501 -0.00000000000E+00 -0.00000000000E+00 -0.61751136668E+03  0.61751136668E+03  0.00000000000E+00 0. -1.
         23    2    1    2    0    0 -0.10292791463E+04 -0.33758296864E+03  0.44233170592E+03  0.11721563669E+04  0.70109833100E+02 0.  0.
         11    1    3    3    0    0 -0.67524346611E+03 -0.20957789621E+03  0.32231945915E+03  0.77702410957E+03  0.00000000000E+00 0.  1.
        -11    1    3    3    0    0 -0.35403568020E+03 -0.12800507243E+03  0.12001224677E+03  0.39513225735E+03  0.00000000000E+00 0. -1.
         22    1    1    2    0    0  0.10292791463E+04  0.33758296864E+03  0.90870569351E+03  0.14139037659E+04  0.00000000000E+00 0. -1.
<mgrwt>
<rscale>  0 0.22050862E+04</rscale>
<asrwt>0</asrwt>
<pdfrwt beam="1">  1        2 0.30285365E+00 0.22050862E+04</pdfrwt>
<pdfrwt beam="2">  1       -2 0.95001750E-01 0.22050862E+04</pdfrwt>
<totfact> 0.59225189E+00</totfact>
</mgrwt>
</event>
<event>
 6    1  0.2436515E-005  0.3822989E+04  0.7818608E-02  0.8041240E-01
          2   -1    0    0  501    0  0.00000000000E+00  0.00000000000E+00  0.17352397515E+04  0.17352397515E+04  0.00000000000E+00 0.  1.
         -2   -1    0    0    0  501 -0.00000000000E+00 -0.00000000000E+00 -0.21056516998E+04  0.21056516998E+04  0.00000000000E+00 0. -1.
         23    2    1    2    0    0  0.61557318065E+03  0.14591128623E+04  0.88843823321E+03  0.18178629134E+04  0.85804383445E+02 0.  0.
         13    1    3    3    0    0  0.58535220158E+03  0.14072573674E+04  0.83715933119E+03  0.17389209999E+04  0.00000000000E+00 0.  1.
        -13    1    3    3    0    0  0.30220979068E+02  0.51855494878E+02  0.51278902018E+02  0.78941913563E+02  0.00000000000E+00 0. -1.
         22    1    1    2    0    0 -0.61557318065E+03 -0.14591128623E+04 -0.12588501815E+04  0.20230285379E+04  0.00000000000E+00 0. -1.
<mgrwt>
<rscale>  0 0.38229886E+04</rscale>
<asrwt>0</asrwt>
<pdfrwt beam="1">  1        2 0.26695996E+00 0.38229886E+04</pdfrwt>
<pdfrwt beam="2">  1       -2 0.32394641E+00 0.38229886E+04</pdfrwt>
<totfact> 0.16978293E-01</totfact>
</mgrwt>
</event>
<event>
 6    1  0.2436515E-005  0.1644472E+04  0.7818608E-02  0.8793684E-01
         -2   -1    0    0    0  501 -0.00000000000E+00  0.00000000000E+00  0.19886511825E+03  0.19886511825E+03  0.00000000000E+00 0. -1.
          2   -1    0    0  501    0  0.00000000000E+00 -0.00000000000E+00 -0.33996507653E+04  0.33996507653E+04  0.00000000000E+00 0.  1.
         23    2    1    2    0    0 -0.57176388682E+03  0.57601781140E+03 -0.18592210580E+04  0.20305535090E+04  0.87944011721E+02 0.  0.
         11    1    3    3    0    0 -0.33998161247E+03  0.28045025922E+03 -0.10114619069E+04  0.11033109416E+04  0.00000000000E+00 0. -1.
        -11    1    3    3    0    0 -0.23178227436E+03  0.29556755218E+03 -0.84775915104E+03  0.92724256739E+03  0.00000000000E+00 0.  1.
         22    1    1    2    0    0  0.57176388682E+03 -0.57601781140E+03 -0.13415645891E+04  0.15679623746E+04  0.00000000000E+00 0.  1.
<mgrwt>
<rscale>  0 0.16444719E+04</rscale>
<asrwt>0</asrwt>
<pdfrwt beam="1">  1        2 0.52302314E+00 0.16444719E+04</pdfrwt>
<pdfrwt beam="2">  1       -2 0.30594637E-01 0.16444719E+04</pdfrwt>
<totfact> 0.90991244E+00</totfact>
</mgrwt>
</event>
<event>
 6    1  0.2436515E-005  0.9994383E+03  0.7818608E-02  0.9309161E-01
         -2   -1    0    0    0  501 -0.00000000000E+00  0.00000000000E+00  0.56944765513E+03  0.56944765513E+03  0.00000000000E+00 0.  1.
          2   -1    0    0  501    0  0.00000000000E+00 -0.00000000000E+00 -0.43852886816E+03  0.43852886816E+03  0.00000000000E+00 0. -1.
         23    2    1    2    0    0  0.38588052788E+03 -0.24136146360E+03 -0.13165615355E+03  0.48251982926E+03  0.91284746534E+02 0.  0.
         11    1    3    3    0    0  0.18667917174E+03 -0.16832278373E+03 -0.58348956527E+02  0.25804316192E+03  0.00000000000E+00 0. -1.
        -11    1    3    3    0    0  0.19920135614E+03 -0.73038679877E+02 -0.73307197026E+02  0.22447666735E+03  0.00000000000E+00 0.  1.
         22    1    1    2    0    0 -0.38588052788E+03  0.24136146360E+03  0.26257494052E+03  0.52545669403E+03  0.00000000000E+00 0.  1.
<mgrwt>
<rscale>  0 0.99943831E+03</rscale>
<asrwt>0</asrwt>
<pdfrwt beam="1">  1        2 0.67465980E-01 0.99943831E+03</pdfrwt>
<pdfrwt beam="2">  1       -2 0.87607331E-01 0.99943831E+03</pdfrwt>
<totfact> 0.80468610E+01</totfact>
</mgrwt>
</event>
<event>
 6    1  0.2436515E-005  0.1365180E+04  0.7818608E-02  0.8979416E-01
          2   -1    0    0  501    0  0.00000000000E+00  0.00000000000E+00  0.26215136188E+03  0.26215136188E+03  0.00000000000E+00 0.  1.
         -2   -1    0    0    0  501 -0.00000000000E+00 -0.00000000000E+00 -0.17773296392E+04  0.17773296392E+04  0.00000000000E+00 0. -1.
         23    2    1    2    0    0 -0.17360496224E+03  0.47290650548E+03 -0.78950962021E+02  0.51746649818E+03  0.88085620254E+02 0.  0.
         13    1    3    3    0    0 -0.62711766758E+02  0.23216799021E+03  0.14360801430E+01  0.24049283501E+03  0.00000000000E+00 0. -1.
        -13    1    3    3    0    0 -0.11089319549E+03  0.24073851527E+03 -0.80387042164E+02  0.27697366317E+03  0.00000000000E+00 0.  1.
         22    1    1    2    0    0  0.17360496224E+03 -0.47290650548E+03 -0.14362273153E+04  0.15220145029E+04  0.00000000000E+00 0. -1.
<mgrwt>
<rscale>  0 0.13651804E+04</rscale>
<asrwt>0</asrwt>
<pdfrwt beam="1">  1        2 0.40330979E-01 0.13651804E+04</pdfrwt>
<pdfrwt beam="2">  1       -2 0.27343533E+00 0.13651804E+04</pdfrwt>
<totfact> 0.57687186E+00</totfact>
</mgrwt>
</event>
<event>
 6    1  0.2436515E-005  0.1035246E+04  0.7818608E-02  0.9270711E-01
         -2   -1    0    0    0  501 -0.00000000000E+00  0.00000000000E+00  0.31165310606E+03  0.31165310606E+03  0.00000000000E+00 0. -1.
          2   -1    0    0  501    0  0.00000000000E+00 -0.00000000000E+00 -0.85971706446E+03  0.85971706446E+03  0.00000000000E+00 0.  1.
         23    2    1    2    0    0  0.99702658552E+02 -0.10992132316E+02 -0.84625896990E+03  0.85675657899E+03  0.88408961120E+02 0.  0.
         11    1    3    3    0    0  0.10986858958E+03  0.63209005658E+01 -0.62740102012E+03  0.63697967064E+03  0.00000000000E+00 0. -1.
        -11    1    3    3    0    0 -0.10165931026E+02 -0.17313032881E+02 -0.21885794978E+03  0.21977690835E+03  0.00000000000E+00 0.  1.
         22    1    1    2    0    0 -0.99702658552E+02  0.10992132316E+02  0.29819501150E+03  0.31461359154E+03  0.00000000000E+00 0. -1.
<mgrwt>
<rscale>  0 0.10352459E+04</rscale>
<asrwt>0</asrwt>
<pdfrwt beam="1">  1        2 0.13226416E+00 0.10352459E+04</pdfrwt>
<pdfrwt beam="2">  1       -2 0.47946633E-01 0.10352459E+04</pdfrwt>
<totfact> 0.12831088E+02</totfact>
</mgrwt>
</event>
<event>
 6    1  0.2436515E-005  0.6120858E+03  0.7818608E-02  0.9880644E-01
         -2   -1    0    0    0  501 -0.00000000000E+00  0.00000000000E+00  0.70925384743E+02  0.70925384743E+02  0.00000000000E+00 0. -1.
          2   -1    0    0  501    0  0.00000000000E+00 -0.00000000000E+00 -0.13205744715E+04  0.13205744715E+04  0.00000000000E+00 0.  1.
         23    2    1    2    0    0  0.19517118697E+02 -0.95319077628E+02 -0.12820583117E+04  0.12889474192E+04  0.90803581783E+02 0.  0.
         11    1    3    3    0    0 -0.24997680844E+01 -0.25522794230E+02 -0.87411699258E+03  0.87449309808E+03  0.00000000000E+00 0.  1.
        -11    1    3    3    0    0  0.22016886782E+02 -0.69796283398E+02 -0.40794131913E+03  0.41445432117E+03  0.00000000000E+00 0. -1.
         22    1    1    2    0    0 -0.19517118697E+02  0.95319077628E+02  0.32409224917E+02  0.10255243704E+03  0.00000000000E+00 0. -1.
<mgrwt>
<rscale>  0 0.61208579E+03</rscale>
<asrwt>0</asrwt>
<pdfrwt beam="1">  1        2 0.20316529E+00 0.61208579E+03</pdfrwt>
<pdfrwt beam="2">  1       -2 0.10911598E-01 0.61208579E+03</pdfrwt>
<totfact> 0.97070220E+02</totfact>
</mgrwt>
</event>
<event>
 6    1  0.2436515E-005  0.3358153E+04  0.7818608E-02  0.8148254E-01
          2   -1    0    0  501    0  0.00000000000E+00  0.00000000000E+00  0.20089322430E+04  0.20089322430E+04  0.00000000000E+00 0.  1.
         -2   -1    0    0    0  501 -0.00000000000E+00 -0.00000000000E+00 -0.14033814505E+04  0.14033814505E+04  0.00000000000E+00 0. -1.
         23    2    1    2    0    0  0.96602769937E+03 -0.10929691931E+04  0.11454067090E+04  0.18569244870E+04  0.91765180833E+02 0.  0.
         13    1    3    3    0    0  0.13254895827E+03 -0.14970728977E+03  0.11846274812E+03  0.23241110481E+03  0.00000000000E+00 0.  1.
        -13    1    3    3    0    0  0.83347874110E+03 -0.94326190335E+03  0.10269439609E+04  0.16245133822E+04  0.00000000000E+00 0. -1.
         22    1    1    2    0    0 -0.96602769937E+03  0.10929691931E+04 -0.53985591656E+03  0.15553892065E+04  0.00000000000E+00 0. -1.
<mgrwt>
<rscale>  0 0.33581532E+04</rscale>
<asrwt>0</asrwt>
<pdfrwt beam="1">  1        2 0.30906650E+00 0.33581532E+04</pdfrwt>
<pdfrwt beam="2">  1       -2 0.21590484E+00 0.33581532E+04</pdfrwt>
<totfact> 0.57625326E-01</totfact>
</mgrwt>
</event>
<event>
 6    1  0.2436515E-005  0.2160185E+04  0.7818608E-02  0.8535185E-01
         -2   -1    0    0    0  501 -0.00000000000E+00  0.00000000000E+00  0.10882158137E+04  0.10882158137E+04  0.00000000000E+00 0. -1.
          2   -1    0    0  501    0  0.00000000000E+00 -0.00000000000E+00 -0.10720298825E+04  0.10720298825E+04  0.00000000000E+00 0.  1.
         23    2    1    2    0    0  0.36430258545E+03  0.82762341205E+02 -0.10035935805E+04  0.10741903424E+04  0.84373206871E+02 0.  0.
         13    1    3    3    0    0  0.27266325033E+03  0.40011105887E+02 -0.81292322657E+03  0.85836490432E+03  0.00000000000E+00 0.  1.
        -13    1    3    3    0    0  0.91639335120E+02  0.42751235318E+02 -0.19067035396E+03  0.21582543812E+03  0.00000000000E+00 0. -1.
         22    1    1    2    0    0 -0.36430258545E+03 -0.82762341205E+02  0.10197795117E+04  0.10860553537E+04  0.00000000000E+00 0. -1.
<mgrwt>
<rscale>  0 0.21601851E+04</rscale>
<asrwt>0</asrwt>
<pdfrwt beam="1">  1        2 0.16492767E+00 0.21601851E+04</pdfrwt>
<pdfrwt beam="2">  1       -2 0.16741782E+00 0.21601851E+04</pdfrwt>
<totfact> 0.46240830E+00</totfact>
</mgrwt>
</event>
<event>
 6    1  0.2436515E-005  0.5023597E+04  0.7818608E-02  0.7824877E-01
          2   -1    0    0  501    0  0.00000000000E+00  0.00000000000E+00  0.20600598322E+04  0.20600598322E+04  0.00000000000E+00 0.  1.
         -2   -1    0    0    0  501 -0.00000000000E+00 -0.00000000000E+00 -0.30625963442E+04  0.30625963442E+04  0.00000000000E+00 0. -1.
         23    2    1    2    0    0  0.11037942247E+04  0.17523672425E+04 -0.19491842967E+04  0.28455319656E+04  0.92628836616E+02 0.  0.
         11    1    3    3    0    0  0.77205276321E+03  0.11452935800E+04 -0.12871270128E+04  0.18879774365E+04  0.00000000000E+00 0. -1.
        -11    1    3    3    0    0  0.33174146147E+03  0.60707366249E+03 -0.66205728396E+03  0.95755452909E+03  0.00000000000E+00 0.  1.
         22    1    1    2    0    0 -0.11037942247E+04 -0.17523672425E+04  0.94664778476E+03  0.22771242108E+04  0.00000000000E+00 0.  1.
<mgrwt>
<rscale>  0 0.50235970E+04</rscale>
<asrwt>0</asrwt>
<pdfrwt beam="1">  1        2 0.31693228E+00 0.50235970E+04</pdfrwt>
<pdfrwt beam="2">  1       -2 0.47116867E+00 0.50235970E+04</pdfrwt>
<totfact> 0.11373720E-02</totfact>
</mgrwt>
</event>
<event>
 6    1  0.2436515E-005  0.9014535E+03  0.7818608E-02  0.9423766E-01
          2   -1    0    0  501    0  0.00000000000E+00  0.00000000000E+00  0.98941215577E+03  0.98941215577E+03  0.00000000000E+00 0.  1.
         -2   -1    0    0    0  501 -0.00000000000E+00 -0.00000000000E+00 -0.20532859769E+03  0.20532859769E+03  0.00000000000E+00 0. -1.
         23    2    1    2    0    0  0.40278558831E+02  0.27296946497E+03  0.86032890814E+03  0.90847506479E+03  0.95007484231E+02 0.  0.
         11    1    3    3    0    0  0.47665483159E+01  0.22374724897E+03  0.58065356107E+03  0.62228940967E+03  0.00000000000E+00 0.  1.
        -11    1    3    3    0    0  0.35512010515E+02  0.49222215999E+02  0.27967534707E+03  0.28618565512E+03  0.00000000000E+00 0. -1.
         22    1    1    2    0    0 -0.40278558831E+02 -0.27296946497E+03 -0.76245350059E+02  0.28626568867E+03  0.00000000000E+00 0. -1.
<mgrwt>
<rscale>  0 0.90145352E+03</rscale>
<asrwt>0</asrwt>
<pdfrwt beam="1">  1        2 0.15221725E+00 0.90145352E+03</pdfrwt>
<pdfrwt beam="2">  1       -2 0.31589016E-01 0.90145352E+03</pdfrwt>
<totfact> 0.23845879E+02</totfact>
</mgrwt>
</event>
<event>
 6    1  0.2436515E-005  0.2807266E+04  0.7818608E-02  0.8301016E-01
          2   -1    0    0  501    0  0.00000000000E+00  0.00000000000E+00  0.23069300136E+04  0.23069300136E+04  0.00000000000E+00 0.  1.
         -2   -1    0    0    0  501 -0.00000000000E+00 -0.00000000000E+00 -0.85402905648E+03  0.85402905648E+03  0.00000000000E+00 0. -1.
         23    2    1    2    0    0 -0.41941719490E+03  0.98268243065E+03  0.17496145223E+04  0.20520792376E+04  0.91119031772E+02 0.  0.
         11    1    3    3    0    0 -0.12617578456E+03  0.27132726483E+03  0.41633284278E+03  0.51271029756E+03  0.00000000000E+00 0. -1.
        -11    1    3    3    0    0 -0.29324141034E+03  0.71135516582E+03  0.13332816795E+04  0.15393689401E+04  0.00000000000E+00 0.  1.
         22    1    1    2    0    0  0.41941719490E+03 -0.98268243065E+03 -0.29671356526E+03  0.11088798324E+04  0.00000000000E+00 0. -1.
<mgrwt>
<rscale>  0 0.28072658E+04</rscale>
<asrwt>0</asrwt>
<pdfrwt beam="1">  1        2 0.35491231E+00 0.28072658E+04</pdfrwt>
<pdfrwt beam="2">  1       -2 0.13138909E+00 0.28072658E+04</pdfrwt>
<totfact> 0.16514838E+00</totfact>
</mgrwt>
</event>
<event>
 6    1  0.2436515E-005  0.2105278E+04  0.7818608E-02  0.8558922E-01
          2   -1    0    0  501    0  0.00000000000E+00  0.00000000000E+00  0.84493550964E+03  0.84493550964E+03  0.00000000000E+00 0.  1.
         -2   -1    0    0    0  501 -0.00000000000E+00 -0.00000000000E+00 -0.13114002203E+04  0.13114002203E+04  0.00000000000E+00 0. -1.
         23    2    1    2    0    0 -0.67801710237E+03  0.83954494389E+02  0.58392066768E+03  0.90331338726E+03  0.90863530817E+02 0.  0.
         11    1    3    3    0    0 -0.45562125240E+03  0.13809994909E+02  0.37634613582E+03  0.59111577169E+03  0.00000000000E+00 0. -1.
        -11    1    3    3    0    0 -0.22239584997E+03  0.70144499480E+02  0.20757453186E+03  0.31219761557E+03  0.00000000000E+00 0.  1.
         22    1    1    2    0    0  0.67801710237E+03 -0.83954494389E+02 -0.10503853783E+04  0.12530223427E+04  0.00000000000E+00 0. -1.
<mgrwt>
<rscale>  0 0.21052778E+04</rscale>
<asrwt>0</asrwt>
<pdfrwt beam="1">  1        2 0.12999008E+00 0.21052778E+04</pdfrwt>
<pdfrwt beam="2">  1       -2 0.20175388E+00 0.21052778E+04</pdfrwt>
<totfact> 0.38161605E+00</totfact>
</mgrwt>
</event>
<event>
 6    1  0.2436515E-005  0.5148048E+04  0.7818608E-02  0.7806067E-01
          2   -1    0    0  501    0  0.00000000000E+00  0.00000000000E+00  0.37361470444E+04  0.37361470444E+04  0.00000000000E+00 0.  1.
         -2   -1    0    0    0  501 -0.00000000000E+00 -0.00000000000E+00 -0.17733778960E+04  0.17733778960E+04  0.00000000000E+00 0. -1.
         23    2    1    2    0    0 -0.66469910435E+03  0.16716248453E+04 -0.98745491377E+03  0.20540978265E+04  0.89978615998E+02 0.  0.
         11    1    3    3    0    0 -0.27265723949E+03  0.74424760771E+03 -0.47963169843E+03  0.92644106017E+03  0.00000000000E+00 0.  1.
        -11    1    3    3    0    0 -0.39204186486E+03  0.92737723760E+03 -0.50782321534E+03  0.11276567663E+04  0.00000000000E+00 0. -1.
         22    1    1    2    0    0  0.66469910435E+03 -0.16716248453E+04  0.29502240622E+04  0.34554271139E+04  0.00000000000E+00 0.  1.
<mgrwt>
<rscale>  0 0.51480484E+04</rscale>
<asrwt>0</asrwt>
<pdfrwt beam="1">  1        2 0.57479185E+00 0.51480484E+04</pdfrwt>
<pdfrwt beam="2">  1       -2 0.27282737E+00 0.51480484E+04</pdfrwt>
<totfact> 0.18331629E-02</totfact>
</mgrwt>
</event>
<event>
 6    1  0.2436515E-005  0.6875604E+03  0.7818608E-02  0.9738745E-01
         -2   -1    0    0    0  501 -0.00000000000E+00  0.00000000000E+00  0.53500269127E+02  0.53500269127E+02  0.00000000000E+00 0. -1.
          2   -1    0    0  501    0  0.00000000000E+00 -0.00000000000E+00 -0.22090512903E+04  0.22090512903E+04  0.00000000000E+00 0.  1.
         23    2    1    2    0    0 -0.16893385885E+03 -0.29230283912E+03 -0.10540093128E+04  0.11104344935E+04  0.90274771398E+02 0.  0.
         11    1    3    3    0    0 -0.45423474745E+01 -0.73113602529E+02 -0.17497997539E+03  0.18969508054E+03  0.00000000000E+00 0.  1.
        -11    1    3    3    0    0 -0.16439151138E+03 -0.21918923659E+03 -0.87902933743E+03  0.92073941293E+03  0.00000000000E+00 0. -1.
         22    1    1    2    0    0  0.16893385885E+03  0.29230283912E+03 -0.11015417083E+04  0.11521170659E+04  0.00000000000E+00 0. -1.
<mgrwt>
<rscale>  0 0.68756044E+03</rscale>
<asrwt>0</asrwt>
<pdfrwt beam="1">  1        2 0.33985408E+00 0.68756044E+03</pdfrwt>
<pdfrwt beam="2">  1       -2 0.82308099E-02 0.68756044E+03</pdfrwt>
<totfact> 0.49621349E+02</totfact>
</mgrwt>
</event>
<event>
 6    1  0.2436515E-005  0.1905959E+04  0.7818608E-02  0.8651896E-01
         -2   -1    0    0    0  501 -0.00000000000E+00  0.00000000000E+00  0.40030860353E+03  0.40030860353E+03  0.00000000000E+00 0. -1.
          2   -1    0    0  501    0  0.00000000000E+00 -0.00000000000E+00 -0.22686734953E+04  0.22686734953E+04  0.00000000000E+00 0.  1.
         23    2    1    2    0    0 -0.69079409608E+03 -0.63982761772E+03 -0.11213412148E+04  0.14670585415E+04  0.90987805368E+02 0.  0.
         13    1    3    3    0    0 -0.37055643647E+03 -0.40378184722E+03 -0.63955977728E+03  0.84225207715E+03  0.00000000000E+00 0. -1.
        -13    1    3    3    0    0 -0.32023765961E+03 -0.23604577050E+03 -0.48178143752E+03  0.62480646439E+03  0.00000000000E+00 0.  1.
         22    1    1    2    0    0  0.69079409608E+03  0.63982761772E+03 -0.74702367693E+03  0.12019235573E+04  0.00000000000E+00 0. -1.
<mgrwt>
<rscale>  0 0.19059586E+04</rscale>
<asrwt>0</asrwt>
<pdfrwt beam="1">  1        2 0.34902669E+00 0.19059586E+04</pdfrwt>
<pdfrwt beam="2">  1       -2 0.61585938E-01 0.19059586E+04</pdfrwt>
<totfact> 0.10836214E+01</totfact>
</mgrwt>
</event>
<event>
 6    1  0.2436515E-005  0.1018507E+04  0.7818608E-02  0.9288476E-01
          1   -1    0    0  501    0  0.00000000000E+00  0.00000000000E+00  0.29210022069E+03  0.29210022069E+03  0.00000000000E+00 0.  1.
         -1   -1    0    0    0  501 -0.00000000000E+00 -0.00000000000E+00 -0.88784283591E+03  0.88784283591E+03  0.00000000000E+00 0. -1.
         23    2    1    2    0    0  0.10794083322E+03  0.49610164057E+01 -0.87202445321E+03  0.88328249441E+03  0.89919312597E+02 0.  0.
         11    1    3    3    0    0  0.35172001324E+02  0.43650330689E+02 -0.28072709195E+03  0.28626931586E+03  0.00000000000E+00 0. -1.
        -11    1    3    3    0    0  0.72768831891E+02 -0.38689314283E+02 -0.59129736126E+03  0.59701317856E+03  0.00000000000E+00 0.  1.
         22    1    1    2    0    0 -0.10794083322E+03 -0.49610164057E+01  0.27628183798E+03  0.29666056219E+03  0.00000000000E+00 0.  1.
<mgrwt>
<rscale>  0 0.10185069E+04</rscale>
<asrwt>0</asrwt>
<pdfrwt beam="1">  1        1 0.44938494E-01 0.10185069E+04</pdfrwt>
<pdfrwt beam="2">  1       -1 0.13659121E+00 0.10185069E+04</pdfrwt>
<totfact> 0.40649936E+01</totfact>
</mgrwt>
</event>
<event>
 6    1  0.3287417E-005  0.3017897E+04  0.7818608E-02  0.8238639E-01
          2   -1    0    0  501    0  0.00000000000E+00  0.00000000000E+00  0.20089858981E+04  0.20089858981E+04  0.00000000000E+00 0.  1.
         -2   -1    0    0    0  501 -0.00000000000E+00 -0.00000000000E+00 -0.11333705700E+04  0.11333705700E+04  0.00000000000E+00 0. -1.
         23    2    1    2    0    0  0.12204860606E+04  0.84418722761E+03  0.71518265745E+03  0.16497155397E+04  0.88525866476E+02 0.  0.
         13    1    3    3    0    0  0.53334590622E+03  0.37837049730E+03  0.26727536299E+03  0.70644052019E+03  0.00000000000E+00 0. -1.
        -13    1    3    3    0    0  0.68714015438E+03  0.46581673032E+03  0.44790729446E+03  0.94327501951E+03  0.00000000000E+00 0.  1.
         22    1    1    2    0    0 -0.12204860606E+04 -0.84418722761E+03  0.16043267063E+03  0.14926409284E+04  0.00000000000E+00 0.  1.
<mgrwt>
<rscale>  0 0.30178969E+04</rscale>
<asrwt>0</asrwt>
<pdfrwt beam="1">  1        2 0.30907475E+00 0.30178969E+04</pdfrwt>
<pdfrwt beam="2">  1       -2 0.17436470E+00 0.30178969E+04</pdfrwt>
<totfact> 0.11207704E+00</totfact>
</mgrwt>
</event>
<event>
 6    1  0.2436515E-005  0.2484960E+04  0.7818608E-02  0.8408363E-01
         -2   -1    0    0    0  501 -0.00000000000E+00  0.00000000000E+00  0.75675420688E+03  0.75675420688E+03  0.00000000000E+00 0. -1.
          2   -1    0    0  501    0  0.00000000000E+00 -0.00000000000E+00 -0.20399711364E+04  0.20399711364E+04  0.00000000000E+00 0.  1.
         23    2    1    2    0    0 -0.14829432089E+03  0.17911696912E+02 -0.20288112252E+04  0.20363156588E+04  0.90523146380E+02 0.  0.
         11    1    3    3    0    0 -0.11904782150E+03  0.46238952690E+01 -0.10106607325E+04  0.10176585284E+04  0.00000000000E+00 0.  1.
        -11    1    3    3    0    0 -0.29246499384E+02  0.13287801643E+02 -0.10181504927E+04  0.10186571304E+04  0.00000000000E+00 0. -1.
         22    1    1    2    0    0  0.14829432089E+03 -0.17911696912E+02  0.74559429571E+03  0.76040968451E+03  0.00000000000E+00 0. -1.
<mgrwt>
<rscale>  0 0.24849602E+04</rscale>
<asrwt>0</asrwt>
<pdfrwt beam="1">  1        2 0.31384172E+00 0.24849602E+04</pdfrwt>
<pdfrwt beam="2">  1       -2 0.11642372E+00 0.24849602E+04</pdfrwt>
<totfact> 0.32429413E+00</totfact>
</mgrwt>
</event>
<event>
 6    1  0.2436515E-005  0.3894811E+04  0.7818608E-02  0.8026109E-01
          2   -1    0    0  501    0  0.00000000000E+00  0.00000000000E+00  0.24907008310E+04  0.24907008310E+04  0.00000000000E+00 0.  1.
         -2   -1    0    0    0  501 -0.00000000000E+00 -0.00000000000E+00 -0.15226187040E+04  0.15226187040E+04  0.00000000000E+00 0. -1.
         23    2    1    2    0    0  0.12517291485E+04  0.11846165637E+03  0.20152122685E+04  0.23770614385E+04  0.92095440148E+02 0.  0.
         11    1    3    3    0    0  0.84148456429E+03  0.44115870732E+02  0.13947753458E+04  0.16295523150E+04  0.00000000000E+00 0.  1.
        -11    1    3    3    0    0  0.41024458421E+03  0.74345785640E+02  0.62043692269E+03  0.74750912352E+03  0.00000000000E+00 0. -1.
         22    1    1    2    0    0 -0.12517291485E+04 -0.11846165637E+03 -0.10471301415E+04  0.16362580965E+04  0.00000000000E+00 0. -1.
<mgrwt>
<rscale>  0 0.38948107E+04</rscale>
<asrwt>0</asrwt>
<pdfrwt beam="1">  1        2 0.38318474E+00 0.38948107E+04</pdfrwt>
<pdfrwt beam="2">  1       -2 0.23424903E+00 0.38948107E+04</pdfrwt>
<totfact> 0.22553850E-01</totfact>
</mgrwt>
</event>
<event>
 6    1  0.2436515E-005  0.2097409E+04  0.7818608E-02  0.8562386E-01
         -2   -1    0    0    0  501 -0.00000000000E+00  0.00000000000E+00  0.61301215852E+03  0.61301215852E+03  0.00000000000E+00 0. -1.
          2   -1    0    0  501    0  0.00000000000E+00 -0.00000000000E+00 -0.17940601809E+04  0.17940601809E+04  0.00000000000E+00 0.  1.
         23    2    1    2    0    0  0.55843905572E+03 -0.78564237437E+03 -0.10599058250E+04  0.14355974034E+04  0.91931644978E+02 0.  0.
         13    1    3    3    0    0  0.49026602546E+03 -0.63174687942E+03 -0.88852326509E+03  0.11953821514E+04  0.00000000000E+00 0.  1.
        -13    1    3    3    0    0  0.68173030266E+02 -0.15389549495E+03 -0.17138255991E+03  0.24021525194E+03  0.00000000000E+00 0. -1.
         22    1    1    2    0    0 -0.55843905572E+03  0.78564237437E+03 -0.12114219738E+03  0.97147493603E+03  0.00000000000E+00 0.  1.
<mgrwt>
<rscale>  0 0.20974086E+04</rscale>
<asrwt>0</asrwt>
<pdfrwt beam="1">  1        2 0.27600925E+00 0.20974086E+04</pdfrwt>
<pdfrwt beam="2">  1       -2 0.94309566E-01 0.20974086E+04</pdfrwt>
<totfact> 0.75975843E+00</totfact>
</mgrwt>
</event>
<event>
 6    1  0.2436515E-005  0.5649159E+03  0.7818608E-02  0.9980993E-01
          2   -1    0    0  501    0  0.00000000000E+00  0.00000000000E+00  0.29127097253E+04  0.29127097253E+04  0.00000000000E+00 0.  1.
         -2   -1    0    0    0  501 -0.00000000000E+00 -0.00000000000E+00 -0.27391157273E+02  0.27391157273E+02  0.00000000000E+00 0. -1.
         23    2    1    2    0    0  0.11859473097E+03  0.11072490039E+03  0.26365244835E+04  0.26430769606E+04  0.90938184102E+02 0.  0.
         11    1    3    3    0    0  0.63478646679E+02  0.82856490241E+02  0.21663970870E+04  0.21689101122E+04  0.00000000000E+00 0. -1.
        -11    1    3    3    0    0  0.55116084288E+02  0.27868410149E+02  0.47012739656E+03  0.47416684830E+03  0.00000000000E+00 0.  1.
         22    1    1    2    0    0 -0.11859473097E+03 -0.11072490039E+03  0.24879408452E+03  0.29702392205E+03  0.00000000000E+00 0. -1.
<mgrwt>
<rscale>  0 0.56491589E+03</rscale>
<asrwt>0</asrwt>
<pdfrwt beam="1">  1        2 0.44810894E+00 0.56491589E+03</pdfrwt>
<pdfrwt beam="2">  1       -2 0.42140265E-02 0.56491589E+03</pdfrwt>
<totfact> 0.56927630E+02</totfact>
</mgrwt>
</event>
<event>
 6    1  0.2436515E-005  0.2280438E+04  0.7818608E-02  0.8485674E-01
          2   -1    0    0  501    0  0.00000000000E+00  0.00000000000E+00  0.16951802205E+04  0.16951802205E+04  0.00000000000E+00 0.  1.
         -2   -1    0    0    0  501 -0.00000000000E+00 -0.00000000000E+00 -0.76693857422E+03  0.76693857422E+03  0.00000000000E+00 0. -1.
         23    2    1    2    0    0  0.19598180173E+03  0.93867887839E+03 -0.19798072816E+03  0.98296236621E+03  0.86554845673E+02 0.  0.
         11    1    3    3    0    0  0.16685290979E+03  0.77899482396E+03 -0.13098068162E+03  0.80735913212E+03  0.00000000000E+00 0.  1.
        -11    1    3    3    0    0  0.29128891941E+02  0.15968405443E+03 -0.67000046537E+02  0.17560323408E+03  0.00000000000E+00 0. -1.
         22    1    1    2    0    0 -0.19598180173E+03 -0.93867887839E+03  0.11262223744E+04  0.14791564285E+04  0.00000000000E+00 0.  1.
<mgrwt>
<rscale>  0 0.22804378E+04</rscale>
<asrwt>0</asrwt>
<pdfrwt beam="1">  1        2 0.26079696E+00 0.22804378E+04</pdfrwt>
<pdfrwt beam="2">  1       -2 0.11799055E+00 0.22804378E+04</pdfrwt>
<totfact> 0.49619737E+00</totfact>
</mgrwt>
</event>
<event>
 6    1  0.2436515E-005  0.4418811E+04  0.7818608E-02  0.7925007E-01
          2   -1    0    0  501    0  0.00000000000E+00  0.00000000000E+00  0.35748080923E+04  0.35748080923E+04  0.00000000000E+00 0.  1.
         -2   -1    0    0    0  501 -0.00000000000E+00 -0.00000000000E+00 -0.13655199886E+04  0.13655199886E+04  0.00000000000E+00 0. -1.
         23    2    1    2    0    0 -0.16553517811E+04 -0.29100931794E+02  0.27391815420E+04  0.32019888047E+04  0.92630456373E+02 0.  0.
         11    1    3    3    0    0 -0.96652099625E+03  0.16689975035E+02  0.16572103378E+04  0.19185378535E+04  0.00000000000E+00 0. -1.
        -11    1    3    3    0    0 -0.68883078487E+03 -0.45790906830E+02  0.10819712042E+04  0.12834509512E+04  0.00000000000E+00 0.  1.
         22    1    1    2    0    0  0.16553517811E+04  0.29100931794E+02 -0.52989343832E+03  0.17383392763E+04  0.00000000000E+00 0. -1.
<mgrwt>
<rscale>  0 0.44188107E+04</rscale>
<asrwt>0</asrwt>
<pdfrwt beam="1">  1        2 0.54997047E+00 0.44188107E+04</pdfrwt>
<pdfrwt beam="2">  1       -2 0.21008000E+00 0.44188107E+04</pdfrwt>
<totfact> 0.62645447E-02</totfact>
</mgrwt>
</event>
<event>
 6    1  0.2436515E-005  0.1681235E+04  0.7818608E-02  0.8772140E-01
         -4   -1    0    0    0  501 -0.00000000000E+00  0.00000000000E+00  0.11434595780E+04  0.11434595780E+04  0.00000000000E+00 0. -1.
          4   -1    0    0  501    0  0.00000000000E+00 -0.00000000000E+00 -0.61798213425E+03  0.61798213425E+03  0.00000000000E+00 0.  1.
         23    2    1    2    0    0 -0.73885504403E+03 -0.30993362117E+03  0.58276707551E+01  0.80645400960E+03  0.91479408871E+02 0.  0.
         11    1    3    3    0    0 -0.25227773684E+03 -0.94633627066E+02 -0.40025025522E+02  0.27239967427E+03  0.00000000000E+00 0.  1.
        -11    1    3    3    0    0 -0.48657730719E+03 -0.21529999410E+03  0.45852696277E+02  0.53405433533E+03  0.00000000000E+00 0. -1.
         22    1    1    2    0    0  0.73885504403E+03  0.30993362117E+03  0.51964977297E+03  0.95498770262E+03  0.00000000000E+00 0.  1.
<mgrwt>
<rscale>  0 0.16812348E+04</rscale>
<asrwt>0</asrwt>
<pdfrwt beam="1">  1        4 0.95074175E-01 0.16812348E+04</pdfrwt>
<pdfrwt beam="2">  1       -4 0.17591686E+00 0.16812348E+04</pdfrwt>
<totfact> 0.34064633E-01</totfact>
</mgrwt>
</event>
<event>
 6    1  0.2436515E-005  0.1436482E+04  0.7818608E-02  0.8927826E-01
          2   -1    0    0  501    0  0.00000000000E+00  0.00000000000E+00  0.22355193375E+04  0.22355193375E+04  0.00000000000E+00 0. -1.
         -2   -1    0    0    0  501 -0.00000000000E+00 -0.00000000000E+00 -0.23076083886E+03  0.23076083886E+03  0.00000000000E+00 0.  1.
         23    2    1    2    0    0  0.26050089338E+03  0.52115544005E+03  0.17187724882E+04  0.18172411126E+04  0.93395325875E+02 0.  0.
         13    1    3    3    0    0  0.15894139960E+03  0.22337105905E+03  0.74044960123E+03  0.78957115607E+03  0.00000000000E+00 0.  1.
        -13    1    3    3    0    0  0.10155949378E+03  0.29778438100E+03  0.97832288700E+03  0.10276699565E+04  0.00000000000E+00 0. -1.
         22    1    1    2    0    0 -0.26050089338E+03 -0.52115544005E+03  0.28598601045E+03  0.64903906379E+03  0.00000000000E+00 0.  1.
<mgrwt>
<rscale>  0 0.14364823E+04</rscale>
<asrwt>0</asrwt>
<pdfrwt beam="1">  1        2 0.34392604E+00 0.14364823E+04</pdfrwt>
<pdfrwt beam="2">  1       -2 0.35501669E-01 0.14364823E+04</pdfrwt>
<totfact> 0.35739187E+01</totfact>
</mgrwt>
</event>
<event>
 6    1  0.2436515E-005  0.2569729E+04  0.7818608E-02  0.8378557E-01
         -4   -1    0    0    0  501 -0.00000000000E+00  0.00000000000E+00  0.14107642840E+04  0.14107642840E+04  0.00000000000E+00 0. -1.
          4   -1    0    0  501    0  0.00000000000E+00 -0.00000000000E+00 -0.11702000340E+04  0.11702000340E+04  0.00000000000E+00 0.  1.
         23    2    1    2    0    0  0.12530558518E+04  0.18140417537E+03 -0.89629742799E+02  0.12724978434E+04  0.90337301335E+02 0.  0.
         13    1    3    3    0    0  0.40661570234E+03  0.58694930172E+02  0.13251459178E+02  0.41104382417E+03  0.00000000000E+00 0.  1.
        -13    1    3    3    0    0  0.84644014945E+03  0.12270924520E+03 -0.10288120198E+03  0.86145401919E+03  0.00000000000E+00 0. -1.
         22    1    1    2    0    0 -0.12530558518E+04 -0.18140417537E+03  0.33019399277E+03  0.13084664747E+04  0.00000000000E+00 0. -1.
<mgrwt>
<rscale>  0 0.25697287E+04</rscale>
<asrwt>0</asrwt>
<pdfrwt beam="1">  1        4 0.18003078E+00 0.25697287E+04</pdfrwt>
<pdfrwt beam="2">  1       -4 0.21704066E+00 0.25697287E+04</pdfrwt>
<totfact> 0.32364558E-02</totfact>
</mgrwt>
</event>
<event>
 6    1  0.2436515E-005  0.2491512E+04  0.7818608E-02  0.8406016E-01
          2   -1    0    0  501    0  0.00000000000E+00  0.00000000000E+00  0.15389501098E+04  0.15389501098E+04  0.00000000000E+00 0.  1.
         -2   -1    0    0    0  501 -0.00000000000E+00 -0.00000000000E+00 -0.10084201175E+04  0.10084201175E+04  0.00000000000E+00 0. -1.
         23    2    1    2    0    0 -0.11520259759E+04 -0.17047017553E+03 -0.18171218125E+03  0.11822647940E+04  0.92232296036E+02 0.  0.
         11    1    3    3    0    0 -0.69143869509E+03 -0.94734482489E+02 -0.63662813061E+02  0.70079600813E+03  0.00000000000E+00 0.  1.
        -11    1    3    3    0    0 -0.46058728086E+03 -0.75735693041E+02 -0.11804936819E+03  0.48146878592E+03  0.00000000000E+00 0. -1.
         22    1    1    2    0    0  0.11520259759E+04  0.17047017553E+03  0.71224217354E+03  0.13651054332E+04  0.00000000000E+00 0.  1.
<mgrwt>
<rscale>  0 0.24915122E+04</rscale>
<asrwt>0</asrwt>
<pdfrwt beam="1">  1        2 0.23676156E+00 0.24915122E+04</pdfrwt>
<pdfrwt beam="2">  1       -2 0.15514156E+00 0.24915122E+04</pdfrwt>
<totfact> 0.29499857E+00</totfact>
</mgrwt>
</event>
<event>
 6    1  0.2436515E-005  0.1567084E+04  0.7818608E-02  0.8841028E-01
         -2   -1    0    0    0  501 -0.00000000000E+00  0.00000000000E+00  0.19140635825E+03  0.19140635825E+03  0.00000000000E+00 0. -1.
          2   -1    0    0  501    0  0.00000000000E+00 -0.00000000000E+00 -0.32075125115E+04  0.32075125115E+04  0.00000000000E+00 0.  1.
         23    2    1    2    0    0  0.17031804253E+03 -0.70600493809E+03 -0.21383403444E+04  0.22596541844E+04  0.78015358624E+02 0.  0.
         13    1    3    3    0    0  0.28073459889E+02 -0.89497855042E+02 -0.20554257592E+03  0.22593303372E+03  0.00000000000E+00 0.  1.
        -13    1    3    3    0    0  0.14224458264E+03 -0.61650708304E+03 -0.19327977685E+04  0.20337211506E+04  0.00000000000E+00 0. -1.
         22    1    1    2    0    0 -0.17031804253E+03  0.70600493809E+03 -0.87776580890E+03  0.11392646854E+04  0.00000000000E+00 0. -1.
<mgrwt>
<rscale>  0 0.15670843E+04</rscale>
<asrwt>0</asrwt>
<pdfrwt beam="1">  1        2 0.49346340E+00 0.15670843E+04</pdfrwt>
<pdfrwt beam="2">  1       -2 0.29447136E-01 0.15670843E+04</pdfrwt>
<totfact> 0.13200106E+01</totfact>
</mgrwt>
</event>
<event>
 6    1  0.2436515E-005  0.7741545E+03  0.7818608E-02  0.9598200E-01
         -2   -1    0    0    0  501 -0.00000000000E+00  0.00000000000E+00  0.29926552727E+03  0.29926552727E+03  0.00000000000E+00 0. -1.
          2   -1    0    0  501    0  0.00000000000E+00 -0.00000000000E+00 -0.50065507497E+03  0.50065507497E+03  0.00000000000E+00 0.  1.
         23    2    1    2    0    0 -0.15654496230E+03 -0.17468024716E+03 -0.41339971288E+03  0.48374371486E+03  0.89939674719E+02 0.  0.
         11    1    3    3    0    0 -0.10288023694E+03 -0.10397824739E+03 -0.33410325384E+03  0.36472017124E+03  0.00000000000E+00 0.  1.
        -11    1    3    3    0    0 -0.53664725361E+02 -0.70701999769E+02 -0.79296459035E+02  0.11902354362E+03  0.00000000000E+00 0. -1.
         22    1    1    2    0    0  0.15654496230E+03  0.17468024716E+03  0.21201016518E+03  0.31617688737E+03  0.00000000000E+00 0. -1.
<mgrwt>
<rscale>  0 0.77415452E+03</rscale>
<asrwt>0</asrwt>
<pdfrwt beam="1">  1        2 0.77023857E-01 0.77415452E+03</pdfrwt>
<pdfrwt beam="2">  1       -2 0.46040851E-01 0.77415452E+03</pdfrwt>
<totfact> 0.27707412E+02</totfact>
</mgrwt>
</event>
<event>
 6    1  0.2436515E-005  0.9967535E+04  0.7818608E-02  0.7330723E-01
          2   -1    0    0  501    0  0.00000000000E+00  0.00000000000E+00  0.45854899688E+04  0.45854899688E+04  0.00000000000E+00 0.  1.
         -2   -1    0    0    0  501 -0.00000000000E+00 -0.00000000000E+00 -0.54166374043E+04  0.54166374043E+04  0.00000000000E+00 0. -1.
         23    2    1    2    0    0 -0.89275830863E+03 -0.42531056947E+04  0.20316824253E+04  0.47981173559E+04  0.90946334626E+02 0.  0.
         11    1    3    3    0    0 -0.23436790399E+03 -0.10219509787E+04  0.52753180187E+03  0.11737128777E+04  0.00000000000E+00 0. -1.
        -11    1    3    3    0    0 -0.65839040464E+03 -0.32311547159E+04  0.15041506235E+04  0.36244044782E+04  0.00000000000E+00 0.  1.
         22    1    1    2    0    0  0.89275830863E+03  0.42531056947E+04 -0.28628298608E+04  0.52040100172E+04  0.00000000000E+00 0.  1.
<mgrwt>
<rscale>  0 0.99675346E+04</rscale>
<asrwt>0</asrwt>
<pdfrwt beam="1">  1        2 0.70546000E+00 0.99675346E+04</pdfrwt>
<pdfrwt beam="2">  1       -2 0.83332883E+00 0.99675346E+04</pdfrwt>
<totfact> 0.22736532E-06</totfact>
</mgrwt>
</event>
<event>
 6    1  0.2436515E-005  0.1812966E+04  0.7818608E-02  0.8699435E-01
         -2   -1    0    0    0  501 -0.00000000000E+00  0.00000000000E+00  0.37473582972E+03  0.37473582972E+03  0.00000000000E+00 0. -1.
          2   -1    0    0  501    0  0.00000000000E+00 -0.00000000000E+00 -0.21927753181E+04  0.21927753181E+04  0.00000000000E+00 0.  1.
         23    2    1    2    0    0 -0.49087392646E+03 -0.18152217464E+03 -0.19555945978E+04  0.20263744555E+04  0.89082497284E+02 0.  0.
         11    1    3    3    0    0 -0.22749160331E+03 -0.67124713765E+02 -0.10448387172E+04  0.10714224665E+04  0.00000000000E+00 0.  1.
        -11    1    3    3    0    0 -0.26338232314E+03 -0.11439746087E+03 -0.91075588062E+03  0.95495198900E+03  0.00000000000E+00 0. -1.
         22    1    1    2    0    0  0.49087392646E+03  0.18152217464E+03  0.13755510951E+03  0.54113669226E+03  0.00000000000E+00 0. -1.
<mgrwt>
<rscale>  0 0.18129661E+04</rscale>
<asrwt>0</asrwt>
<pdfrwt beam="1">  1        2 0.33735005E+00 0.18129661E+04</pdfrwt>
<pdfrwt beam="2">  1       -2 0.57651666E-01 0.18129661E+04</pdfrwt>
<totfact> 0.13853318E+01</totfact>
</mgrwt>
</event>
<event>
 6    1  0.2436515E-005  0.3065450E+04  0.7818608E-02  0.8225284E-01
         -2   -1    0    0    0  501 -0.00000000000E+00  0.00000000000E+00  0.16250687080E+04  0.16250687080E+04  0.00000000000E+00 0. -1.
          2   -1    0    0  501    0  0.00000000000E+00 -0.00000000000E+00 -0.14456283290E+04  0.14456283290E+04  0.00000000000E+00 0.  1.
         23    2    1    2    0    0 -0.80120582970E+03 -0.36420524455E+03 -0.11655228969E+04  0.14633692997E+04  0.91814173178E+02 0.  0.
         13    1    3    3    0    0 -0.32191339154E+03 -0.13094110725E+03 -0.53169978807E+03  0.63519955121E+03  0.00000000000E+00 0. -1.
        -13    1    3    3    0    0 -0.47929243816E+03 -0.23326413729E+03 -0.63382310882E+03  0.82816974848E+03  0.00000000000E+00 0.  1.
         22    1    1    2    0    0  0.80120582970E+03  0.36420524455E+03  0.13449632759E+04  0.16073277373E+04  0.00000000000E+00 0. -1.
<mgrwt>
<rscale>  0 0.30654496E+04</rscale>
<asrwt>0</asrwt>
<pdfrwt beam="1">  1        2 0.22240436E+00 0.30654496E+04</pdfrwt>
<pdfrwt beam="2">  1       -2 0.25001057E+00 0.30654496E+04</pdfrwt>
<totfact> 0.74554793E-01</totfact>
</mgrwt>
</event>
<event>
 6    1  0.2436515E-005  0.1337696E+04  0.7818608E-02  0.9000195E-01
         -2   -1    0    0    0  501 -0.00000000000E+00  0.00000000000E+00  0.36383656116E+03  0.36383656116E+03  0.00000000000E+00 0. -1.
          2   -1    0    0  501    0  0.00000000000E+00 -0.00000000000E+00 -0.12295569082E+04  0.12295569082E+04  0.00000000000E+00 0.  1.
         23    2    1    2    0    0  0.52394441495E+03  0.36063237800E+03 -0.66878052873E+03  0.92754156835E+03  0.92154779500E+02 0.  0.
         13    1    3    3    0    0  0.27654925364E+03  0.15825002392E+03 -0.27941230026E+03  0.42378507913E+03  0.00000000000E+00 0.  1.
        -13    1    3    3    0    0  0.24739516131E+03  0.20238235408E+03 -0.38936822847E+03  0.50375648921E+03  0.00000000000E+00 0. -1.
         22    1    1    2    0    0 -0.52394441495E+03 -0.36063237800E+03 -0.19693981827E+03  0.66585190098E+03  0.00000000000E+00 0. -1.
<mgrwt>
<rscale>  0 0.13376962E+04</rscale>
<asrwt>0</asrwt>
<pdfrwt beam="1">  1        2 0.18916260E+00 0.13376962E+04</pdfrwt>
<pdfrwt beam="2">  1       -2 0.55974856E-01 0.13376962E+04</pdfrwt>
<totfact> 0.53285652E+01</totfact>
</mgrwt>
</event>
<event>
 6    1  0.2436515E-005  0.1119957E+04  0.7818608E-02  0.9185956E-01
         -2   -1    0    0    0  501 -0.00000000000E+00  0.00000000000E+00  0.66076650682E+03  0.66076650682E+03  0.00000000000E+00 0. -1.
          2   -1    0    0  501    0  0.00000000000E+00 -0.00000000000E+00 -0.47456365457E+03  0.47456365457E+03  0.00000000000E+00 0.  1.
         23    2    1    2    0    0 -0.45565712251E+03  0.29032110023E+03  0.22798256949E+03  0.59343044806E+03  0.90960926542E+02 0.  0.
         13    1    3    3    0    0 -0.20840224150E+03  0.15080951676E+03  0.15487920684E+03  0.30027083329E+03  0.00000000000E+00 0. -1.
        -13    1    3    3    0    0 -0.24725488101E+03  0.13951158347E+03  0.73103362653E+02  0.29315961478E+03  0.00000000000E+00 0.  1.
         22    1    1    2    0    0  0.45565712251E+03 -0.29032110023E+03 -0.41779717248E+02  0.54189971333E+03  0.00000000000E+00 0. -1.
<mgrwt>
<rscale>  0 0.11199567E+04</rscale>
<asrwt>0</asrwt>
<pdfrwt beam="1">  1        2 0.73009793E-01 0.11199567E+04</pdfrwt>
<pdfrwt beam="2">  1       -2 0.10165639E+00 0.11199567E+04</pdfrwt>
<totfact> 0.51545649E+01</totfact>
</mgrwt>
</event>
<event>
 6    1  0.2436515E-005  0.8358940E+03  0.7818608E-02  0.9509468E-01
         -2   -1    0    0    0  501 -0.00000000000E+00  0.00000000000E+00  0.47181226436E+03  0.47181226436E+03  0.00000000000E+00 0. -1.
          2   -1    0    0  501    0  0.00000000000E+00 -0.00000000000E+00 -0.37023136816E+03  0.37023136816E+03  0.00000000000E+00 0.  1.
         23    2    1    2    0    0 -0.36432053320E+03 -0.14690306850E+02 -0.14403333469E+03  0.40241696540E+03  0.90821564133E+02 0.  0.
         13    1    3    3    0    0 -0.62288259099E+02  0.16134909582E+02 -0.58587200538E+02  0.87020817025E+02  0.00000000000E+00 0. -1.
        -13    1    3    3    0    0 -0.30203227410E+03 -0.30825216433E+02 -0.85446134148E+02  0.31539614837E+03  0.00000000000E+00 0.  1.
         22    1    1    2    0    0  0.36432053320E+03  0.14690306850E+02  0.24561423089E+03  0.43962666712E+03  0.00000000000E+00 0. -1.
<mgrwt>
<rscale>  0 0.83589401E+03</rscale>
<asrwt>0</asrwt>
<pdfrwt beam="1">  1        2 0.56958672E-01 0.83589401E+03</pdfrwt>
<pdfrwt beam="2">  1       -2 0.72586503E-01 0.83589401E+03</pdfrwt>
<totfact> 0.14990708E+02</totfact>
</mgrwt>
</event>
<event>
 6    1  0.2436515E-005  0.1016287E+04  0.7818608E-02  0.9290860E-01
          2   -1    0    0  501    0  0.00000000000E+00  0.00000000000E+00  0.24799698428E+04  0.24799698428E+04  0.00000000000E+00 0.  1.
         -2   -1    0    0    0  501 -0.00000000000E+00 -0.00000000000E+00 -0.10411803888E+03  0.10411803888E+03  0.00000000000E+00 0. -1.
         23    2    1    2    0    0 -0.37904829611E+02 -0.37423824618E+03  0.34445158812E+03  0.51815519212E+03  0.91361181847E+02 0.  0.
         13    1    3    3    0    0  0.22121266003E+02 -0.11005808558E+03  0.68821220736E+02  0.13167571164E+03  0.00000000000E+00 0.  1.
        -13    1    3    3    0    0 -0.60026095614E+02 -0.26418016060E+03  0.27563036738E+03  0.38647948048E+03  0.00000000000E+00 0. -1.
         22    1    1    2    0    0  0.37904829611E+02  0.37423824618E+03  0.20314002158E+04  0.20659326896E+04  0.00000000000E+00 0.  1.
<mgrwt>
<rscale>  0 0.10162866E+04</rscale>
<asrwt>0</asrwt>
<pdfrwt beam="1">  1        2 0.38153378E+00 0.10162866E+04</pdfrwt>
<pdfrwt beam="2">  1       -2 0.16018162E-01 0.10162866E+04</pdfrwt>
<totfact> 0.11327098E+02</totfact>
</mgrwt>
</event>
<event>
 6    1  0.2436515E-005  0.2317456E+04  0.7818608E-02  0.8471070E-01
         -2   -1    0    0    0  501 -0.00000000000E+00  0.00000000000E+00  0.38494279063E+04  0.38494279063E+04  0.00000000000E+00 0. -1.
          2   -1    0    0  501    0  0.00000000000E+00 -0.00000000000E+00 -0.34879209614E+03  0.34879209614E+03  0.00000000000E+00 0.  1.
         23    2    1    2    0    0 -0.87920728465E+03 -0.74701500850E+03  0.15954076836E+04  0.19709052320E+04  0.90027131474E+02 0.  0.
         11    1    3    3    0    0 -0.18125324756E+03 -0.10940317466E+03  0.27976779857E+03  0.35084443204E+03  0.00000000000E+00 0.  1.
        -11    1    3    3    0    0 -0.69795403708E+03 -0.63761183384E+03  0.13156398850E+04  0.16200607999E+04  0.00000000000E+00 0. -1.
         22    1    1    2    0    0  0.87920728465E+03  0.74701500850E+03  0.19052281267E+04  0.22273147705E+04  0.00000000000E+00 0.  1.
<mgrwt>
<rscale>  0 0.23174555E+04</rscale>
<asrwt>0</asrwt>
<pdfrwt beam="1">  1        2 0.53660325E-01 0.23174555E+04</pdfrwt>
<pdfrwt beam="2">  1       -2 0.59221965E+00 0.23174555E+04</pdfrwt>
<totfact> 0.44977271E-02</totfact>
</mgrwt>
</event>
<event>
 6    1  0.2436515E-005  0.6282012E+03  0.7818608E-02  0.9848565E-01
         -2   -1    0    0    0  501 -0.00000000000E+00  0.00000000000E+00  0.21705510734E+03  0.21705510734E+03  0.00000000000E+00 0. -1.
          2   -1    0    0  501    0  0.00000000000E+00 -0.00000000000E+00 -0.45453525805E+03  0.45453525805E+03  0.00000000000E+00 0.  1.
         23    2    1    2    0    0 -0.94646851052E+02  0.21141958877E+03  0.96111325518E+02  0.26546287071E+03  0.87045275019E+02 0.  0.
         11    1    3    3    0    0 -0.62090952082E+02  0.17663388620E+03  0.39284716059E+02  0.19130631197E+03  0.00000000000E+00 0. -1.
        -11    1    3    3    0    0 -0.32555898970E+02  0.34785702567E+02  0.56826609460E+02  0.74156558736E+02  0.00000000000E+00 0.  1.
         22    1    1    2    0    0  0.94646851052E+02 -0.21141958877E+03 -0.33359147622E+03  0.40612749468E+03  0.00000000000E+00 0.  1.
<mgrwt>
<rscale>  0 0.62820124E+03</rscale>
<asrwt>0</asrwt>
<pdfrwt beam="1">  1        2 0.69928502E-01 0.62820124E+03</pdfrwt>
<pdfrwt beam="2">  1       -2 0.33393093E-01 0.62820124E+03</pdfrwt>
<totfact> 0.57994511E+02</totfact>
</mgrwt>
</event>
<event>
 6    1  0.2436515E-005  0.2816762E+04  0.7818608E-02  0.8298083E-01
          2   -1    0    0  501    0  0.00000000000E+00  0.00000000000E+00  0.49629694766E+04  0.49629694766E+04  0.00000000000E+00 0.  1.
         -2   -1    0    0    0  501 -0.00000000000E+00 -0.00000000000E+00 -0.39966730983E+03  0.39966730983E+03  0.00000000000E+00 0. -1.
         23    2    1    2    0    0  0.57677468345E+03  0.49663615829E+03  0.31484134789E+02  0.76734667761E+03  0.92266807188E+02 0.  0.
         11    1    3    3    0    0  0.24151395877E+03  0.21120184709E+03  0.58848560122E+02  0.32618762319E+03  0.00000000000E+00 0.  1.
        -11    1    3    3    0    0  0.33526072468E+03  0.28543431120E+03 -0.27364425333E+02  0.44115905442E+03  0.00000000000E+00 0. -1.
         22    1    1    2    0    0 -0.57677468345E+03 -0.49663615829E+03  0.45318180320E+04  0.45952901088E+04  0.00000000000E+00 0.  1.
<mgrwt>
<rscale>  0 0.28167617E+04</rscale>
<asrwt>0</asrwt>
<pdfrwt beam="1">  1        2 0.76353372E+00 0.28167617E+04</pdfrwt>
<pdfrwt beam="2">  1       -2 0.61487282E-01 0.28167617E+04</pdfrwt>
<totfact> 0.81820701E-02</totfact>
</mgrwt>
</event>
<event>
 6    1  0.2436515E-005  0.8561290E+03  0.7818608E-02  0.9482148E-01
         -2   -1    0    0    0  501 -0.00000000000E+00  0.00000000000E+00  0.24276263157E+03  0.24276263157E+03  0.00000000000E+00 0. -1.
          2   -1    0    0  501    0  0.00000000000E+00 -0.00000000000E+00 -0.75480808180E+03  0.75480808180E+03  0.00000000000E+00 0.  1.
         23    2    1    2    0    0 -0.28618603642E+03 -0.29984189211E+02 -0.62055161795E+03  0.69004008486E+03  0.90936841392E+02 0.  0.
         13    1    3    3    0    0 -0.16933006017E+03  0.34606881891E+01 -0.44826172616E+03  0.47919017184E+03  0.00000000000E+00 0.  1.
        -13    1    3    3    0    0 -0.11685597624E+03 -0.33444877400E+02 -0.17228989179E+03  0.21084991302E+03  0.00000000000E+00 0. -1.
         22    1    1    2    0    0  0.28618603642E+03  0.29984189211E+02  0.10850616773E+03  0.30753062852E+03  0.00000000000E+00 0. -1.
<mgrwt>
<rscale>  0 0.85612895E+03</rscale>
<asrwt>0</asrwt>
<pdfrwt beam="1">  1        2 0.11612432E+00 0.85612895E+03</pdfrwt>
<pdfrwt beam="2">  1       -2 0.37348097E-01 0.85612895E+03</pdfrwt>
<totfact> 0.25232600E+02</totfact>
</mgrwt>
</event>
<event>
 6    1  0.2705160E-005  0.3257473E+04  0.7818608E-02  0.8173801E-01
          1   -1    0    0  501    0  0.00000000000E+00  0.00000000000E+00  0.22811488858E+04  0.22811488858E+04  0.00000000000E+00 0.  1.
         -1   -1    0    0    0  501 -0.00000000000E+00 -0.00000000000E+00 -0.11629154434E+04  0.11629154434E+04  0.00000000000E+00 0. -1.
         23    2    1    2    0    0  0.14921478798E+04 -0.11384727404E+03  0.12366080319E+04  0.19429050971E+04  0.78830798953E+02 0.  0.
         11    1    3    3    0    0  0.72102406936E+03 -0.81197635065E+02  0.56099275407E+03  0.91715954700E+03  0.00000000000E+00 0. -1.
        -11    1    3    3    0    0  0.77112381039E+03 -0.32649638971E+02  0.67561527782E+03  0.10257455501E+04  0.00000000000E+00 0.  1.
         22    1    1    2    0    0 -0.14921478798E+04  0.11384727404E+03 -0.11837458948E+03  0.15011592322E+04  0.00000000000E+00 0. -1.
<mgrwt>
<rscale>  0 0.32574734E+04</rscale>
<asrwt>0</asrwt>
<pdfrwt beam="1">  1        1 0.35094598E+00 0.32574734E+04</pdfrwt>
<pdfrwt beam="2">  1       -1 0.17891007E+00 0.32574734E+04</pdfrwt>
<totfact> 0.33823884E-01</totfact>
</mgrwt>
</event>
<event>
 6    1  0.2436515E-005  0.1083415E+04  0.7818608E-02  0.9221509E-01
         -2   -1    0    0    0  501 -0.00000000000E+00  0.00000000000E+00  0.33094096164E+03  0.33094096164E+03  0.00000000000E+00 0. -1.
          2   -1    0    0  501    0  0.00000000000E+00 -0.00000000000E+00 -0.88670563700E+03  0.88670563700E+03  0.00000000000E+00 0.  1.
         23    2    1    2    0    0 -0.72218808388E+02  0.15578874276E+03 -0.85238081065E+03  0.87491226951E+03  0.97122316281E+02 0.  0.
         13    1    3    3    0    0 -0.42131842524E+02  0.13571311302E+03 -0.79103457607E+03  0.80369698378E+03  0.00000000000E+00 0.  1.
        -13    1    3    3    0    0 -0.30086965863E+02  0.20075629738E+02 -0.61346234574E+02  0.71215285723E+02  0.00000000000E+00 0. -1.
         22    1    1    2    0    0  0.72218808388E+02 -0.15578874276E+03  0.29661613529E+03  0.34273432914E+03  0.00000000000E+00 0. -1.
<mgrwt>
<rscale>  0 0.10834154E+04</rscale>
<asrwt>0</asrwt>
<pdfrwt beam="1">  1        2 0.13641625E+00 0.10834154E+04</pdfrwt>
<pdfrwt beam="2">  1       -2 0.50913995E-01 0.10834154E+04</pdfrwt>
<totfact> 0.10849124E+02</totfact>
</mgrwt>
</event>
<event>
 6    1  0.2436515E-005  0.1284970E+04  0.7818608E-02  0.9041570E-01
         -2   -1    0    0    0  501 -0.00000000000E+00  0.00000000000E+00  0.41217260745E+03  0.41217260745E+03  0.00000000000E+00 0. -1.
          2   -1    0    0  501    0  0.00000000000E+00 -0.00000000000E+00 -0.10014907111E+04  0.10014907111E+04  0.00000000000E+00 0.  1.
         23    2    1    2    0    0  0.21434386736E+03  0.41612598346E+03  0.18274042714E+03  0.51079095628E+03  0.91701743280E+02 0.  0.
         11    1    3    3    0    0  0.12672516984E+03  0.15490351885E+03  0.95734164865E+02  0.22185445487E+03  0.00000000000E+00 0.  1.
        -11    1    3    3    0    0  0.87618697515E+02  0.26122246461E+03  0.87006262275E+02  0.28893650141E+03  0.00000000000E+00 0. -1.
         22    1    1    2    0    0 -0.21434386736E+03 -0.41612598346E+03 -0.77205853074E+03  0.90287236223E+03  0.00000000000E+00 0.  1.
<mgrwt>
<rscale>  0 0.12849701E+04</rscale>
<asrwt>0</asrwt>
<pdfrwt beam="1">  1        2 0.15407549E+00 0.12849701E+04</pdfrwt>
<pdfrwt beam="2">  1       -2 0.63411171E-01 0.12849701E+04</pdfrwt>
<totfact> 0.56784012E+01</totfact>
</mgrwt>
</event>
<event>
 6    1  0.2436515E-005  0.4966541E+04  0.7818608E-02  0.7833689E-01
         -2   -1    0    0    0  501 -0.00000000000E+00  0.00000000000E+00  0.17893609248E+04  0.17893609248E+04  0.00000000000E+00 0. -1.
          2   -1    0    0  501    0  0.00000000000E+00 -0.00000000000E+00 -0.34462764408E+04  0.34462764408E+04  0.00000000000E+00 0.  1.
         23    2    1    2    0    0 -0.49670533755E+03 -0.58076730198E+03  0.16611106005E+04  0.18307432173E+04  0.91243898655E+02 0.  0.
         11    1    3    3    0    0 -0.19835606701E+03 -0.16942848826E+03  0.52914060298E+03  0.58994992981E+03  0.00000000000E+00 0. -1.
        -11    1    3    3    0    0 -0.29834927054E+03 -0.41133881372E+03  0.11319699975E+04  0.12407932875E+04  0.00000000000E+00 0.  1.
         22    1    1    2    0    0  0.49670533755E+03  0.58076730198E+03 -0.33180261166E+04  0.34048941484E+04  0.00000000000E+00 0.  1.
<mgrwt>
<rscale>  0 0.49665410E+04</rscale>
<asrwt>0</asrwt>
<pdfrwt beam="1">  1        2 0.53019638E+00 0.49665410E+04</pdfrwt>
<pdfrwt beam="2">  1       -2 0.27528629E+00 0.49665410E+04</pdfrwt>
<totfact> 0.29051297E-02</totfact>
</mgrwt>
</event>
<event>
 6    1  0.2436515E-005  0.1932680E+04  0.7818608E-02  0.8638758E-01
         -2   -1    0    0    0  501 -0.00000000000E+00  0.00000000000E+00  0.43459112435E+03  0.43459112435E+03  0.00000000000E+00 0. -1.
          2   -1    0    0  501    0  0.00000000000E+00 -0.00000000000E+00 -0.21487162607E+04  0.21487162607E+04  0.00000000000E+00 0.  1.
         23    2    1    2    0    0 -0.39038920201E+03 -0.73305921909E+03 -0.20409995263E+03  0.85995147196E+03  0.89889908899E+02 0.  0.
         13    1    3    3    0    0 -0.24476362604E+03 -0.54545150965E+03 -0.14255769645E+03  0.61461311312E+03  0.00000000000E+00 0. -1.
        -13    1    3    3    0    0 -0.14562557597E+03 -0.18760770944E+03 -0.61542256184E+02  0.24533835883E+03  0.00000000000E+00 0.  1.
         22    1    1    2    0    0  0.39038920201E+03  0.73305921909E+03 -0.15100251838E+04  0.17233559131E+04  0.00000000000E+00 0.  1.
<mgrwt>
<rscale>  0 0.19326800E+04</rscale>
<asrwt>0</asrwt>
<pdfrwt beam="1">  1        2 0.33057172E+00 0.19326800E+04</pdfrwt>
<pdfrwt beam="2">  1       -2 0.66860175E-01 0.19326800E+04</pdfrwt>
<totfact> 0.10588451E+01</totfact>
</mgrwt>
</event>
<event>
 6    1  0.2436515E-005  0.4589485E+04  0.7818608E-02  0.7895155E-01
         -2   -1    0    0    0  501 -0.00000000000E+00  0.00000000000E+00  0.15825187399E+04  0.15825187399E+04  0.00000000000E+00 0. -1.
          2   -1    0    0  501    0  0.00000000000E+00 -0.00000000000E+00 -0.33275077020E+04  0.33275077020E+04  0.00000000000E+00 0.  1.
         23    2    1    2    0    0  0.11068899364E+04  0.84451113156E+03  0.10775414935E+04  0.17627923299E+04  0.89088414015E+02 0.  0.
         13    1    3    3    0    0  0.25411712481E+03  0.16979061430E+03  0.19747561832E+03  0.36386946239E+03  0.00000000000E+00 0. -1.
        -13    1    3    3    0    0  0.85277281161E+03  0.67472051725E+03  0.88006587523E+03  0.13989228676E+04  0.00000000000E+00 0.  1.
         22    1    1    2    0    0 -0.11068899364E+04 -0.84451113156E+03 -0.28225304556E+04  0.31472341120E+04  0.00000000000E+00 0.  1.
<mgrwt>
<rscale>  0 0.45894851E+04</rscale>
<asrwt>0</asrwt>
<pdfrwt beam="1">  1        2 0.51192426E+00 0.45894851E+04</pdfrwt>
<pdfrwt beam="2">  1       -2 0.24346442E+00 0.45894851E+04</pdfrwt>
<totfact> 0.56549733E-02</totfact>
</mgrwt>
</event>
<event>
 6    1  0.2436515E-005  0.1752865E+04  0.7818608E-02  0.8731775E-01
         -1   -1    0    0    0  501 -0.00000000000E+00  0.00000000000E+00  0.10082794795E+04  0.10082794795E+04  0.00000000000E+00 0. -1.
          1   -1    0    0  501    0  0.00000000000E+00 -0.00000000000E+00 -0.76182677970E+03  0.76182677970E+03  0.00000000000E+00 0.  1.
         23    2    1    2    0    0 -0.16919818336E+03  0.63995554999E+03 -0.45277799383E+03  0.80724869231E+03  0.92040253870E+02 0.  0.
         13    1    3    3    0    0 -0.15077007817E+03  0.46575862262E+03 -0.29544191862E+03  0.57179422723E+03  0.00000000000E+00 0.  1.
        -13    1    3    3    0    0 -0.18428105192E+02  0.17419692737E+03 -0.15733607521E+03  0.23545446508E+03  0.00000000000E+00 0. -1.
         22    1    1    2    0    0  0.16919818336E+03 -0.63995554999E+03  0.69923069366E+03  0.96285756691E+03  0.00000000000E+00 0. -1.
<mgrwt>
<rscale>  0 0.17528654E+04</rscale>
<asrwt>0</asrwt>
<pdfrwt beam="1">  1        1 0.11720412E+00 0.17528654E+04</pdfrwt>
<pdfrwt beam="2">  1       -1 0.15511992E+00 0.17528654E+04</pdfrwt>
<totfact> 0.72104829E+00</totfact>
</mgrwt>
</event>
<event>
 6    1  0.2436515E-005  0.1517930E+04  0.7818608E-02  0.8872617E-01
         -2   -1    0    0    0  501 -0.00000000000E+00  0.00000000000E+00  0.18489790465E+03  0.18489790465E+03  0.00000000000E+00 0. -1.
          2   -1    0    0  501    0  0.00000000000E+00 -0.00000000000E+00 -0.31153814194E+04  0.31153814194E+04  0.00000000000E+00 0.  1.
         23    2    1    2    0    0  0.48761579820E+03 -0.33930903070E+03 -0.24878065521E+04  0.25594266543E+04  0.92647576018E+02 0.  0.
         13    1    3    3    0    0  0.26508416129E+03 -0.17325125406E+03 -0.11308577288E+04  0.11743614488E+04  0.00000000000E+00 0. -1.
        -13    1    3    3    0    0  0.22253163691E+03 -0.16605777664E+03 -0.13569488233E+04  0.13850652056E+04  0.00000000000E+00 0.  1.
         22    1    1    2    0    0 -0.48761579820E+03  0.33930903070E+03 -0.44267696268E+03  0.74085266974E+03  0.00000000000E+00 0. -1.
<mgrwt>
<rscale>  0 0.15179295E+04</rscale>
<asrwt>0</asrwt>
<pdfrwt beam="1">  1        2 0.47928942E+00 0.15179295E+04</pdfrwt>
<pdfrwt beam="2">  1       -2 0.28445833E-01 0.15179295E+04</pdfrwt>
<totfact> 0.16205171E+01</totfact>
</mgrwt>
</event>
<event>
 6    1  0.2436515E-005  0.1916796E+04  0.7818608E-02  0.8646541E-01
          2   -1    0    0  501    0  0.00000000000E+00  0.00000000000E+00  0.11871335519E+04  0.11871335519E+04  0.00000000000E+00 0.  1.
         -2   -1    0    0    0  501 -0.00000000000E+00 -0.00000000000E+00 -0.77373473100E+03  0.77373473100E+03  0.00000000000E+00 0. -1.
         23    2    1    2    0    0 -0.71423954361E+03  0.29512361955E+03 -0.36890664065E+03  0.86121474124E+03  0.91447496127E+02 0.  0.
         13    1    3    3    0    0 -0.32326917657E+03  0.16148059368E+03 -0.21387413193E+03  0.41990604540E+03  0.00000000000E+00 0.  1.
        -13    1    3    3    0    0 -0.39097036704E+03  0.13364302586E+03 -0.15503250872E+03  0.44130869584E+03  0.00000000000E+00 0. -1.
         22    1    1    2    0    0  0.71423954361E+03 -0.29512361955E+03  0.78230546152E+03  0.10996535416E+04  0.00000000000E+00 0.  1.
<mgrwt>
<rscale>  0 0.19167957E+04</rscale>
<asrwt>0</asrwt>
<pdfrwt beam="1">  1        2 0.18263593E+00 0.19167957E+04</pdfrwt>
<pdfrwt beam="2">  1       -2 0.11903611E+00 0.19167957E+04</pdfrwt>
<totfact> 0.97709734E+00</totfact>
</mgrwt>
</event>
<event>
 6    1  0.2436515E-005  0.3205135E+04  0.7818608E-02  0.8187462E-01
         -2   -1    0    0    0  501 -0.00000000000E+00  0.00000000000E+00  0.10422775052E+04  0.10422775052E+04  0.00000000000E+00 0. -1.
          2   -1    0    0  501    0  0.00000000000E+00 -0.00000000000E+00 -0.24640482794E+04  0.24640482794E+04  0.00000000000E+00 0.  1.
         23    2    1    2    0    0  0.23569821273E+03 -0.49253609215E+03  0.93538538818E+03  0.10867533796E+04  0.89115846575E+02 0.  0.
         13    1    3    3    0    0  0.18197104253E+03 -0.38275538296E+03  0.79266105381E+03  0.89884742294E+03  0.00000000000E+00 0.  1.
        -13    1    3    3    0    0  0.53727170198E+02 -0.10978070919E+03  0.14272433437E+03  0.18790595666E+03  0.00000000000E+00 0. -1.
         22    1    1    2    0    0 -0.23569821273E+03  0.49253609215E+03 -0.23571561623E+04  0.24195724050E+04  0.00000000000E+00 0. -1.
<mgrwt>
<rscale>  0 0.32051347E+04</rscale>
<asrwt>0</asrwt>
<pdfrwt beam="1">  1        2 0.37908435E+00 0.32051347E+04</pdfrwt>
<pdfrwt beam="2">  1       -2 0.16035039E+00 0.32051347E+04</pdfrwt>
<totfact> 0.76956089E-01</totfact>
</mgrwt>
</event>
<event>
 6    1  0.2436515E-005  0.1401634E+04  0.7818608E-02  0.8952637E-01
          2   -1    0    0  501    0  0.00000000000E+00  0.00000000000E+00  0.14817618918E+04  0.14817618918E+04  0.00000000000E+00 0.  1.
         -2   -1    0    0    0  501 -0.00000000000E+00 -0.00000000000E+00 -0.33145963232E+03  0.33145963232E+03  0.00000000000E+00 0. -1.
         23    2    1    2    0    0 -0.67822222195E+02  0.17867671118E+03  0.14458279402E+04  0.14612831078E+04  0.91676974592E+02 0.  0.
         11    1    3    3    0    0 -0.12474679677E+02 -0.13983478740E+01  0.24539492580E+02  0.27563738968E+02  0.00000000000E+00 0. -1.
        -11    1    3    3    0    0 -0.55347542517E+02  0.18007505906E+03  0.14212884476E+04  0.14337193689E+04  0.00000000000E+00 0.  1.
         22    1    1    2    0    0  0.67822222195E+02 -0.17867671118E+03 -0.29552568067E+03  0.35193841632E+03  0.00000000000E+00 0. -1.
<mgrwt>
<rscale>  0 0.14016337E+04</rscale>
<asrwt>0</asrwt>
<pdfrwt beam="1">  1        2 0.22796336E+00 0.14016337E+04</pdfrwt>
<pdfrwt beam="2">  1       -2 0.50993790E-01 0.14016337E+04</pdfrwt>
<totfact> 0.45972554E+01</totfact>
</mgrwt>
</event>
<event>
 6    1  0.2436515E-005  0.1032539E+04  0.7818608E-02  0.9273559E-01
          2   -1    0    0  501    0  0.00000000000E+00  0.00000000000E+00  0.10641717490E+04  0.10641717490E+04  0.00000000000E+00 0.  1.
         -2   -1    0    0    0  501 -0.00000000000E+00 -0.00000000000E+00 -0.25046168752E+03  0.25046168752E+03  0.00000000000E+00 0. -1.
         23    2    1    2    0    0  0.36718871101E+03  0.32009116668E+03  0.20778709104E+03  0.53718340558E+03  0.90025727168E+02 0.  0.
         11    1    3    3    0    0  0.14934085754E+03  0.78631277232E+02  0.52140559431E+02  0.17664712686E+03  0.00000000000E+00 0. -1.
        -11    1    3    3    0    0  0.21784785346E+03  0.24145988945E+03  0.15564653161E+03  0.36053627872E+03  0.00000000000E+00 0.  1.
         22    1    1    2    0    0 -0.36718871101E+03 -0.32009116668E+03  0.60592297044E+03  0.77745003093E+03  0.00000000000E+00 0. -1.
<mgrwt>
<rscale>  0 0.10325391E+04</rscale>
<asrwt>0</asrwt>
<pdfrwt beam="1">  1        2 0.16371873E+00 0.10325391E+04</pdfrwt>
<pdfrwt beam="2">  1       -2 0.38532568E-01 0.10325391E+04</pdfrwt>
<totfact> 0.14528383E+02</totfact>
</mgrwt>
</event>
<event>
 6    1  0.2436515E-005  0.4133032E+04  0.7818608E-02  0.7978235E-01
         -2   -1    0    0    0  501 -0.00000000000E+00  0.00000000000E+00  0.10820677303E+04  0.10820677303E+04  0.00000000000E+00 0. -1.
          2   -1    0    0  501    0  0.00000000000E+00 -0.00000000000E+00 -0.39465993367E+04  0.39465993367E+04  0.00000000000E+00 0.  1.
         23    2    1    2    0    0 -0.79676336573E+03  0.18800980611E+04 -0.10502133491E+04  0.22971196450E+04  0.64884545699E+02 0.  0.
         13    1    3    3    0    0 -0.45004870355E+03  0.10599344066E+04 -0.55601140441E+03  0.12787311929E+04  0.00000000000E+00 0.  1.
        -13    1    3    3    0    0 -0.34671466218E+03  0.82016365450E+03 -0.49420194473E+03  0.10183884521E+04  0.00000000000E+00 0. -1.
         22    1    1    2    0    0  0.79676336573E+03 -0.18800980611E+04 -0.18143182572E+04  0.27315474220E+04  0.00000000000E+00 0.  1.
<mgrwt>
<rscale>  0 0.41330317E+04</rscale>
<asrwt>0</asrwt>
<pdfrwt beam="1">  1        2 0.60716914E+00 0.41330317E+04</pdfrwt>
<pdfrwt beam="2">  1       -2 0.16647196E+00 0.41330317E+04</pdfrwt>
<totfact> 0.66346502E-02</totfact>
</mgrwt>
</event>
<event>
 6    1  0.2436515E-005  0.4663541E+04  0.7818608E-02  0.7882615E-01
          2   -1    0    0  501    0  0.00000000000E+00  0.00000000000E+00  0.15104596076E+04  0.15104596076E+04  0.00000000000E+00 0.  1.
         -2   -1    0    0    0  501 -0.00000000000E+00 -0.00000000000E+00 -0.35996683141E+04  0.35996683141E+04  0.00000000000E+00 0. -1.
         23    2    1    2    0    0 -0.72326604532E+03 -0.17471656594E+04  0.44837274712E+03  0.19454760850E+04  0.90207888946E+02 0.  0.
         11    1    3    3    0    0 -0.24161822687E+03 -0.54074841700E+03  0.10102141626E+03  0.60082738336E+03  0.00000000000E+00 0.  1.
        -11    1    3    3    0    0 -0.48164781845E+03 -0.12064172424E+04  0.34735133086E+03  0.13446487017E+04  0.00000000000E+00 0. -1.
         22    1    1    2    0    0  0.72326604532E+03  0.17471656594E+04 -0.25375814536E+04  0.31646518367E+04  0.00000000000E+00 0. -1.
<mgrwt>
<rscale>  0 0.46635410E+04</rscale>
<asrwt>0</asrwt>
<pdfrwt beam="1">  1        2 0.23237840E+00 0.46635410E+04</pdfrwt>
<pdfrwt beam="2">  1       -2 0.55379512E+00 0.46635410E+04</pdfrwt>
<totfact> 0.76996214E-03</totfact>
</mgrwt>
</event>
<event>
 6    1  0.2436515E-005  0.1996643E+04  0.7818608E-02  0.8608192E-01
          2   -1    0    0  501    0  0.00000000000E+00  0.00000000000E+00  0.13056459930E+04  0.13056459930E+04  0.00000000000E+00 0.  1.
         -2   -1    0    0    0  501 -0.00000000000E+00 -0.00000000000E+00 -0.76333524846E+03  0.76333524846E+03  0.00000000000E+00 0. -1.
         23    2    1    2    0    0  0.96217007333E+02  0.85862008027E+03  0.78590719945E+03  0.11713034665E+04  0.88405485061E+02 0.  0.
         13    1    3    3    0    0  0.10745847343E+03  0.62281191896E+03  0.58812576746E+03  0.86332724286E+03  0.00000000000E+00 0. -1.
        -13    1    3    3    0    0 -0.11241466098E+02  0.23580816131E+03  0.19778143199E+03  0.30797622366E+03  0.00000000000E+00 0.  1.
         22    1    1    2    0    0 -0.96217007333E+02 -0.85862008027E+03 -0.24359645493E+03  0.89767777492E+03  0.00000000000E+00 0.  1.
<mgrwt>
<rscale>  0 0.19966428E+04</rscale>
<asrwt>0</asrwt>
<pdfrwt beam="1">  1        2 0.20086861E+00 0.19966428E+04</pdfrwt>
<pdfrwt beam="2">  1       -2 0.11743619E+00 0.19966428E+04</pdfrwt>
<totfact> 0.85418614E+00</totfact>
</mgrwt>
</event>
<event>
 6    1  0.2436515E-005  0.3111977E+04  0.7818608E-02  0.8212459E-01
          2   -1    0    0  501    0  0.00000000000E+00  0.00000000000E+00  0.16761316114E+04  0.16761316114E+04  0.00000000000E+00 0.  1.
         -2   -1    0    0    0  501 -0.00000000000E+00 -0.00000000000E+00 -0.14444574616E+04  0.14444574616E+04  0.00000000000E+00 0. -1.
         23    2    1    2    0    0  0.30464864654E+03  0.14413528791E+04  0.61399788717E+03  0.15985902687E+04  0.90490451821E+02 0.  0.
         11    1    3    3    0    0  0.86929741849E+02  0.29677707707E+03  0.15975757286E+03  0.34807455462E+03  0.00000000000E+00 0. -1.
        -11    1    3    3    0    0  0.21771890469E+03  0.11445758020E+04  0.45424031431E+03  0.12505157141E+04  0.00000000000E+00 0.  1.
         22    1    1    2    0    0 -0.30464864654E+03 -0.14413528791E+04 -0.38232373732E+03  0.15219988042E+04  0.00000000000E+00 0.  1.
<mgrwt>
<rscale>  0 0.31119774E+04</rscale>
<asrwt>0</asrwt>
<pdfrwt beam="1">  1        2 0.25786640E+00 0.31119774E+04</pdfrwt>
<pdfrwt beam="2">  1       -2 0.22222423E+00 0.31119774E+04</pdfrwt>
<totfact> 0.82070360E-01</totfact>
</mgrwt>
</event>
<event>
 6    1  0.2436515E-005  0.3015882E+04  0.7818608E-02  0.8239210E-01
          2   -1    0    0  501    0  0.00000000000E+00  0.00000000000E+00  0.13788064357E+04  0.13788064357E+04  0.00000000000E+00 0.  1.
         -2   -1    0    0    0  501 -0.00000000000E+00 -0.00000000000E+00 -0.16491701386E+04  0.16491701386E+04  0.00000000000E+00 0. -1.
         23    2    1    2    0    0  0.81827337229E+03 -0.58273294979E+03  0.99193644357E+03  0.14147342916E+04  0.91576226431E+02 0.  0.
         13    1    3    3    0    0  0.33649015731E+03 -0.19099079257E+03  0.40950651786E+03  0.56338148441E+03  0.00000000000E+00 0.  1.
        -13    1    3    3    0    0  0.48178321498E+03 -0.39174215722E+03  0.58242992571E+03  0.85135280722E+03  0.00000000000E+00 0. -1.
         22    1    1    2    0    0 -0.81827337229E+03  0.58273294979E+03 -0.12623001465E+04  0.16132422827E+04  0.00000000000E+00 0. -1.
<mgrwt>
<rscale>  0 0.30158822E+04</rscale>
<asrwt>0</asrwt>
<pdfrwt beam="1">  1        2 0.21212407E+00 0.30158822E+04</pdfrwt>
<pdfrwt beam="2">  1       -2 0.25371848E+00 0.30158822E+04</pdfrwt>
<totfact> 0.77564613E-01</totfact>
</mgrwt>
</event>
<event>
 6    1  0.2436515E-005  0.4884847E+04  0.7818608E-02  0.7846520E-01
          2   -1    0    0  501    0  0.00000000000E+00  0.00000000000E+00  0.14092039501E+04  0.14092039501E+04  0.00000000000E+00 0.  1.
         -2   -1    0    0    0  501 -0.00000000000E+00 -0.00000000000E+00 -0.42331939228E+04  0.42331939228E+04  0.00000000000E+00 0. -1.
         23    2    1    2    0    0 -0.14147138833E+04  0.65075396120E+03  0.75968788620E+03  0.17350147223E+04  0.90853246289E+02 0.  0.
         11    1    3    3    0    0 -0.13287703547E+04  0.60766453818E+03  0.68749580981E+03  0.16147870866E+04  0.00000000000E+00 0. -1.
        -11    1    3    3    0    0 -0.85943528612E+02  0.43089423019E+02  0.72192076388E+02  0.12022763567E+03  0.00000000000E+00 0.  1.
         22    1    1    2    0    0  0.14147138833E+04 -0.65075396120E+03 -0.35836778588E+04  0.39073831506E+04  0.00000000000E+00 0. -1.
<mgrwt>
<rscale>  0 0.48848474E+04</rscale>
<asrwt>0</asrwt>
<pdfrwt beam="1">  1        2 0.21680061E+00 0.48848474E+04</pdfrwt>
<pdfrwt beam="2">  1       -2 0.65126059E+00 0.48848474E+04</pdfrwt>
<totfact> 0.35262208E-03</totfact>
</mgrwt>
</event>
<event>
 6    1  0.2436515E-005  0.4638498E+04  0.7818608E-02  0.7886829E-01
          2   -1    0    0  501    0  0.00000000000E+00  0.00000000000E+00  0.10126208658E+04  0.10126208658E+04  0.00000000000E+00 0.  1.
         -2   -1    0    0    0  501 -0.00000000000E+00 -0.00000000000E+00 -0.53118745616E+04  0.53118745616E+04  0.00000000000E+00 0. -1.
         23    2    1    2    0    0  0.96615139210E+03  0.84028241029E+03 -0.47856349510E+04  0.49547911649E+04  0.90169630139E+02 0.  0.
         11    1    3    3    0    0  0.49101547704E+03  0.47598509920E+03 -0.26505660383E+04  0.27373633915E+04  0.00000000000E+00 0. -1.
        -11    1    3    3    0    0  0.47513591506E+03  0.36429731109E+03 -0.21350689126E+04  0.22174277734E+04  0.00000000000E+00 0.  1.
         22    1    1    2    0    0 -0.96615139210E+03 -0.84028241029E+03  0.48638125510E+03  0.13697042625E+04  0.00000000000E+00 0.  1.
<mgrwt>
<rscale>  0 0.46384976E+04</rscale>
<asrwt>0</asrwt>
<pdfrwt beam="1">  1        2 0.15578782E+00 0.46384976E+04</pdfrwt>
<pdfrwt beam="2">  1       -2 0.81721148E+00 0.46384976E+04</pdfrwt>
<totfact> 0.11086439E-03</totfact>
</mgrwt>
</event>
<event>
 6    1  0.2436515E-005  0.4310287E+04  0.7818608E-02  0.7944719E-01
         -2   -1    0    0    0  501 -0.00000000000E+00  0.00000000000E+00  0.14438556177E+04  0.14438556177E+04  0.00000000000E+00 0. -1.
          2   -1    0    0  501    0  0.00000000000E+00 -0.00000000000E+00 -0.32168336306E+04  0.32168336306E+04  0.00000000000E+00 0.  1.
         23    2    1    2    0    0  0.82707247459E+03 -0.13021816086E+04  0.73888419860E+03  0.17129481489E+04  0.92280452089E+02 0.  0.
         11    1    3    3    0    0  0.42558932478E+03 -0.60145260233E+03  0.32174843507E+03  0.80398604570E+03  0.00000000000E+00 0.  1.
        -11    1    3    3    0    0  0.40148314981E+03 -0.70072900629E+03  0.41713576353E+03  0.90896210320E+03  0.00000000000E+00 0. -1.
         22    1    1    2    0    0 -0.82707247459E+03  0.13021816086E+04 -0.25118622115E+04  0.29477410995E+04  0.00000000000E+00 0.  1.
<mgrwt>
<rscale>  0 0.43102869E+04</rscale>
<asrwt>0</asrwt>
<pdfrwt beam="1">  1        2 0.49489748E+00 0.43102869E+04</pdfrwt>
<pdfrwt beam="2">  1       -2 0.22213164E+00 0.43102869E+04</pdfrwt>
<totfact> 0.93103824E-02</totfact>
</mgrwt>
</event>
<event>
 6    1  0.2436515E-005  0.4239369E+04  0.7818608E-02  0.7957925E-01
          2   -1    0    0  501    0  0.00000000000E+00  0.00000000000E+00  0.28884722417E+04  0.28884722417E+04  0.00000000000E+00 0.  1.
         -2   -1    0    0    0  501 -0.00000000000E+00 -0.00000000000E+00 -0.15555153262E+04  0.15555153262E+04  0.00000000000E+00 0. -1.
         23    2    1    2    0    0 -0.20152977186E+04  0.55858720384E+03  0.31060740696E+03  0.21161896650E+04  0.91308148539E+02 0.  0.
         13    1    3    3    0    0 -0.29664310720E+03  0.11537993576E+03  0.54546792948E+02  0.32293190497E+03  0.00000000000E+00 0. -1.
        -13    1    3    3    0    0 -0.17186546115E+04  0.44320726807E+03  0.25606061401E+03  0.17932577601E+04  0.00000000000E+00 0.  1.
         22    1    1    2    0    0  0.20152977186E+04 -0.55858720384E+03  0.10223495086E+04  0.23277979029E+04  0.00000000000E+00 0.  1.
<mgrwt>
<rscale>  0 0.42393692E+04</rscale>
<asrwt>0</asrwt>
<pdfrwt beam="1">  1        2 0.44438034E+00 0.42393692E+04</pdfrwt>
<pdfrwt beam="2">  1       -2 0.23931005E+00 0.42393692E+04</pdfrwt>
<totfact> 0.11817030E-01</totfact>
</mgrwt>
</event>
<event>
 6    1  0.2436515E-005  0.2810045E+04  0.7818608E-02  0.8300157E-01
         -2   -1    0    0    0  501 -0.00000000000E+00  0.00000000000E+00  0.89252761890E+03  0.89252761890E+03  0.00000000000E+00 0. -1.
          2   -1    0    0  501    0  0.00000000000E+00 -0.00000000000E+00 -0.22117953517E+04  0.22117953517E+04  0.00000000000E+00 0.  1.
         23    2    1    2    0    0 -0.83395253624E+03 -0.36984291829E+03 -0.18386439017E+04  0.20545552716E+04  0.91243357108E+02 0.  0.
         11    1    3    3    0    0 -0.37754941377E+03 -0.11823308331E+03 -0.78372147879E+03  0.87791911822E+03  0.00000000000E+00 0. -1.
        -11    1    3    3    0    0 -0.45640312247E+03 -0.25160983498E+03 -0.10549224229E+04  0.11766361534E+04  0.00000000000E+00 0.  1.
         22    1    1    2    0    0  0.83395253624E+03  0.36984291829E+03  0.51937616889E+03  0.10497676989E+04  0.00000000000E+00 0. -1.
<mgrwt>
<rscale>  0 0.28100452E+04</rscale>
<asrwt>0</asrwt>
<pdfrwt beam="1">  1        2 0.34027621E+00 0.28100452E+04</pdfrwt>
<pdfrwt beam="2">  1       -2 0.13731194E+00 0.28100452E+04</pdfrwt>
<totfact> 0.16698307E+00</totfact>
</mgrwt>
</event>
<event>
 6    1  0.2436515E-005  0.2613187E+04  0.7818608E-02  0.8363736E-01
          2   -1    0    0  501    0  0.00000000000E+00  0.00000000000E+00  0.61787429481E+03  0.61787429481E+03  0.00000000000E+00 0.  1.
         -2   -1    0    0    0  501 -0.00000000000E+00 -0.00000000000E+00 -0.27629994409E+04  0.27629994409E+04  0.00000000000E+00 0. -1.
         23    2    1    2    0    0 -0.24494237928E+03  0.86197994744E+03 -0.23013006894E+04  0.24712600818E+04  0.90196063487E+02 0.  0.
         11    1    3    3    0    0 -0.17152808542E+03  0.55223672506E+03 -0.13692265088E+04  0.14863271904E+04  0.00000000000E+00 0. -1.
        -11    1    3    3    0    0 -0.73414293857E+02  0.30974322237E+03 -0.93207418067E+03  0.98493289143E+03  0.00000000000E+00 0.  1.
         22    1    1    2    0    0  0.24494237928E+03 -0.86197994744E+03  0.15617554337E+03  0.90961365386E+03  0.00000000000E+00 0.  1.
<mgrwt>
<rscale>  0 0.26131868E+04</rscale>
<asrwt>0</asrwt>
<pdfrwt beam="1">  1        2 0.95057585E-01 0.26131868E+04</pdfrwt>
<pdfrwt beam="2">  1       -2 0.42507683E+00 0.26131868E+04</pdfrwt>
<totfact> 0.21451410E-01</totfact>
</mgrwt>
</event>
<event>
 6    1  0.2436515E-005  0.1720456E+04  0.7818608E-02  0.8749783E-01
         -2   -1    0    0    0  501 -0.00000000000E+00  0.00000000000E+00  0.97914803211E+03  0.97914803211E+03  0.00000000000E+00 0. -1.
          2   -1    0    0  501    0  0.00000000000E+00 -0.00000000000E+00 -0.75575142945E+03  0.75575142945E+03  0.00000000000E+00 0.  1.
         23    2    1    2    0    0  0.78933882392E+02 -0.11848363391E+03  0.96526309488E+03  0.97949571417E+03  0.86081835700E+02 0.  0.
         13    1    3    3    0    0  0.63057796042E+02 -0.13106992549E+03  0.81564576007E+03  0.82851289484E+03  0.00000000000E+00 0.  1.
        -13    1    3    3    0    0  0.15876086349E+02  0.12586291577E+02  0.14961733482E+03  0.15098281932E+03  0.00000000000E+00 0. -1.
         22    1    1    2    0    0 -0.78933882392E+02  0.11848363391E+03 -0.74186649222E+03  0.75540374739E+03  0.00000000000E+00 0.  1.
<mgrwt>
<rscale>  0 0.17204564E+04</rscale>
<asrwt>0</asrwt>
<pdfrwt beam="1">  1        2 0.11626945E+00 0.17204564E+04</pdfrwt>
<pdfrwt beam="2">  1       -2 0.15063816E+00 0.17204564E+04</pdfrwt>
<totfact> 0.10445195E+01</totfact>
</mgrwt>
</event>
<event>
 6    1  0.2436515E-005  0.2349336E+04  0.7818608E-02  0.8458719E-01
         -2   -1    0    0    0  501 -0.00000000000E+00  0.00000000000E+00  0.48865689288E+03  0.48865689288E+03  0.00000000000E+00 0. -1.
          2   -1    0    0  501    0  0.00000000000E+00 -0.00000000000E+00 -0.28237497253E+04  0.28237497253E+04  0.00000000000E+00 0.  1.
         23    2    1    2    0    0 -0.11557576582E+04  0.30287914585E+02 -0.14474389011E+04  0.18547980892E+04  0.92214190551E+02 0.  0.
         13    1    3    3    0    0 -0.91486368504E+02 -0.20793478785E+02 -0.13268491983E+03  0.16250357637E+03  0.00000000000E+00 0.  1.
        -13    1    3    3    0    0 -0.10642712897E+04  0.51081393370E+02 -0.13147539813E+04  0.16922945128E+04  0.00000000000E+00 0. -1.
         22    1    1    2    0    0  0.11557576582E+04 -0.30287914585E+02 -0.88765393133E+03  0.14576085291E+04  0.00000000000E+00 0. -1.
<mgrwt>
<rscale>  0 0.23493359E+04</rscale>
<asrwt>0</asrwt>
<pdfrwt beam="1">  1        2 0.43442303E+00 0.23493359E+04</pdfrwt>
<pdfrwt beam="2">  1       -2 0.75177985E-01 0.23493359E+04</pdfrwt>
<totfact> 0.32093566E+00</totfact>
</mgrwt>
</event>
<event>
 6    1  0.2436515E-005  0.1251780E+04  0.7818608E-02  0.9068703E-01
         -2   -1    0    0    0  501 -0.00000000000E+00  0.00000000000E+00  0.99161730105E+03  0.99161730105E+03  0.00000000000E+00 0. -1.
          2   -1    0    0  501    0  0.00000000000E+00 -0.00000000000E+00 -0.39505012443E+03  0.39505012443E+03  0.00000000000E+00 0.  1.
         23    2    1    2    0    0  0.19030282694E+03 -0.58674935235E+03  0.37378710284E+03  0.73083137150E+03  0.11793102602E+03 0.  0.
         13    1    3    3    0    0  0.85201321300E+02 -0.11062890819E+03  0.68196136324E+02  0.15539862769E+03  0.00000000000E+00 0. -1.
        -13    1    3    3    0    0  0.10510150564E+03 -0.47612044416E+03  0.30559096651E+03  0.57543274381E+03  0.00000000000E+00 0.  1.
         22    1    1    2    0    0 -0.19030282694E+03  0.58674935235E+03  0.22278007378E+03  0.65583605398E+03  0.00000000000E+00 0. -1.
<mgrwt>
<rscale>  0 0.12517804E+04</rscale>
<asrwt>0</asrwt>
<pdfrwt beam="1">  1        2 0.60776942E-01 0.12517804E+04</pdfrwt>
<pdfrwt beam="2">  1       -2 0.15255651E+00 0.12517804E+04</pdfrwt>
<totfact> 0.22692033E+01</totfact>
</mgrwt>
</event>
<event>
 6    1  0.2436515E-005  0.2630668E+04  0.7818608E-02  0.8357858E-01
          2   -1    0    0  501    0  0.00000000000E+00  0.00000000000E+00  0.13378736250E+04  0.13378736250E+04  0.00000000000E+00 0.  1.
         -2   -1    0    0    0  501 -0.00000000000E+00 -0.00000000000E+00 -0.12931739090E+04  0.12931739090E+04  0.00000000000E+00 0. -1.
         23    2    1    2    0    0 -0.54650741319E+03  0.35531822804E+03  0.11632035442E+04  0.13364540806E+04  0.90253135648E+02 0.  0.
         11    1    3    3    0    0 -0.25296689977E+03  0.14666079943E+03  0.43627225098E+03  0.52520007563E+03  0.00000000000E+00 0. -1.
        -11    1    3    3    0    0 -0.29354051342E+03  0.20865742861E+03  0.72693129323E+03  0.81125400499E+03  0.00000000000E+00 0.  1.
         22    1    1    2    0    0  0.54650741319E+03 -0.35531822804E+03 -0.11185038282E+04  0.12945934534E+04  0.00000000000E+00 0. -1.
<mgrwt>
<rscale>  0 0.26306678E+04</rscale>
<asrwt>0</asrwt>
<pdfrwt beam="1">  1        2 0.20582671E+00 0.26306678E+04</pdfrwt>
<pdfrwt beam="2">  1       -2 0.19894983E+00 0.26306678E+04</pdfrwt>
<totfact> 0.18736880E+00</totfact>
</mgrwt>
</event>
<event>
 6    1  0.2467850E-005  0.2541625E+04  0.7818608E-02  0.8388305E-01
          1   -1    0    0  501    0  0.00000000000E+00  0.00000000000E+00  0.15845972069E+04  0.15845972069E+04  0.00000000000E+00 0.  1.
         -1   -1    0    0    0  501 -0.00000000000E+00 -0.00000000000E+00 -0.10191637248E+04  0.10191637248E+04  0.00000000000E+00 0. -1.
         23    2    1    2    0    0 -0.63749903929E+03  0.98648133545E+03  0.77554459183E+03  0.14105731305E+04  0.93256058031E+02 0.  0.
         13    1    3    3    0    0 -0.33132483806E+03  0.43976542825E+03  0.39205719063E+03  0.67592797022E+03  0.00000000000E+00 0.  1.
        -13    1    3    3    0    0 -0.30617420123E+03  0.54671590720E+03  0.38348740120E+03  0.73464516031E+03  0.00000000000E+00 0. -1.
         22    1    1    2    0    0  0.63749903929E+03 -0.98648133545E+03 -0.21011110970E+03  0.11931878011E+04  0.00000000000E+00 0.  1.
<mgrwt>
<rscale>  0 0.25416247E+04</rscale>
<asrwt>0</asrwt>
<pdfrwt beam="1">  1        1 0.24378419E+00 0.25416247E+04</pdfrwt>
<pdfrwt beam="2">  1       -1 0.15679442E+00 0.25416247E+04</pdfrwt>
<totfact> 0.15648465E+00</totfact>
</mgrwt>
</event>
<event>
 6    1  0.2436515E-005  0.2608730E+04  0.7818608E-02  0.8365242E-01
          2   -1    0    0  501    0  0.00000000000E+00  0.00000000000E+00  0.16409643858E+04  0.16409643858E+04  0.00000000000E+00 0.  1.
         -2   -1    0    0    0  501 -0.00000000000E+00 -0.00000000000E+00 -0.10368102300E+04  0.10368102300E+04  0.00000000000E+00 0. -1.
         23    2    1    2    0    0  0.71434448598E+03 -0.39871623746E+03 -0.73831598647E+03  0.11056776832E+04  0.90277131805E+02 0.  0.
         13    1    3    3    0    0  0.40273463178E+03 -0.27191574897E+03 -0.41383707471E+03  0.63827461377E+03  0.00000000000E+00 0. -1.
        -13    1    3    3    0    0  0.31160985419E+03 -0.12680048849E+03 -0.32447891176E+03  0.46740306940E+03  0.00000000000E+00 0.  1.
         22    1    1    2    0    0 -0.71434448598E+03  0.39871623746E+03  0.13424701423E+04  0.15720969326E+04  0.00000000000E+00 0.  1.
<mgrwt>
<rscale>  0 0.26087305E+04</rscale>
<asrwt>0</asrwt>
<pdfrwt beam="1">  1        2 0.25245606E+00 0.26087305E+04</pdfrwt>
<pdfrwt beam="2">  1       -2 0.15950927E+00 0.26087305E+04</pdfrwt>
<totfact> 0.23756396E+00</totfact>
</mgrwt>
</event>
<event>
 6    1  0.2436515E-005  0.1949563E+04  0.7818608E-02  0.8630571E-01
          2   -1    0    0  501    0  0.00000000000E+00  0.00000000000E+00  0.20786133209E+04  0.20786133209E+04  0.00000000000E+00 0.  1.
         -2   -1    0    0    0  501 -0.00000000000E+00 -0.00000000000E+00 -0.45713130531E+03  0.45713130531E+03  0.00000000000E+00 0. -1.
         23    2    1    2    0    0  0.96715215793E+03 -0.30341145108E+02  0.68271796373E+03  0.11875674024E+04  0.88930510191E+02 0.  0.
         11    1    3    3    0    0  0.85176966988E+03 -0.37996008391E+02  0.63193582384E+03  0.10612719504E+04  0.00000000000E+00 0.  1.
        -11    1    3    3    0    0  0.11538248805E+03  0.76548632828E+01  0.50782139887E+02  0.12629545206E+03  0.00000000000E+00 0. -1.
         22    1    1    2    0    0 -0.96715215793E+03  0.30341145108E+02  0.93876405186E+03  0.13481772238E+04  0.00000000000E+00 0. -1.
<mgrwt>
<rscale>  0 0.19495633E+04</rscale>
<asrwt>0</asrwt>
<pdfrwt beam="1">  1        2 0.31978666E+00 0.19495633E+04</pdfrwt>
<pdfrwt beam="2">  1       -2 0.70327894E-01 0.19495633E+04</pdfrwt>
<totfact> 0.10366699E+01</totfact>
</mgrwt>
</event>
<event>
 6    1  0.2436515E-005  0.1698561E+04  0.7818608E-02  0.8762185E-01
         -2   -1    0    0    0  501 -0.00000000000E+00  0.00000000000E+00  0.43992912853E+03  0.43992912853E+03  0.00000000000E+00 0. -1.
          2   -1    0    0  501    0  0.00000000000E+00 -0.00000000000E+00 -0.16395308303E+04  0.16395308303E+04  0.00000000000E+00 0.  1.
         23    2    1    2    0    0 -0.65466767498E+02  0.76756292826E+03 -0.17105336552E+03  0.79441115568E+03  0.91602859795E+02 0.  0.
         13    1    3    3    0    0 -0.56216389079E+02  0.41410388908E+03 -0.13417192765E+03  0.43891276983E+03  0.00000000000E+00 0. -1.
        -13    1    3    3    0    0 -0.92503784185E+01  0.35345903919E+03 -0.36881437872E+02  0.35549838585E+03  0.00000000000E+00 0.  1.
         22    1    1    2    0    0  0.65466767498E+02 -0.76756292826E+03 -0.10285483362E+04  0.12850488031E+04  0.00000000000E+00 0.  1.
<mgrwt>
<rscale>  0 0.16985610E+04</rscale>
<asrwt>0</asrwt>
<pdfrwt beam="1">  1        2 0.25223551E+00 0.16985610E+04</pdfrwt>
<pdfrwt beam="2">  1       -2 0.67681404E-01 0.16985610E+04</pdfrwt>
<totfact> 0.20174978E+01</totfact>
</mgrwt>
</event>
<event>
 6    1  0.2436515E-005  0.6477865E+04  0.7818608E-02  0.7633820E-01
         -2   -1    0    0    0  501 -0.00000000000E+00  0.00000000000E+00  0.21503616230E+04  0.21503616230E+04  0.00000000000E+00 0. -1.
          2   -1    0    0  501    0  0.00000000000E+00 -0.00000000000E+00 -0.48785673799E+04  0.48785673799E+04  0.00000000000E+00 0.  1.
         23    2    1    2    0    0 -0.17049200558E+04 -0.17489454639E+04  0.94263416651E+03  0.26197762072E+04  0.95423117410E+02 0.  0.
         13    1    3    3    0    0 -0.16528670734E+04 -0.16993874491E+04  0.89709855127E+03  0.25346938819E+04  0.00000000000E+00 0.  1.
        -13    1    3    3    0    0 -0.52052982382E+02 -0.49558014834E+02  0.45535615247E+02  0.85082325221E+02  0.00000000000E+00 0. -1.
         22    1    1    2    0    0  0.17049200558E+04  0.17489454639E+04 -0.36708399234E+04  0.44091527957E+04  0.00000000000E+00 0.  1.
<mgrwt>
<rscale>  0 0.64778651E+04</rscale>
<asrwt>0</asrwt>
<pdfrwt beam="1">  1        2 0.75054882E+00 0.64778651E+04</pdfrwt>
<pdfrwt beam="2">  1       -2 0.33082487E+00 0.64778651E+04</pdfrwt>
<totfact> 0.63013912E-04</totfact>
</mgrwt>
</event>
<event>
 6    1  0.2436515E-005  0.4111088E+04  0.7818608E-02  0.7982504E-01
         -2   -1    0    0    0  501 -0.00000000000E+00  0.00000000000E+00  0.11131682508E+04  0.11131682508E+04  0.00000000000E+00 0. -1.
          2   -1    0    0  501    0  0.00000000000E+00 -0.00000000000E+00 -0.37957070462E+04  0.37957070462E+04  0.00000000000E+00 0.  1.
         23    2    1    2    0    0  0.68869364498E+03 -0.12963415956E+04  0.37388816216E+03  0.15182195764E+04  0.10196987424E+03 0.  0.
         11    1    3    3    0    0  0.22784353071E+03 -0.39028440937E+03  0.16020037911E+03  0.47947758670E+03  0.00000000000E+00 0. -1.
        -11    1    3    3    0    0  0.46085011427E+03 -0.90605718623E+03  0.21368778305E+03  0.10387419897E+04  0.00000000000E+00 0.  1.
         22    1    1    2    0    0 -0.68869364498E+03  0.12963415956E+04 -0.30564269575E+04  0.33906557206E+04  0.00000000000E+00 0.  1.
<mgrwt>
<rscale>  0 0.41110877E+04</rscale>
<asrwt>0</asrwt>
<pdfrwt beam="1">  1        2 0.58395492E+00 0.41110877E+04</pdfrwt>
<pdfrwt beam="2">  1       -2 0.17125666E+00 0.41110877E+04</pdfrwt>
<totfact> 0.80545581E-02</totfact>
</mgrwt>
</event>
<event>
 6    1  0.2436515E-005  0.2841010E+04  0.7818608E-02  0.8290648E-01
         -2   -1    0    0    0  501 -0.00000000000E+00  0.00000000000E+00  0.80145082395E+03  0.80145082395E+03  0.00000000000E+00 0. -1.
          2   -1    0    0  501    0  0.00000000000E+00 -0.00000000000E+00 -0.25177268244E+04  0.25177268244E+04  0.00000000000E+00 0.  1.
         23    2    1    2    0    0  0.12797507511E+04 -0.50493572709E+03 -0.12653667995E+04  0.18714065405E+04  0.91034218557E+02 0.  0.
         13    1    3    3    0    0  0.72203579101E+03 -0.24391286121E+03 -0.73292634505E+03  0.10573600118E+04  0.00000000000E+00 0. -1.
        -13    1    3    3    0    0  0.55771496010E+03 -0.26102286588E+03 -0.53244045445E+03  0.81404652862E+03  0.00000000000E+00 0.  1.
         22    1    1    2    0    0 -0.12797507511E+04  0.50493572709E+03 -0.45090920100E+03  0.14477711079E+04  0.00000000000E+00 0.  1.
<mgrwt>
<rscale>  0 0.28410098E+04</rscale>
<asrwt>0</asrwt>
<pdfrwt beam="1">  1        2 0.38734257E+00 0.28410098E+04</pdfrwt>
<pdfrwt beam="2">  1       -2 0.12330013E+00 0.28410098E+04</pdfrwt>
<totfact> 0.14626723E+00</totfact>
</mgrwt>
</event>
<event>
 6    1  0.2436515E-005  0.1575652E+04  0.7818608E-02  0.8835647E-01
         -2   -1    0    0    0  501 -0.00000000000E+00  0.00000000000E+00  0.71329527843E+03  0.71329527843E+03  0.00000000000E+00 0. -1.
          2   -1    0    0  501    0  0.00000000000E+00 -0.00000000000E+00 -0.87014393929E+03  0.87014393929E+03  0.00000000000E+00 0.  1.
         23    2    1    2    0    0  0.29392899806E+03 -0.71858172820E+03  0.38041624815E+02  0.78297923780E+03  0.94102952137E+02 0.  0.
         13    1    3    3    0    0  0.21189370200E+03 -0.40024949561E+03  0.90200464192E+01  0.45296794690E+03  0.00000000000E+00 0. -1.
        -13    1    3    3    0    0  0.82035296054E+02 -0.31833223259E+03  0.29021578396E+02  0.33001129090E+03  0.00000000000E+00 0.  1.
         22    1    1    2    0    0 -0.29392899806E+03  0.71858172820E+03 -0.19489028567E+03  0.80045997992E+03  0.00000000000E+00 0.  1.
<mgrwt>
<rscale>  0 0.15756517E+04</rscale>
<asrwt>0</asrwt>
<pdfrwt beam="1">  1        2 0.13386830E+00 0.15756517E+04</pdfrwt>
<pdfrwt beam="2">  1       -2 0.10973774E+00 0.15756517E+04</pdfrwt>
<totfact> 0.19513334E+01</totfact>
</mgrwt>
</event>
<event>
 6    1  0.2436515E-005  0.1796673E+04  0.7818608E-02  0.8708071E-01
          2   -1    0    0  501    0  0.00000000000E+00  0.00000000000E+00  0.12013841708E+04  0.12013841708E+04  0.00000000000E+00 0.  1.
         -2   -1    0    0    0  501 -0.00000000000E+00 -0.00000000000E+00 -0.67173208006E+03  0.67173208006E+03  0.00000000000E+00 0. -1.
         23    2    1    2    0    0  0.68463468568E+03  0.30594789190E+03  0.77667905585E+03  0.10835903888E+04  0.92784748053E+02 0.  0.
         13    1    3    3    0    0  0.23833442113E+03  0.58964137695E+02  0.25153277732E+03  0.35149509797E+03  0.00000000000E+00 0.  1.
        -13    1    3    3    0    0  0.44630026455E+03  0.24698375420E+03  0.52514627852E+03  0.73209529081E+03  0.00000000000E+00 0. -1.
         22    1    1    2    0    0 -0.68463468568E+03 -0.30594789190E+03 -0.24702696511E+03  0.78952586207E+03  0.00000000000E+00 0. -1.
<mgrwt>
<rscale>  0 0.17966728E+04</rscale>
<asrwt>0</asrwt>
<pdfrwt beam="1">  1        2 0.18482833E+00 0.17966728E+04</pdfrwt>
<pdfrwt beam="2">  1       -2 0.10334340E+00 0.17966728E+04</pdfrwt>
<totfact> 0.13635483E+01</totfact>
</mgrwt>
</event>
<event>
 6    1  0.2436515E-005  0.5545327E+03  0.7818608E-02  0.1000450E+00
         -2   -1    0    0    0  501 -0.00000000000E+00  0.00000000000E+00  0.56848139253E+02  0.56848139253E+02  0.00000000000E+00 0. -1.
          2   -1    0    0  501    0  0.00000000000E+00 -0.00000000000E+00 -0.13523158646E+04  0.13523158646E+04  0.00000000000E+00 0.  1.
         23    2    1    2    0    0 -0.14778321089E+03 -0.20687194880E+03 -0.89770692100E+03  0.93709458300E+03  0.87365100933E+02 0.  0.
         13    1    3    3    0    0 -0.34953565876E+01  0.72915330203E+01 -0.11700020399E+02  0.14222322201E+02  0.00000000000E+00 0. -1.
        -13    1    3    3    0    0 -0.14428785431E+03 -0.21416348182E+03 -0.88600690060E+03  0.92287226080E+03  0.00000000000E+00 0.  1.
         22    1    1    2    0    0  0.14778321089E+03  0.20687194880E+03 -0.39776080434E+03  0.47206942084E+03  0.00000000000E+00 0.  1.
<mgrwt>
<rscale>  0 0.55453274E+03</rscale>
<asrwt>0</asrwt>
<pdfrwt beam="1">  1        2 0.20804859E+00 0.55453274E+03</pdfrwt>
<pdfrwt beam="2">  1       -2 0.87458678E-02 0.55453274E+03</pdfrwt>
<totfact> 0.13349674E+03</totfact>
</mgrwt>
</event>
<event>
 6    1  0.2436515E-005  0.4859424E+04  0.7818608E-02  0.7850566E-01
          1   -1    0    0  501    0  0.00000000000E+00  0.00000000000E+00  0.23795467642E+04  0.23795467642E+04  0.00000000000E+00 0.  1.
         -1   -1    0    0    0  501 -0.00000000000E+00 -0.00000000000E+00 -0.24809349161E+04  0.24809349161E+04  0.00000000000E+00 0. -1.
         23    2    1    2    0    0 -0.50840123479E+03  0.23433084764E+04 -0.43795923266E+03  0.24391501203E+04  0.89880971601E+02 0.  0.
         13    1    3    3    0    0 -0.24924988280E+03  0.13374308511E+04 -0.22840895906E+03  0.13794989809E+04  0.00000000000E+00 0.  1.
        -13    1    3    3    0    0 -0.25915135198E+03  0.10058776252E+04 -0.20955027360E+03  0.10596511395E+04  0.00000000000E+00 0. -1.
         22    1    1    2    0    0  0.50840123479E+03 -0.23433084764E+04  0.33657108074E+03  0.24213315600E+04  0.00000000000E+00 0.  1.
<mgrwt>
<rscale>  0 0.48594241E+04</rscale>
<asrwt>0</asrwt>
<pdfrwt beam="1">  1        1 0.36608412E+00 0.48594241E+04</pdfrwt>
<pdfrwt beam="2">  1       -1 0.38168230E+00 0.48594241E+04</pdfrwt>
<totfact> 0.11420516E-02</totfact>
</mgrwt>
</event>
<event>
 6    1  0.2436515E-005  0.3940395E+04  0.7818608E-02  0.8016680E-01
          2   -1    0    0  501    0  0.00000000000E+00  0.00000000000E+00  0.35500597339E+04  0.35500597339E+04  0.00000000000E+00 0.  1.
         -2   -1    0    0    0  501 -0.00000000000E+00 -0.00000000000E+00 -0.10934122073E+04  0.10934122073E+04  0.00000000000E+00 0. -1.
         23    2    1    2    0    0 -0.85632426051E+03  0.10917107063E+04  0.28754247378E+04  0.31941624994E+04  0.97381437730E+02 0.  0.
         11    1    3    3    0    0 -0.29549884058E+03  0.42856194136E+03  0.99903526343E+03  0.11265240166E+04  0.00000000000E+00 0. -1.
        -11    1    3    3    0    0 -0.56082541993E+03  0.66314876498E+03  0.18763894744E+04  0.20676384828E+04  0.00000000000E+00 0.  1.
         22    1    1    2    0    0  0.85632426051E+03 -0.10917107063E+04 -0.41877721119E+03  0.14493094418E+04  0.00000000000E+00 0. -1.
<mgrwt>
<rscale>  0 0.39403952E+04</rscale>
<asrwt>0</asrwt>
<pdfrwt beam="1">  1        2 0.54616303E+00 0.39403952E+04</pdfrwt>
<pdfrwt beam="2">  1       -2 0.16821726E+00 0.39403952E+04</pdfrwt>
<totfact> 0.13013911E-01</totfact>
</mgrwt>
</event>
<event>
 6    1  0.2436515E-005  0.2797506E+04  0.7818608E-02  0.8304043E-01
         -2   -1    0    0    0  501 -0.00000000000E+00  0.00000000000E+00  0.13851117318E+04  0.13851117318E+04  0.00000000000E+00 0. -1.
          2   -1    0    0  501    0  0.00000000000E+00 -0.00000000000E+00 -0.14125288446E+04  0.14125288446E+04  0.00000000000E+00 0.  1.
         23    2    1    2    0    0 -0.29277886848E+03 -0.61582660583E+03 -0.12333899305E+04  0.14122408827E+04  0.90618517558E+02 0.  0.
         13    1    3    3    0    0 -0.21247587961E+03 -0.36941274821E+03 -0.70694429688E+03  0.82545867059E+03  0.00000000000E+00 0. -1.
        -13    1    3    3    0    0 -0.80302988867E+02 -0.24641385762E+03 -0.52644563363E+03  0.58678221208E+03  0.00000000000E+00 0.  1.
         22    1    1    2    0    0  0.29277886848E+03  0.61582660583E+03  0.12059728177E+04  0.13853996937E+04  0.00000000000E+00 0. -1.
<mgrwt>
<rscale>  0 0.27975062E+04</rscale>
<asrwt>0</asrwt>
<pdfrwt beam="1">  1        2 0.21731213E+00 0.27975062E+04</pdfrwt>
<pdfrwt beam="2">  1       -2 0.21309411E+00 0.27975062E+04</pdfrwt>
<totfact> 0.13551086E+00</totfact>
</mgrwt>
</event>
<event>
 6    1  0.2436515E-005  0.2206045E+04  0.7818608E-02  0.8515916E-01
          2   -1    0    0  501    0  0.00000000000E+00  0.00000000000E+00  0.15986136095E+04  0.15986136095E+04  0.00000000000E+00 0.  1.
         -2   -1    0    0    0  501 -0.00000000000E+00 -0.00000000000E+00 -0.76107113008E+03  0.76107113008E+03  0.00000000000E+00 0. -1.
         23    2    1    2    0    0 -0.20419919389E+03 -0.66059370557E+03 -0.49698022766E+03  0.85667701827E+03  0.93940472248E+02 0.  0.
         11    1    3    3    0    0 -0.41764875067E+02 -0.28939480770E+03 -0.19795899138E+03  0.35310256552E+03  0.00000000000E+00 0.  1.
        -11    1    3    3    0    0 -0.16243431882E+03 -0.37119889787E+03 -0.29902123628E+03  0.50357445275E+03  0.00000000000E+00 0. -1.
         22    1    1    2    0    0  0.20419919389E+03  0.66059370557E+03  0.13345227071E+04  0.15030077214E+04  0.00000000000E+00 0.  1.
<mgrwt>
<rscale>  0 0.22060450E+04</rscale>
<asrwt>0</asrwt>
<pdfrwt beam="1">  1        2 0.24594055E+00 0.22060450E+04</pdfrwt>
<pdfrwt beam="2">  1       -2 0.11708787E+00 0.22060450E+04</pdfrwt>
<totfact> 0.57596774E+00</totfact>
</mgrwt>
</event>
<event>
 6    1  0.2436515E-005  0.4514985E+04  0.7818608E-02  0.7908019E-01
         -2   -1    0    0    0  501 -0.00000000000E+00  0.00000000000E+00  0.33281514606E+04  0.33281514606E+04  0.00000000000E+00 0. -1.
          2   -1    0    0  501    0  0.00000000000E+00 -0.00000000000E+00 -0.15312619351E+04  0.15312619351E+04  0.00000000000E+00 0.  1.
         23    2    1    2    0    0 -0.15117165605E+04  0.42634484867E+03  0.26425770078E+04  0.30755288123E+04  0.92775770687E+02 0.  0.
         11    1    3    3    0    0 -0.71568187665E+03  0.16930926491E+03  0.13031440491E+04  0.14963457449E+04  0.00000000000E+00 0.  1.
        -11    1    3    3    0    0 -0.79603468386E+03  0.25703558376E+03  0.13394329588E+04  0.15791830674E+04  0.00000000000E+00 0. -1.
         22    1    1    2    0    0  0.15117165605E+04 -0.42634484867E+03 -0.84568748230E+03  0.17838845834E+04  0.00000000000E+00 0.  1.
<mgrwt>
<rscale>  0 0.45149847E+04</rscale>
<asrwt>0</asrwt>
<pdfrwt beam="1">  1        2 0.23557876E+00 0.45149847E+04</pdfrwt>
<pdfrwt beam="2">  1       -2 0.51202330E+00 0.45149847E+04</pdfrwt>
<totfact> 0.12908623E-02</totfact>
</mgrwt>
</event>
<event>
 6    1  0.2436515E-005  0.1121742E+04  0.7818608E-02  0.9184256E-01
         -2   -1    0    0    0  501 -0.00000000000E+00  0.00000000000E+00  0.16457724664E+03  0.16457724664E+03  0.00000000000E+00 0. -1.
          2   -1    0    0  501    0  0.00000000000E+00 -0.00000000000E+00 -0.19114188597E+04  0.19114188597E+04  0.00000000000E+00 0.  1.
         23    2    1    2    0    0 -0.83094719593E+02  0.35324007111E+03 -0.16618202192E+04  0.17032872150E+04  0.88643192719E+02 0.  0.
         13    1    3    3    0    0 -0.47900420929E+02  0.17319522498E+03 -0.10223592619E+04  0.10380315490E+04  0.00000000000E+00 0. -1.
        -13    1    3    3    0    0 -0.35194298665E+02  0.18004484614E+03 -0.63946095729E+03  0.66525566602E+03  0.00000000000E+00 0.  1.
         22    1    1    2    0    0  0.83094719593E+02 -0.35324007111E+03 -0.85021393864E+02  0.37270889133E+03  0.00000000000E+00 0. -1.
<mgrwt>
<rscale>  0 0.11217416E+04</rscale>
<asrwt>0</asrwt>
<pdfrwt beam="1">  1        2 0.29406441E+00 0.11217416E+04</pdfrwt>
<pdfrwt beam="2">  1       -2 0.25319579E-01 0.11217416E+04</pdfrwt>
<totfact> 0.10415210E+02</totfact>
</mgrwt>
</event>
<event>
 6    1  0.2436515E-005  0.1575079E+04  0.7818608E-02  0.8836006E-01
         -2   -1    0    0    0  501 -0.00000000000E+00  0.00000000000E+00  0.42997289208E+03  0.42997289208E+03  0.00000000000E+00 0. -1.
          2   -1    0    0  501    0  0.00000000000E+00 -0.00000000000E+00 -0.14424602240E+04  0.14424602240E+04  0.00000000000E+00 0.  1.
         23    2    1    2    0    0  0.54929513522E+03 -0.64607045003E+02  0.15388151246E+03  0.58157468195E+03  0.93007392027E+02 0.  0.
         11    1    3    3    0    0  0.34018621794E+03 -0.84676304635E+01  0.59810210888E+02  0.34550777845E+03  0.00000000000E+00 0.  1.
        -11    1    3    3    0    0  0.20910891727E+03 -0.56139414540E+02  0.94071301569E+02  0.23606690350E+03  0.00000000000E+00 0. -1.
         22    1    1    2    0    0 -0.54929513522E+03  0.64607045003E+02 -0.11663688444E+04  0.12908584341E+04  0.00000000000E+00 0.  1.
<mgrwt>
<rscale>  0 0.15750794E+04</rscale>
<asrwt>0</asrwt>
<pdfrwt beam="1">  1        2 0.22191696E+00 0.15750794E+04</pdfrwt>
<pdfrwt beam="2">  1       -2 0.66149675E-01 0.15750794E+04</pdfrwt>
<totfact> 0.27636140E+01</totfact>
</mgrwt>
</event>
<event>
 6    1  0.2436515E-005  0.1433161E+04  0.7818608E-02  0.8930158E-01
         -2   -1    0    0    0  501 -0.00000000000E+00  0.00000000000E+00  0.30633680263E+03  0.30633680263E+03  0.00000000000E+00 0. -1.
          2   -1    0    0  501    0  0.00000000000E+00 -0.00000000000E+00 -0.16762199201E+04  0.16762199201E+04  0.00000000000E+00 0.  1.
         23    2    1    2    0    0 -0.11687053601E+03  0.69924865761E+03 -0.57290891308E+03  0.91589122231E+03  0.89580695862E+02 0.  0.
         13    1    3    3    0    0  0.18139681148E+01  0.17980432124E+03 -0.11599710547E+03  0.21398180505E+03  0.00000000000E+00 0.  1.
        -13    1    3    3    0    0 -0.11868450412E+03  0.51944433637E+03 -0.45691180761E+03  0.70190941726E+03  0.00000000000E+00 0. -1.
         22    1    1    2    0    0  0.11687053601E+03 -0.69924865761E+03 -0.79697420443E+03  0.10666655005E+04  0.00000000000E+00 0. -1.
<mgrwt>
<rscale>  0 0.14331613E+04</rscale>
<asrwt>0</asrwt>
<pdfrwt beam="1">  1        2 0.25787998E+00 0.14331613E+04</pdfrwt>
<pdfrwt beam="2">  1       -2 0.47128739E-01 0.14331613E+04</pdfrwt>
<totfact> 0.41887460E+01</totfact>
</mgrwt>
</event>
<event>
 6    1  0.2436515E-005  0.1134918E+04  0.7818608E-02  0.9171811E-01
          2   -1    0    0  501    0  0.00000000000E+00  0.00000000000E+00  0.10386549075E+04  0.10386549075E+04  0.00000000000E+00 0.  1.
         -2   -1    0    0    0  501 -0.00000000000E+00 -0.00000000000E+00 -0.31002586140E+03  0.31002586140E+03  0.00000000000E+00 0. -1.
         23    2    1    2    0    0  0.20992311913E+03 -0.43278260179E+03  0.14504457613E+02  0.48766832751E+03  0.79003303775E+02 0.  0.
         13    1    3    3    0    0  0.84300101903E+02 -0.24331032764E+03  0.32887355736E+02  0.25959198925E+03  0.00000000000E+00 0. -1.
        -13    1    3    3    0    0  0.12562301723E+03 -0.18947227415E+03 -0.18382898123E+02  0.22807633826E+03  0.00000000000E+00 0.  1.
         22    1    1    2    0    0 -0.20992311913E+03  0.43278260179E+03  0.71412458847E+03  0.86101244138E+03  0.00000000000E+00 0.  1.
<mgrwt>
<rscale>  0 0.11349183E+04</rscale>
<asrwt>0</asrwt>
<pdfrwt beam="1">  1        2 0.15979306E+00 0.11349183E+04</pdfrwt>
<pdfrwt beam="2">  1       -2 0.47696287E-01 0.11349183E+04</pdfrwt>
<totfact> 0.98179639E+01</totfact>
</mgrwt>
</event>
<event>
 6    1  0.2436515E-005  0.4281431E+04  0.7818608E-02  0.7950061E-01
         -2   -1    0    0    0  501 -0.00000000000E+00  0.00000000000E+00  0.12802312464E+04  0.12802312464E+04  0.00000000000E+00 0. -1.
          2   -1    0    0  501    0  0.00000000000E+00 -0.00000000000E+00 -0.35795581016E+04  0.35795581016E+04  0.00000000000E+00 0.  1.
         23    2    1    2    0    0  0.14964748788E+04 -0.54888109159E+02  0.58489218948E+03  0.16099940829E+04  0.86788860179E+02 0.  0.
         11    1    3    3    0    0  0.49591985574E+03 -0.83808639368E+01  0.15144962425E+03  0.51859785083E+03  0.00000000000E+00 0. -1.
        -11    1    3    3    0    0  0.10005550231E+04 -0.46507245222E+02  0.43344256523E+03  0.10913962321E+04  0.00000000000E+00 0.  1.
         22    1    1    2    0    0 -0.14964748788E+04  0.54888109159E+02 -0.28842190446E+04  0.32497952651E+04  0.00000000000E+00 0.  1.
<mgrwt>
<rscale>  0 0.42814307E+04</rscale>
<asrwt>0</asrwt>
<pdfrwt beam="1">  1        2 0.55070125E+00 0.42814307E+04</pdfrwt>
<pdfrwt beam="2">  1       -2 0.19695865E+00 0.42814307E+04</pdfrwt>
<totfact> 0.76541696E-02</totfact>
</mgrwt>
</event>
<event>
 6    1  0.2436515E-005  0.7146061E+04  0.7818608E-02  0.7562557E-01
         -2   -1    0    0    0  501 -0.00000000000E+00  0.00000000000E+00  0.26917666663E+04  0.26917666663E+04  0.00000000000E+00 0. -1.
          2   -1    0    0  501    0  0.00000000000E+00 -0.00000000000E+00 -0.47428130622E+04  0.47428130622E+04  0.00000000000E+00 0.  1.
         23    2    1    2    0    0  0.42757040444E+03 -0.23212343654E+04 -0.38156466725E+04  0.44875881157E+04  0.91335300566E+02 0.  0.
         13    1    3    3    0    0  0.25302548996E+03 -0.14972644132E+04 -0.23823009776E+04  0.28250983292E+04  0.00000000000E+00 0. -1.
        -13    1    3    3    0    0  0.17454491448E+03 -0.82396995221E+03 -0.14333456949E+04  0.16624897865E+04  0.00000000000E+00 0.  1.
         22    1    1    2    0    0 -0.42757040444E+03  0.23212343654E+04  0.17646002766E+04  0.29469916128E+04  0.00000000000E+00 0. -1.
<mgrwt>
<rscale>  0 0.71460608E+04</rscale>
<asrwt>0</asrwt>
<pdfrwt beam="1">  1        2 0.72966354E+00 0.71460608E+04</pdfrwt>
<pdfrwt beam="2">  1       -2 0.41411795E+00 0.71460608E+04</pdfrwt>
<totfact> 0.25097888E-04</totfact>
</mgrwt>
</event>
<event>
 6    1  0.2436515E-005  0.2855882E+04  0.7818608E-02  0.8286126E-01
         -2   -1    0    0    0  501 -0.00000000000E+00  0.00000000000E+00  0.66175382126E+03  0.66175382126E+03  0.00000000000E+00 0. -1.
          2   -1    0    0  501    0  0.00000000000E+00 -0.00000000000E+00 -0.30812299288E+04  0.30812299288E+04  0.00000000000E+00 0.  1.
         23    2    1    2    0    0  0.34121171080E+03 -0.63592180855E+03  0.40176272627E+03  0.83090364546E+03  0.90363718617E+02 0.  0.
         11    1    3    3    0    0  0.16102523279E+03 -0.37256179140E+03  0.19168856180E+03  0.44886068968E+03  0.00000000000E+00 0. -1.
        -11    1    3    3    0    0  0.18018647801E+03 -0.26336001715E+03  0.21007416447E+03  0.38204295579E+03  0.00000000000E+00 0.  1.
         22    1    1    2    0    0 -0.34121171080E+03  0.63592180855E+03 -0.28212388338E+04  0.29120801046E+04  0.00000000000E+00 0.  1.
<mgrwt>
<rscale>  0 0.28558821E+04</rscale>
<asrwt>0</asrwt>
<pdfrwt beam="1">  1        2 0.47403537E+00 0.28558821E+04</pdfrwt>
<pdfrwt beam="2">  1       -2 0.10180828E+00 0.28558821E+04</pdfrwt>
<totfact> 0.10600461E+00</totfact>
</mgrwt>
</event>
<event>
 6    1  0.2436515E-005  0.3970759E+04  0.7818608E-02  0.8010471E-01
         -2   -1    0    0    0  501 -0.00000000000E+00  0.00000000000E+00  0.15751834531E+04  0.15751834531E+04  0.00000000000E+00 0. -1.
          2   -1    0    0  501    0  0.00000000000E+00 -0.00000000000E+00 -0.25023952973E+04  0.25023952973E+04  0.00000000000E+00 0.  1.
         23    2    1    2    0    0 -0.32976429517E+03 -0.12506856958E+04  0.10814681192E+04  0.16884880458E+04  0.91974930530E+02 0.  0.
         13    1    3    3    0    0 -0.58315879212E+02 -0.29096617092E+03  0.29388326878E+03  0.41764749497E+03  0.00000000000E+00 0. -1.
        -13    1    3    3    0    0 -0.27144841596E+03 -0.95971952487E+03  0.78758485040E+03  0.12708405508E+04  0.00000000000E+00 0.  1.
         22    1    1    2    0    0  0.32976429517E+03  0.12506856958E+04 -0.20086799633E+04  0.23890907047E+04  0.00000000000E+00 0.  1.
<mgrwt>
<rscale>  0 0.39707590E+04</rscale>
<asrwt>0</asrwt>
<pdfrwt beam="1">  1        2 0.38498389E+00 0.39707590E+04</pdfrwt>
<pdfrwt beam="2">  1       -2 0.24233592E+00 0.39707590E+04</pdfrwt>
<totfact> 0.19659887E-01</totfact>
</mgrwt>
</event>
<event>
 6    1  0.2436515E-005  0.3912005E+04  0.7818608E-02  0.8022537E-01
          2   -1    0    0  501    0  0.00000000000E+00  0.00000000000E+00  0.17428254837E+04  0.17428254837E+04  0.00000000000E+00 0.  1.
         -2   -1    0    0    0  501 -0.00000000000E+00 -0.00000000000E+00 -0.21952541306E+04  0.21952541306E+04  0.00000000000E+00 0. -1.
         23    2    1    2    0    0  0.85604705140E+03 -0.10442066294E+04 -0.16496580822E+04  0.21334903647E+04  0.85001819020E+02 0.  0.
         11    1    3    3    0    0  0.64529386622E+03 -0.74240540019E+03 -0.12392856559E+04  0.15822132881E+04  0.00000000000E+00 0. -1.
        -11    1    3    3    0    0  0.21075318518E+03 -0.30180122918E+03 -0.41037242628E+03  0.55127707666E+03  0.00000000000E+00 0.  1.
         22    1    1    2    0    0 -0.85604705140E+03  0.10442066294E+04  0.11972294353E+04  0.18045892496E+04  0.00000000000E+00 0.  1.
<mgrwt>
<rscale>  0 0.39120045E+04</rscale>
<asrwt>0</asrwt>
<pdfrwt beam="1">  1        2 0.26812700E+00 0.39120045E+04</pdfrwt>
<pdfrwt beam="2">  1       -2 0.33773141E+00 0.39120045E+04</pdfrwt>
<totfact> 0.13699872E-01</totfact>
</mgrwt>
</event>
<event>
 6    1  0.2436515E-005  0.2438825E+04  0.7818608E-02  0.8425109E-01
         -2   -1    0    0    0  501 -0.00000000000E+00  0.00000000000E+00  0.90355315661E+03  0.90355315661E+03  0.00000000000E+00 0. -1.
          2   -1    0    0  501    0  0.00000000000E+00 -0.00000000000E+00 -0.16456881843E+04  0.16456881843E+04  0.00000000000E+00 0.  1.
         23    2    1    2    0    0  0.28804036921E+03 -0.11660190234E+04 -0.16225992005E+03  0.12155161976E+04  0.92648409067E+02 0.  0.
         13    1    3    3    0    0  0.16048626413E+03 -0.60165735416E+03 -0.12933503503E+03  0.63598346211E+03  0.00000000000E+00 0.  1.
        -13    1    3    3    0    0  0.12755410508E+03 -0.56436166928E+03 -0.32924885018E+02  0.57953273551E+03  0.00000000000E+00 0. -1.
         22    1    1    2    0    0 -0.28804036921E+03  0.11660190234E+04 -0.57987510760E+03  0.13337251432E+04  0.00000000000E+00 0.  1.
<mgrwt>
<rscale>  0 0.24388249E+04</rscale>
<asrwt>0</asrwt>
<pdfrwt beam="1">  1        2 0.25318280E+00 0.24388249E+04</pdfrwt>
<pdfrwt beam="2">  1       -2 0.13900818E+00 0.24388249E+04</pdfrwt>
<totfact> 0.34488739E+00</totfact>
</mgrwt>
</event>
<event>
 6    1  0.2436515E-005  0.1303876E+04  0.7818608E-02  0.9026497E-01
         -2   -1    0    0    0  501 -0.00000000000E+00  0.00000000000E+00  0.87874454887E+03  0.87874454887E+03  0.00000000000E+00 0.  1.
          2   -1    0    0  501    0  0.00000000000E+00 -0.00000000000E+00 -0.48367087550E+03  0.48367087550E+03  0.00000000000E+00 0. -1.
         23    2    1    2    0    0 -0.46170880655E+03 -0.29567545605E+03 -0.16386282506E+03  0.57946650737E+03  0.91276559851E+02 0.  0.
         13    1    3    3    0    0 -0.22827294736E+03 -0.19984749938E+03 -0.84499590344E+02  0.31494085520E+03  0.00000000000E+00 0. -1.
        -13    1    3    3    0    0 -0.23343585918E+03 -0.95827956664E+02 -0.79363234717E+02  0.26452565217E+03  0.00000000000E+00 0.  1.
         22    1    1    2    0    0  0.46170880655E+03  0.29567545605E+03  0.55893649843E+03  0.78294891700E+03  0.00000000000E+00 0.  1.
<mgrwt>
<rscale>  0 0.13038760E+04</rscale>
<asrwt>0</asrwt>
<pdfrwt beam="1">  1        2 0.74410904E-01 0.13038760E+04</pdfrwt>
<pdfrwt beam="2">  1       -2 0.13519147E+00 0.13038760E+04</pdfrwt>
<totfact> 0.24636276E+01</totfact>
</mgrwt>
</event>
<event>
 6    1  0.2436515E-005  0.1859302E+04  0.7818608E-02  0.8675384E-01
         -2   -1    0    0    0  501 -0.00000000000E+00  0.00000000000E+00  0.10195896418E+04  0.10195896418E+04  0.00000000000E+00 0. -1.
          2   -1    0    0  501    0  0.00000000000E+00 -0.00000000000E+00 -0.84764606147E+03  0.84764606147E+03  0.00000000000E+00 0.  1.
         23    2    1    2    0    0 -0.15673687201E+03 -0.10691733282E+03  0.99780054482E+03  0.10198647756E+04  0.92306393244E+02 0.  0.
         11    1    3    3    0    0 -0.14374276013E+03 -0.54280431177E+02  0.65339254892E+03  0.67121544178E+03  0.00000000000E+00 0. -1.
        -11    1    3    3    0    0 -0.12994111880E+02 -0.52636901647E+02  0.34440799590E+03  0.34864933386E+03  0.00000000000E+00 0.  1.
         22    1    1    2    0    0  0.15673687201E+03  0.10691733282E+03 -0.82585696452E+03  0.84737092760E+03  0.00000000000E+00 0.  1.
<mgrwt>
<rscale>  0 0.18593022E+04</rscale>
<asrwt>0</asrwt>
<pdfrwt beam="1">  1        2 0.13040709E+00 0.18593022E+04</pdfrwt>
<pdfrwt beam="2">  1       -2 0.15685995E+00 0.18593022E+04</pdfrwt>
<totfact> 0.79546998E+00</totfact>
</mgrwt>
</event>
<event>
 6    1  0.2436515E-005  0.1833730E+04  0.7818608E-02  0.8688565E-01
          2   -1    0    0  501    0  0.00000000000E+00  0.00000000000E+00  0.38694134541E+04  0.38694134541E+04  0.00000000000E+00 0.  1.
         -2   -1    0    0    0  501 -0.00000000000E+00 -0.00000000000E+00 -0.21725297105E+03  0.21725297105E+03  0.00000000000E+00 0. -1.
         23    2    1    2    0    0  0.53183569766E+03 -0.24239866436E+03  0.26240802503E+03  0.64689491407E+03  0.89491544074E+02 0.  0.
         13    1    3    3    0    0  0.12998861847E+03 -0.49880791738E+02  0.10477967676E+03  0.17425244612E+03  0.00000000000E+00 0. -1.
        -13    1    3    3    0    0  0.40184707919E+03 -0.19251787262E+03  0.15762834826E+03  0.47264246795E+03  0.00000000000E+00 0.  1.
         22    1    1    2    0    0 -0.53183569766E+03  0.24239866436E+03  0.33897524580E+04  0.34397715110E+04  0.00000000000E+00 0.  1.
<mgrwt>
<rscale>  0 0.18337302E+04</rscale>
<asrwt>0</asrwt>
<pdfrwt beam="1">  1        2 0.59529433E+00 0.18337302E+04</pdfrwt>
<pdfrwt beam="2">  1       -2 0.33423537E-01 0.18337302E+04</pdfrwt>
<totfact> 0.34620947E+00</totfact>
</mgrwt>
</event>
<event>
 6    1  0.2436515E-005  0.9283297E+03  0.7818608E-02  0.9390845E-01
         -2   -1    0    0    0  501 -0.00000000000E+00  0.00000000000E+00  0.27109988867E+03  0.27109988867E+03  0.00000000000E+00 0. -1.
          2   -1    0    0  501    0  0.00000000000E+00 -0.00000000000E+00 -0.79472185586E+03  0.79472185586E+03  0.00000000000E+00 0.  1.
         23    2    1    2    0    0  0.19386767629E+03  0.38843530412E+02  0.21257768115E+03  0.30353346706E+03  0.88599093317E+02 0.  0.
         11    1    3    3    0    0  0.11966187210E+03 -0.14993524028E+02  0.15030601086E+03  0.19270616570E+03  0.00000000000E+00 0.  1.
        -11    1    3    3    0    0  0.74205804191E+02  0.53837054440E+02  0.62271670289E+02  0.11082730136E+03  0.00000000000E+00 0. -1.
         22    1    1    2    0    0 -0.19386767629E+03 -0.38843530412E+02 -0.73619964834E+03  0.76228827748E+03  0.00000000000E+00 0.  1.
<mgrwt>
<rscale>  0 0.92832970E+03</rscale>
<asrwt>0</asrwt>
<pdfrwt beam="1">  1        2 0.12226490E+00 0.92832970E+03</pdfrwt>
<pdfrwt beam="2">  1       -2 0.41707676E-01 0.92832970E+03</pdfrwt>
<totfact> 0.18952493E+02</totfact>
</mgrwt>
</event>
<event>
 6    1  0.2436515E-005  0.2061557E+04  0.7818608E-02  0.8578370E-01
          2   -1    0    0  501    0  0.00000000000E+00  0.00000000000E+00  0.14325263558E+04  0.14325263558E+04  0.00000000000E+00 0. -1.
         -2   -1    0    0    0  501 -0.00000000000E+00 -0.00000000000E+00 -0.74169957936E+03  0.74169957936E+03  0.00000000000E+00 0.  1.
         23    2    1    2    0    0 -0.68420896124E+03 -0.14310986278E+02 -0.46395970738E+03  0.83188524436E+03  0.91802738249E+02 0.  0.
         13    1    3    3    0    0 -0.38331767992E+03  0.17909967442E+02 -0.21390028510E+03  0.43932509904E+03  0.00000000000E+00 0. -1.
        -13    1    3    3    0    0 -0.30089128131E+03 -0.32220953720E+02 -0.25005942228E+03  0.39256014533E+03  0.00000000000E+00 0.  1.
         22    1    1    2    0    0  0.68420896124E+03  0.14310986278E+02  0.11547864838E+04  0.13423406908E+04  0.00000000000E+00 0. -1.
<mgrwt>
<rscale>  0 0.20615569E+04</rscale>
<asrwt>0</asrwt>
<pdfrwt beam="1">  1        2 0.22038867E+00 0.20615569E+04</pdfrwt>
<pdfrwt beam="2">  1       -2 0.11410763E+00 0.20615569E+04</pdfrwt>
<totfact> 0.77037094E+00</totfact>
</mgrwt>
</event>
<event>
 6    1  0.2436515E-005  0.1245718E+04  0.7818608E-02  0.9073755E-01
          2   -1    0    0  501    0  0.00000000000E+00  0.00000000000E+00  0.11935770228E+04  0.11935770228E+04  0.00000000000E+00 0.  1.
         -2   -1    0    0    0  501 -0.00000000000E+00 -0.00000000000E+00 -0.32503410166E+03  0.32503410166E+03  0.00000000000E+00 0. -1.
         23    2    1    2    0    0  0.52802654801E+03 -0.24022926794E+02  0.83044716166E+03  0.98866733184E+03  0.91823027166E+02 0.  0.
         11    1    3    3    0    0  0.15017891573E+03 -0.41340213745E+02  0.20062733429E+03  0.25399615601E+03  0.00000000000E+00 0.  1.
        -11    1    3    3    0    0  0.37784763228E+03  0.17317286951E+02  0.62981982737E+03  0.73467117583E+03  0.00000000000E+00 0. -1.
         22    1    1    2    0    0 -0.52802654801E+03  0.24022926794E+02  0.38095759453E+02  0.52994379259E+03  0.00000000000E+00 0. -1.
<mgrwt>
<rscale>  0 0.12457178E+04</rscale>
<asrwt>0</asrwt>
<pdfrwt beam="1">  1        2 0.18362723E+00 0.12457178E+04</pdfrwt>
<pdfrwt beam="2">  1       -2 0.50005247E-01 0.12457178E+04</pdfrwt>
<totfact> 0.71108171E+01</totfact>
</mgrwt>
</event>
<event>
 6    1  0.2436515E-005  0.3642513E+04  0.7818608E-02  0.8080823E-01
          2   -1    0    0  501    0  0.00000000000E+00  0.00000000000E+00  0.30090148220E+04  0.30090148220E+04  0.00000000000E+00 0.  1.
         -2   -1    0    0    0  501 -0.00000000000E+00 -0.00000000000E+00 -0.11023456645E+04  0.11023456645E+04  0.00000000000E+00 0. -1.
         23    2    1    2    0    0  0.39692644671E+03  0.91518176697E+03  0.26722410730E+04  0.28538993027E+04  0.93598116682E+02 0.  0.
         13    1    3    3    0    0  0.21883379568E+03  0.46666076961E+03  0.12536229574E+04  0.13554449540E+04  0.00000000000E+00 0. -1.
        -13    1    3    3    0    0  0.17809265103E+03  0.44852099736E+03  0.14186181156E+04  0.14984543488E+04  0.00000000000E+00 0.  1.
         22    1    1    2    0    0 -0.39692644671E+03 -0.91518176697E+03 -0.76557191548E+03  0.12574611837E+04  0.00000000000E+00 0. -1.
<mgrwt>
<rscale>  0 0.36425126E+04</rscale>
<asrwt>0</asrwt>
<pdfrwt beam="1">  1        2 0.46292535E+00 0.36425126E+04</pdfrwt>
<pdfrwt beam="2">  1       -2 0.16959164E+00 0.36425126E+04</pdfrwt>
<totfact> 0.29929596E-01</totfact>
</mgrwt>
</event>
<event>
 6    1  0.2436515E-005  0.1686103E+04  0.7818608E-02  0.8769330E-01
         -2   -1    0    0    0  501 -0.00000000000E+00  0.00000000000E+00  0.39268021307E+03  0.39268021307E+03  0.00000000000E+00 0. -1.
          2   -1    0    0  501    0  0.00000000000E+00 -0.00000000000E+00 -0.18099601872E+04  0.18099601872E+04  0.00000000000E+00 0.  1.
         23    2    1    2    0    0 -0.73420898276E+03  0.32408778041E+03 -0.10373144576E+04  0.13146823418E+04  0.90954143315E+02 0.  0.
         11    1    3    3    0    0 -0.37717266532E+03  0.15304060375E+03 -0.59702747168E+03  0.72258040923E+03  0.00000000000E+00 0. -1.
        -11    1    3    3    0    0 -0.35703631745E+03  0.17104717666E+03 -0.44028698593E+03  0.59210193261E+03  0.00000000000E+00 0.  1.
         22    1    1    2    0    0  0.73420898276E+03 -0.32408778041E+03 -0.37996551652E+03  0.88795805843E+03  0.00000000000E+00 0. -1.
<mgrwt>
<rscale>  0 0.16861027E+04</rscale>
<asrwt>0</asrwt>
<pdfrwt beam="1">  1        2 0.27845541E+00 0.16861027E+04</pdfrwt>
<pdfrwt beam="2">  1       -2 0.60412340E-01 0.16861027E+04</pdfrwt>
<totfact> 0.20714654E+01</totfact>
</mgrwt>
</event>
<event>
 6    1  0.2436515E-005  0.4361852E+04  0.7818608E-02  0.7935279E-01
         -2   -1    0    0    0  501 -0.00000000000E+00  0.00000000000E+00  0.14428253499E+04  0.14428253499E+04  0.00000000000E+00 0. -1.
          2   -1    0    0  501    0  0.00000000000E+00 -0.00000000000E+00 -0.32966137124E+04  0.32966137124E+04  0.00000000000E+00 0.  1.
         23    2    1    2    0    0 -0.12691710671E+04  0.21006642531E+03  0.98485852332E+03  0.16228962272E+04  0.94460322976E+02 0.  0.
         11    1    3    3    0    0 -0.54146362448E+03  0.10484635392E+03  0.36675156677E+03  0.66233097942E+03  0.00000000000E+00 0.  1.
        -11    1    3    3    0    0 -0.72770744262E+03  0.10522007139E+03  0.61810695655E+03  0.96056524776E+03  0.00000000000E+00 0. -1.
         22    1    1    2    0    0  0.12691710671E+04 -0.21006642531E+03 -0.28386468858E+04  0.31165428351E+04  0.00000000000E+00 0.  1.
<mgrwt>
<rscale>  0 0.43618518E+04</rscale>
<asrwt>0</asrwt>
<pdfrwt beam="1">  1        2 0.50717134E+00 0.43618518E+04</pdfrwt>
<pdfrwt beam="2">  1       -2 0.22197313E+00 0.43618518E+04</pdfrwt>
<totfact> 0.82283493E-02</totfact>
</mgrwt>
</event>
<event>
 6    1  0.2436515E-005  0.1886703E+04  0.7818608E-02  0.8661504E-01
          2   -1    0    0  501    0  0.00000000000E+00  0.00000000000E+00  0.13257340131E+04  0.13257340131E+04  0.00000000000E+00 0.  1.
         -2   -1    0    0    0  501 -0.00000000000E+00 -0.00000000000E+00 -0.67125972724E+03  0.67125972724E+03  0.00000000000E+00 0. -1.
         23    2    1    2    0    0  0.74902463107E+03  0.46266423803E+03 -0.24353637060E+02  0.88528179740E+03  0.89636298847E+02 0.  0.
         11    1    3    3    0    0  0.10390159415E+03  0.81397887476E+02  0.24830473192E+02  0.13430454107E+03  0.00000000000E+00 0.  1.
        -11    1    3    3    0    0  0.64512303692E+03  0.38126635056E+03 -0.49184110251E+02  0.75097725633E+03  0.00000000000E+00 0. -1.
         22    1    1    2    0    0 -0.74902463107E+03 -0.46266423803E+03  0.67882792287E+03  0.11117119429E+04  0.00000000000E+00 0.  1.
<mgrwt>
<rscale>  0 0.18867028E+04</rscale>
<asrwt>0</asrwt>
<pdfrwt beam="1">  1        2 0.20395908E+00 0.18867028E+04</pdfrwt>
<pdfrwt beam="2">  1       -2 0.10327073E+00 0.18867028E+04</pdfrwt>
<totfact> 0.11455904E+01</totfact>
</mgrwt>
</event>
<event>
 6    1  0.2436515E-005  0.2948175E+04  0.7818608E-02  0.8258687E-01
          1   -1    0    0  501    0  0.00000000000E+00  0.00000000000E+00  0.10340080377E+04  0.10340080377E+04  0.00000000000E+00 0.  1.
         -1   -1    0    0    0  501 -0.00000000000E+00 -0.00000000000E+00 -0.21014670879E+04  0.21014670879E+04  0.00000000000E+00 0. -1.
         23    2    1    2    0    0  0.18602322082E+03 -0.33245202369E+03 -0.20471028454E+04  0.20843657345E+04  0.93922675246E+02 0.  0.
         13    1    3    3    0    0  0.53333244256E+02 -0.40113783933E+02 -0.24689294603E+03  0.25575315717E+03  0.00000000000E+00 0.  1.
        -13    1    3    3    0    0  0.13268997657E+03 -0.29233823975E+03 -0.18002098993E+04  0.18286125773E+04  0.00000000000E+00 0. -1.
         22    1    1    2    0    0 -0.18602322082E+03  0.33245202369E+03  0.97964379517E+03  0.10511093911E+04  0.00000000000E+00 0.  1.
<mgrwt>
<rscale>  0 0.29481749E+04</rscale>
<asrwt>0</asrwt>
<pdfrwt beam="1">  1        1 0.15907816E+00 0.29481749E+04</pdfrwt>
<pdfrwt beam="2">  1       -1 0.32330262E+00 0.29481749E+04</pdfrwt>
<totfact> 0.28339009E-01</totfact>
</mgrwt>
</event>
<event>
 6    1  0.2436515E-005  0.3681825E+04  0.7818608E-02  0.8072002E-01
         -2   -1    0    0    0  501 -0.00000000000E+00  0.00000000000E+00  0.13274877730E+04  0.13274877730E+04  0.00000000000E+00 0. -1.
          2   -1    0    0  501    0  0.00000000000E+00 -0.00000000000E+00 -0.25529116965E+04  0.25529116965E+04  0.00000000000E+00 0.  1.
         23    2    1    2    0    0  0.13471746592E+03 -0.23320468597E+03 -0.25312295085E+04  0.25471097609E+04  0.90067131414E+02 0.  0.
         13    1    3    3    0    0  0.73079484046E+02 -0.66108908283E+02 -0.11962792627E+04  0.12003312348E+04  0.00000000000E+00 0.  1.
        -13    1    3    3    0    0  0.61637981873E+02 -0.16709577769E+03 -0.13349502458E+04  0.13467785261E+04  0.00000000000E+00 0. -1.
         22    1    1    2    0    0 -0.13471746592E+03  0.23320468597E+03  0.13058055850E+04  0.13332897086E+04  0.00000000000E+00 0. -1.
<mgrwt>
<rscale>  0 0.36818251E+04</rscale>
<asrwt>0</asrwt>
<pdfrwt beam="1">  1        2 0.39275565E+00 0.36818251E+04</pdfrwt>
<pdfrwt beam="2">  1       -2 0.20422889E+00 0.36818251E+04</pdfrwt>
<totfact> 0.32759422E-01</totfact>
</mgrwt>
</event>
<event>
 6    1  0.2436515E-005  0.2009265E+04  0.7818608E-02  0.8602301E-01
         -2   -1    0    0    0  501 -0.00000000000E+00  0.00000000000E+00  0.45806070757E+03  0.45806070757E+03  0.00000000000E+00 0. -1.
          2   -1    0    0  501    0  0.00000000000E+00 -0.00000000000E+00 -0.22033907878E+04  0.22033907878E+04  0.00000000000E+00 0.  1.
         23    2    1    2    0    0 -0.30996892645E+03  0.57289710421E+03 -0.18839703625E+04  0.19954838120E+04  0.91211236748E+02 0.  0.
         11    1    3    3    0    0 -0.17318050013E+03  0.38417250206E+03 -0.11155046418E+04  0.11924473166E+04  0.00000000000E+00 0.  1.
        -11    1    3    3    0    0 -0.13678842632E+03  0.18872460215E+03 -0.76846572076E+03  0.80303649545E+03  0.00000000000E+00 0. -1.
         22    1    1    2    0    0  0.30996892645E+03 -0.57289710421E+03  0.13864028232E+03  0.66596768334E+03  0.00000000000E+00 0. -1.
<mgrwt>
<rscale>  0 0.20092653E+04</rscale>
<asrwt>0</asrwt>
<pdfrwt beam="1">  1        2 0.33898319E+00 0.20092653E+04</pdfrwt>
<pdfrwt beam="2">  1       -2 0.70470879E-01 0.20092653E+04</pdfrwt>
<totfact> 0.87433745E+00</totfact>
</mgrwt>
</event>
<event>
 6    1  0.2436515E-005  0.2412501E+04  0.7818608E-02  0.8434838E-01
         -2   -1    0    0    0  501 -0.00000000000E+00  0.00000000000E+00  0.25088222904E+04  0.25088222904E+04  0.00000000000E+00 0. -1.
          2   -1    0    0  501    0  0.00000000000E+00 -0.00000000000E+00 -0.57996922541E+03  0.57996922541E+03  0.00000000000E+00 0.  1.
         23    2    1    2    0    0  0.63526484015E+03  0.67653229685E+03  0.19489097703E+04  0.21605352811E+04  0.91684471710E+02 0.  0.
         11    1    3    3    0    0  0.42985195840E+03  0.48545775320E+03  0.14445135220E+04  0.15833702194E+04  0.00000000000E+00 0.  1.
        -11    1    3    3    0    0  0.20541288174E+03  0.19107454365E+03  0.50439624825E+03  0.57716506172E+03  0.00000000000E+00 0. -1.
         22    1    1    2    0    0 -0.63526484015E+03 -0.67653229685E+03 -0.20056705305E+02  0.92825623469E+03  0.00000000000E+00 0.  1.
<mgrwt>
<rscale>  0 0.24125005E+04</rscale>
<asrwt>0</asrwt>
<pdfrwt beam="1">  1        2 0.89226036E-01 0.24125005E+04</pdfrwt>
<pdfrwt beam="2">  1       -2 0.38597265E+00 0.24125005E+04</pdfrwt>
<totfact> 0.42549938E-01</totfact>
</mgrwt>
</event>
<event>
 6    1  0.2436515E-005  0.1589624E+04  0.7818608E-02  0.8826948E-01
          2   -1    0    0  501    0  0.00000000000E+00  0.00000000000E+00  0.15748283056E+04  0.15748283056E+04  0.00000000000E+00 0. -1.
         -2   -1    0    0    0  501 -0.00000000000E+00 -0.00000000000E+00 -0.40113987484E+03  0.40113987484E+03  0.00000000000E+00 0.  1.
         23    2    1    2    0    0  0.78282049717E+03  0.10288368614E+03  0.50394292181E+03  0.94061701759E+03  0.86075093190E+02 0.  0.
         13    1    3    3    0    0  0.52921331182E+03  0.72193228822E+02  0.29222883129E+03  0.60883189924E+03  0.00000000000E+00 0.  1.
        -13    1    3    3    0    0  0.25360718535E+03  0.30690457315E+02  0.21171409052E+03  0.33178511835E+03  0.00000000000E+00 0. -1.
         22    1    1    2    0    0 -0.78282049717E+03 -0.10288368614E+03  0.66974550896E+03  0.10353511629E+04  0.00000000000E+00 0. -1.
<mgrwt>
<rscale>  0 0.15896244E+04</rscale>
<asrwt>0</asrwt>
<pdfrwt beam="1">  1        2 0.24228127E+00 0.15896244E+04</pdfrwt>
<pdfrwt beam="2">  1       -2 0.61713828E-01 0.15896244E+04</pdfrwt>
<totfact> 0.26968419E+01</totfact>
</mgrwt>
</event>
<event>
 6    1  0.2436515E-005  0.5013966E+04  0.7818608E-02  0.7826356E-01
          2   -1    0    0  501    0  0.00000000000E+00  0.00000000000E+00  0.35619129977E+04  0.35619129977E+04  0.00000000000E+00 0.  1.
         -2   -1    0    0    0  501 -0.00000000000E+00 -0.00000000000E+00 -0.17644913440E+04  0.17644913440E+04  0.00000000000E+00 0. -1.
         23    2    1    2    0    0 -0.21293700935E+04  0.78714562604E+03 -0.22865910576E+03  0.22835736734E+04  0.92782020728E+02 0.  0.
         13    1    3    3    0    0 -0.12284322155E+04  0.42915001069E+03 -0.17068975903E+03  0.13123834933E+04  0.00000000000E+00 0. -1.
        -13    1    3    3    0    0 -0.90093787802E+03  0.35799561535E+03 -0.57969346733E+02  0.97119018005E+03  0.00000000000E+00 0.  1.
         22    1    1    2    0    0  0.21293700935E+04 -0.78714562604E+03  0.20260807595E+04  0.30428306683E+04  0.00000000000E+00 0.  1.
<mgrwt>
<rscale>  0 0.50139664E+04</rscale>
<asrwt>0</asrwt>
<pdfrwt beam="1">  1        2 0.54798662E+00 0.50139664E+04</pdfrwt>
<pdfrwt beam="2">  1       -2 0.27146021E+00 0.50139664E+04</pdfrwt>
<totfact> 0.25326045E-02</totfact>
</mgrwt>
</event>
<event>
 6    1  0.2436515E-005  0.6210882E+04  0.7818608E-02  0.7664791E-01
          2   -1    0    0  501    0  0.00000000000E+00  0.00000000000E+00  0.29662725708E+04  0.29662725708E+04  0.00000000000E+00 0.  1.
         -2   -1    0    0    0  501 -0.00000000000E+00 -0.00000000000E+00 -0.32511392023E+04  0.32511392023E+04  0.00000000000E+00 0. -1.
         23    2    1    2    0    0  0.22392957705E+04 -0.28231955137E+03  0.19917959648E+04  0.30115823244E+04  0.90703108814E+02 0.  0.
         13    1    3    3    0    0  0.49450361767E+03 -0.89012260429E+02  0.40782637102E+03  0.64713163985E+03  0.00000000000E+00 0. -1.
        -13    1    3    3    0    0  0.17447921528E+04 -0.19330729094E+03  0.15839695938E+04  0.23644506845E+04  0.00000000000E+00 0.  1.
         22    1    1    2    0    0 -0.22392957705E+04  0.28231955137E+03 -0.22766625963E+04  0.32058294487E+04  0.00000000000E+00 0. -1.
<mgrwt>
<rscale>  0 0.62108824E+04</rscale>
<asrwt>0</asrwt>
<pdfrwt beam="1">  1        2 0.45634963E+00 0.62108824E+04</pdfrwt>
<pdfrwt beam="2">  1       -2 0.50017526E+00 0.62108824E+04</pdfrwt>
<totfact> 0.20156692E-03</totfact>
</mgrwt>
</event>
<event>
 6    1  0.2436515E-005  0.2552626E+04  0.7818608E-02  0.8384473E-01
         -2   -1    0    0    0  501 -0.00000000000E+00  0.00000000000E+00  0.90992165141E+03  0.90992165141E+03  0.00000000000E+00 0. -1.
          2   -1    0    0  501    0  0.00000000000E+00 -0.00000000000E+00 -0.17902367874E+04  0.17902367874E+04  0.00000000000E+00 0.  1.
         23    2    1    2    0    0 -0.65624420614E+03  0.10742938933E+04 -0.65253333341E+03  0.14208428496E+04  0.90723892411E+02 0.  0.
         11    1    3    3    0    0 -0.29285280300E+03  0.55757863389E+03 -0.30334026150E+03  0.69905079318E+03  0.00000000000E+00 0.  1.
        -11    1    3    3    0    0 -0.36339140314E+03  0.51671525941E+03 -0.34919307191E+03  0.72179205638E+03  0.00000000000E+00 0. -1.
         22    1    1    2    0    0  0.65624420614E+03 -0.10742938933E+04 -0.22778180256E+03  0.12793155892E+04  0.00000000000E+00 0.  1.
<mgrwt>
<rscale>  0 0.25526263E+04</rscale>
<asrwt>0</asrwt>
<pdfrwt beam="1">  1        2 0.27542105E+00 0.25526263E+04</pdfrwt>
<pdfrwt beam="2">  1       -2 0.13998795E+00 0.25526263E+04</pdfrwt>
<totfact> 0.27876485E+00</totfact>
</mgrwt>
</event>
<event>
 6    1  0.2436515E-005  0.1322134E+04  0.7818608E-02  0.9012194E-01
         -2   -1    0    0    0  501 -0.00000000000E+00  0.00000000000E+00  0.84536598585E+03  0.84536598585E+03  0.00000000000E+00 0. -1.
          2   -1    0    0  501    0  0.00000000000E+00 -0.00000000000E+00 -0.51694749917E+03  0.51694749917E+03  0.00000000000E+00 0.  1.
         23    2    1    2    0    0 -0.54241893837E+03 -0.11657547690E+03  0.52940391191E+03  0.77222595958E+03  0.90864097389E+02 0.  0.
         13    1    3    3    0    0 -0.14964885638E+03 -0.52389508729E+02  0.20256172298E+03  0.25723664680E+03  0.00000000000E+00 0. -1.
        -13    1    3    3    0    0 -0.39277008199E+03 -0.64185968170E+02  0.32684218892E+03  0.51498931278E+03  0.00000000000E+00 0.  1.
         22    1    1    2    0    0  0.54241893837E+03  0.11657547690E+03 -0.20098542523E+03  0.59008752543E+03  0.00000000000E+00 0.  1.
<mgrwt>
<rscale>  0 0.13221344E+04</rscale>
<asrwt>0</asrwt>
<pdfrwt beam="1">  1        2 0.79530384E-01 0.13221344E+04</pdfrwt>
<pdfrwt beam="2">  1       -2 0.13005631E+00 0.13221344E+04</pdfrwt>
<totfact> 0.25133596E+01</totfact>
</mgrwt>
</event>
<event>
 6    1  0.2436515E-005  0.9088526E+03  0.7818608E-02  0.9414582E-01
         -2   -1    0    0    0  501 -0.00000000000E+00  0.00000000000E+00  0.14783005678E+03  0.14783005678E+03  0.00000000000E+00 0. -1.
          2   -1    0    0  501    0  0.00000000000E+00 -0.00000000000E+00 -0.13968963134E+04  0.13968963134E+04  0.00000000000E+00 0.  1.
         23    2    1    2    0    0 -0.43194546428E+03 -0.64820971698E+02 -0.82795871725E+03  0.93800550997E+03  0.59666211400E+02 0.  0.
         13    1    3    3    0    0 -0.17845054855E+03 -0.12784277330E+01 -0.36804384744E+03  0.40902629047E+03  0.00000000000E+00 0. -1.
        -13    1    3    3    0    0 -0.25349491573E+03 -0.63542543965E+02 -0.45991486980E+03  0.52897921950E+03  0.00000000000E+00 0.  1.
         22    1    1    2    0    0  0.43194546428E+03  0.64820971698E+02 -0.42110753933E+03  0.60672086017E+03  0.00000000000E+00 0. -1.
<mgrwt>
<rscale>  0 0.90885260E+03</rscale>
<asrwt>0</asrwt>
<pdfrwt beam="1">  1        2 0.21490712E+00 0.90885260E+03</pdfrwt>
<pdfrwt beam="2">  1       -2 0.22743087E-01 0.90885260E+03</pdfrwt>
<totfact> 0.24758954E+02</totfact>
</mgrwt>
</event>
<event>
 6    1  0.2436515E-005  0.1849329E+04  0.7818608E-02  0.8680498E-01
          2   -1    0    0  501    0  0.00000000000E+00  0.00000000000E+00  0.15412853705E+04  0.15412853705E+04  0.00000000000E+00 0.  1.
         -2   -1    0    0    0  501 -0.00000000000E+00 -0.00000000000E+00 -0.55473468767E+03  0.55473468767E+03  0.00000000000E+00 0. -1.
         23    2    1    2    0    0 -0.68839464501E+03  0.23186245041E+03  0.11381656296E+04  0.13539725696E+04  0.10086295436E+03 0.  0.
         11    1    3    3    0    0 -0.24866754538E+03  0.33421818126E+02  0.39516106406E+03  0.46808635165E+03  0.00000000000E+00 0. -1.
        -11    1    3    3    0    0 -0.43972709962E+03  0.19844063228E+03  0.74300456554E+03  0.88588621792E+03  0.00000000000E+00 0.  1.
         22    1    1    2    0    0  0.68839464501E+03 -0.23186245041E+03 -0.15161494681E+03  0.74204748856E+03  0.00000000000E+00 0. -1.
<mgrwt>
<rscale>  0 0.18493290E+04</rscale>
<asrwt>0</asrwt>
<pdfrwt beam="1">  1        2 0.23712082E+00 0.18493290E+04</pdfrwt>
<pdfrwt beam="2">  1       -2 0.85343799E-01 0.18493290E+04</pdfrwt>
<totfact> 0.13507004E+01</totfact>
</mgrwt>
</event>
<event>
 6    1  0.2436515E-005  0.3089011E+04  0.7818608E-02  0.8218760E-01
          2   -1    0    0  501    0  0.00000000000E+00  0.00000000000E+00  0.29125295922E+04  0.29125295922E+04  0.00000000000E+00 0.  1.
         -2   -1    0    0    0  501 -0.00000000000E+00 -0.00000000000E+00 -0.81904653672E+03  0.81904653672E+03  0.00000000000E+00 0. -1.
         23    2    1    2    0    0 -0.27893463349E+03 -0.10615125487E+04 -0.26271584904E+03  0.11322903235E+04  0.91914843858E+02 0.  0.
         11    1    3    3    0    0 -0.10528566639E+03 -0.26854460273E+03 -0.45901497791E+02  0.29207571399E+03  0.00000000000E+00 0.  1.
        -11    1    3    3    0    0 -0.17364896710E+03 -0.79296794595E+03 -0.21681435125E+03  0.84021460948E+03  0.00000000000E+00 0. -1.
         22    1    1    2    0    0  0.27893463349E+03  0.10615125487E+04  0.23561989045E+04  0.25992858054E+04  0.00000000000E+00 0.  1.
<mgrwt>
<rscale>  0 0.30890110E+04</rscale>
<asrwt>0</asrwt>
<pdfrwt beam="1">  1        2 0.44808147E+00 0.30890110E+04</pdfrwt>
<pdfrwt beam="2">  1       -2 0.12600716E+00 0.30890110E+04</pdfrwt>
<totfact> 0.78765000E-01</totfact>
</mgrwt>
</event>
<event>
 6    1  0.2436515E-005  0.3136846E+04  0.7818608E-02  0.8205698E-01
         -2   -1    0    0    0  501 -0.00000000000E+00  0.00000000000E+00  0.93985662105E+03  0.93985662105E+03  0.00000000000E+00 0. -1.
          2   -1    0    0  501    0  0.00000000000E+00 -0.00000000000E+00 -0.26173687477E+04  0.26173687477E+04  0.00000000000E+00 0.  1.
         23    2    1    2    0    0 -0.24012935610E+03 -0.88032909958E+03 -0.22842349014E+04  0.24614361752E+04  0.91090772098E+02 0.  0.
         13    1    3    3    0    0 -0.10426067516E+03 -0.48650163450E+03 -0.11456416362E+04  0.12490191701E+04  0.00000000000E+00 0. -1.
        -13    1    3    3    0    0 -0.13586868094E+03 -0.39382746508E+03 -0.11385932652E+04  0.12124170051E+04  0.00000000000E+00 0.  1.
         22    1    1    2    0    0  0.24012935610E+03  0.88032909958E+03  0.60672277474E+03  0.10957891935E+04  0.00000000000E+00 0. -1.
<mgrwt>
<rscale>  0 0.31368464E+04</rscale>
<asrwt>0</asrwt>
<pdfrwt beam="1">  1        2 0.40267212E+00 0.31368464E+04</pdfrwt>
<pdfrwt beam="2">  1       -2 0.14459333E+00 0.31368464E+04</pdfrwt>
<totfact> 0.83029999E-01</totfact>
</mgrwt>
</event>
<event>
 6    1  0.2436515E-005  0.1115759E+04  0.7818608E-02  0.9189967E-01
          1   -1    0    0  501    0  0.00000000000E+00  0.00000000000E+00  0.10149312690E+04  0.10149312690E+04  0.00000000000E+00 0.  1.
         -1   -1    0    0    0  501 -0.00000000000E+00 -0.00000000000E+00 -0.30665060451E+03  0.30665060451E+03  0.00000000000E+00 0. -1.
         23    2    1    2    0    0 -0.15028548717E+03 -0.29101995122E+03  0.88618435297E+03  0.94885132466E+03  0.87850948671E+02 0.  0.
         11    1    3    3    0    0 -0.42084875782E+02 -0.18892643747E+02  0.11181418798E+03  0.12095652687E+03  0.00000000000E+00 0.  1.
        -11    1    3    3    0    0 -0.10820061138E+03 -0.27212730748E+03  0.77437016499E+03  0.82789479779E+03  0.00000000000E+00 0. -1.
         22    1    1    2    0    0  0.15028548717E+03  0.29101995122E+03 -0.17790368850E+03  0.37273054885E+03  0.00000000000E+00 0. -1.
<mgrwt>
<rscale>  0 0.11157586E+04</rscale>
<asrwt>0</asrwt>
<pdfrwt beam="1">  1        1 0.15614327E+00 0.11157586E+04</pdfrwt>
<pdfrwt beam="2">  1       -1 0.47177017E-01 0.11157586E+04</pdfrwt>
<totfact> 0.65685058E+01</totfact>
</mgrwt>
</event>
<event>
 6    1  0.2436515E-005  0.2211675E+04  0.7818608E-02  0.8513584E-01
         -2   -1    0    0    0  501 -0.00000000000E+00  0.00000000000E+00  0.46760836602E+03  0.46760836602E+03  0.00000000000E+00 0. -1.
          2   -1    0    0  501    0  0.00000000000E+00 -0.00000000000E+00 -0.26151722535E+04  0.26151722535E+04  0.00000000000E+00 0.  1.
         23    2    1    2    0    0 -0.97316595239E+03 -0.49884079934E+03 -0.12843932409E+04  0.16895980475E+04  0.95819887156E+02 0.  0.
         11    1    3    3    0    0 -0.17980888781E+03 -0.66723917157E+02 -0.18292476804E+03  0.26503733325E+03  0.00000000000E+00 0. -1.
        -11    1    3    3    0    0 -0.79335706458E+03 -0.43211688219E+03 -0.11014684729E+04  0.14245607142E+04  0.00000000000E+00 0.  1.
         22    1    1    2    0    0  0.97316595239E+03  0.49884079934E+03 -0.86317064661E+03  0.13931825721E+04  0.00000000000E+00 0. -1.
<mgrwt>
<rscale>  0 0.22116749E+04</rscale>
<asrwt>0</asrwt>
<pdfrwt beam="1">  1        2 0.40233420E+00 0.22116749E+04</pdfrwt>
<pdfrwt beam="2">  1       -2 0.71939748E-01 0.22116749E+04</pdfrwt>
<totfact> 0.47675014E+00</totfact>
</mgrwt>
</event>
<event>
 6    1  0.2436515E-005  0.2371577E+04  0.7818608E-02  0.8450222E-01
          2   -1    0    0  501    0  0.00000000000E+00  0.00000000000E+00  0.22360694506E+04  0.22360694506E+04  0.00000000000E+00 0. -1.
         -2   -1    0    0    0  501 -0.00000000000E+00 -0.00000000000E+00 -0.62882422994E+03  0.62882422994E+03  0.00000000000E+00 0.  1.
         23    2    1    2    0    0 -0.81869278451E+03  0.57419866948E+03  0.15706954263E+04  0.18642449535E+04  0.91450189180E+02 0.  0.
         11    1    3    3    0    0 -0.63645926289E+03  0.44801297042E+03  0.12895213500E+04  0.15062075976E+04  0.00000000000E+00 0. -1.
        -11    1    3    3    0    0 -0.18223352162E+03  0.12618569906E+03  0.28117407630E+03  0.35803735591E+03  0.00000000000E+00 0.  1.
         22    1    1    2    0    0  0.81869278451E+03 -0.57419866948E+03  0.36549794364E+02  0.10006487270E+04  0.00000000000E+00 0.  1.
<mgrwt>
<rscale>  0 0.23715772E+04</rscale>
<asrwt>0</asrwt>
<pdfrwt beam="1">  1        2 0.34401068E+00 0.23715772E+04</pdfrwt>
<pdfrwt beam="2">  1       -2 0.96742191E-01 0.23715772E+04</pdfrwt>
<totfact> 0.39662297E+00</totfact>
</mgrwt>
</event>
<event>
 6    1  0.2436515E-005  0.1717988E+04  0.7818608E-02  0.8751171E-01
         -2   -1    0    0    0  501 -0.00000000000E+00  0.00000000000E+00  0.41185342002E+03  0.41185342002E+03  0.00000000000E+00 0. -1.
          2   -1    0    0  501    0  0.00000000000E+00 -0.00000000000E+00 -0.17915858176E+04  0.17915858176E+04  0.00000000000E+00 0.  1.
         23    2    1    2    0    0 -0.79655523666E+03 -0.16740186904E+03 -0.10339017678E+04  0.13190623636E+04  0.91918566227E+02 0.  0.
         13    1    3    3    0    0 -0.18265285912E+03 -0.31366690401E+01 -0.20504381231E+03  0.27461768079E+03  0.00000000000E+00 0. -1.
        -13    1    3    3    0    0 -0.61390237754E+03 -0.16426520000E+03 -0.82885795550E+03  0.10444446828E+04  0.00000000000E+00 0.  1.
         22    1    1    2    0    0  0.79655523666E+03  0.16740186904E+03 -0.34583062980E+03  0.88437687403E+03  0.00000000000E+00 0.  1.
<mgrwt>
<rscale>  0 0.17179881E+04</rscale>
<asrwt>0</asrwt>
<pdfrwt beam="1">  1        2 0.27562859E+00 0.17179881E+04</pdfrwt>
<pdfrwt beam="2">  1       -2 0.63362063E-01 0.17179881E+04</pdfrwt>
<totfact> 0.19110823E+01</totfact>
</mgrwt>
</event>
<event>
 6    1  0.2436515E-005  0.3183592E+04  0.7818608E-02  0.8193164E-01
          2   -1    0    0  501    0  0.00000000000E+00  0.00000000000E+00  0.26661402742E+04  0.26661402742E+04  0.00000000000E+00 0.  1.
         -2   -1    0    0    0  501 -0.00000000000E+00 -0.00000000000E+00 -0.95036799974E+03  0.95036799974E+03  0.00000000000E+00 0. -1.
         23    2    1    2    0    0  0.97056032112E+03 -0.44399550559E+03 -0.48103834671E+03  0.11741536209E+04  0.90108204788E+02 0.  0.
         11    1    3    3    0    0  0.44846206230E+03 -0.19965236093E+03 -0.17245089539E+03  0.52030625393E+03  0.00000000000E+00 0.  1.
        -11    1    3    3    0    0  0.52209825881E+03 -0.24434314466E+03 -0.30858745132E+03  0.65384736698E+03  0.00000000000E+00 0. -1.
         22    1    1    2    0    0 -0.97056032112E+03  0.44399550559E+03  0.21968106212E+04  0.24423546531E+04  0.00000000000E+00 0.  1.
<mgrwt>
<rscale>  0 0.31835919E+04</rscale>
<asrwt>0</asrwt>
<pdfrwt beam="1">  1        2 0.41017542E+00 0.31835919E+04</pdfrwt>
<pdfrwt beam="2">  1       -2 0.14621046E+00 0.31835919E+04</pdfrwt>
<totfact> 0.75164387E-01</totfact>
</mgrwt>
</event>
<event>
 6    1  0.2436515E-005  0.1251224E+04  0.7818608E-02  0.9069165E-01
          2   -1    0    0  501    0  0.00000000000E+00  0.00000000000E+00  0.10215792658E+04  0.10215792658E+04  0.00000000000E+00 0.  1.
         -2   -1    0    0    0  501 -0.00000000000E+00 -0.00000000000E+00 -0.38312271773E+03  0.38312271773E+03  0.00000000000E+00 0. -1.
         23    2    1    2    0    0  0.35507675705E+03 -0.46936220258E+03  0.54782958788E+03  0.80922433787E+03  0.91358584923E+02 0.  0.
         13    1    3    3    0    0  0.87801667608E+02 -0.10746211089E+03  0.18493561591E+03  0.23121076996E+03  0.00000000000E+00 0. -1.
        -13    1    3    3    0    0  0.26727508944E+03 -0.36190009169E+03  0.36289397196E+03  0.57801356791E+03  0.00000000000E+00 0.  1.
         22    1    1    2    0    0 -0.35507675705E+03  0.46936220258E+03  0.90626960227E+02  0.59547764570E+03  0.00000000000E+00 0. -1.
<mgrwt>
<rscale>  0 0.12512238E+04</rscale>
<asrwt>0</asrwt>
<pdfrwt beam="1">  1        2 0.15716604E+00 0.12512238E+04</pdfrwt>
<pdfrwt beam="2">  1       -2 0.58941957E-01 0.12512238E+04</pdfrwt>
<totfact> 0.64531721E+01</totfact>
</mgrwt>
</event>
<event>
 6    1  0.2436515E-005  0.1397871E+04  0.7818608E-02  0.8955361E-01
         -2   -1    0    0    0  501 -0.00000000000E+00  0.00000000000E+00  0.45930277196E+03  0.45930277196E+03  0.00000000000E+00 0. -1.
          2   -1    0    0  501    0  0.00000000000E+00 -0.00000000000E+00 -0.10635927947E+04  0.10635927947E+04  0.00000000000E+00 0.  1.
         23    2    1    2    0    0 -0.60082386614E+03 -0.34559246243E+03 -0.36793273638E+03  0.79057853487E+03  0.96002359804E+02 0.  0.
         11    1    3    3    0    0 -0.48318827397E+03 -0.23542966808E+03 -0.30131088886E+03  0.61618689410E+03  0.00000000000E+00 0.  1.
        -11    1    3    3    0    0 -0.11763559217E+03 -0.11016279435E+03 -0.66621847519E+02  0.17439164077E+03  0.00000000000E+00 0. -1.
         22    1    1    2    0    0  0.60082386614E+03  0.34559246243E+03 -0.23635728632E+03  0.73231703176E+03  0.00000000000E+00 0.  1.
<mgrwt>
<rscale>  0 0.13978714E+04</rscale>
<asrwt>0</asrwt>
<pdfrwt beam="1">  1        2 0.16362966E+00 0.13978714E+04</pdfrwt>
<pdfrwt beam="2">  1       -2 0.70661965E-01 0.13978714E+04</pdfrwt>
<totfact> 0.40695311E+01</totfact>
</mgrwt>
</event>
<event>
 6    1  0.2436515E-005  0.9530285E+03  0.7818608E-02  0.9361618E-01
          2   -1    0    0  501    0  0.00000000000E+00  0.00000000000E+00  0.51121025831E+03  0.51121025831E+03  0.00000000000E+00 0.  1.
         -2   -1    0    0    0  501 -0.00000000000E+00 -0.00000000000E+00 -0.44417302845E+03  0.44417302845E+03  0.00000000000E+00 0. -1.
         23    2    1    2    0    0 -0.26217497366E+03  0.25358397100E+03 -0.26798873721E+03  0.46012280401E+03  0.82791813229E+02 0.  0.
         11    1    3    3    0    0 -0.17753224415E+03  0.15616299232E+03 -0.12479522290E+03  0.26735449415E+03  0.00000000000E+00 0.  1.
        -11    1    3    3    0    0 -0.84642729503E+02  0.97420978683E+02 -0.14319351431E+03  0.19276830986E+03  0.00000000000E+00 0. -1.
         22    1    1    2    0    0  0.26217497366E+03 -0.25358397100E+03  0.33502596707E+03  0.49526048275E+03  0.00000000000E+00 0.  1.
<mgrwt>
<rscale>  0 0.95302845E+03</rscale>
<asrwt>0</asrwt>
<pdfrwt beam="1">  1        2 0.78647732E-01 0.95302845E+03</pdfrwt>
<pdfrwt beam="2">  1       -2 0.68334312E-01 0.95302845E+03</pdfrwt>
<totfact> 0.11774643E+02</totfact>
</mgrwt>
</event>
<event>
 6    1  0.2436515E-005  0.2682884E+04  0.7818608E-02  0.8340580E-01
         -2   -1    0    0    0  501 -0.00000000000E+00  0.00000000000E+00  0.95948778535E+03  0.95948778535E+03  0.00000000000E+00 0. -1.
          2   -1    0    0  501    0  0.00000000000E+00 -0.00000000000E+00 -0.18754456127E+04  0.18754456127E+04  0.00000000000E+00 0.  1.
         23    2    1    2    0    0  0.36902977521E+03 -0.94440399291E+03  0.46613490690E+03  0.11207974049E+04  0.10403458397E+03 0.  0.
         11    1    3    3    0    0  0.29115637659E+03 -0.83390581403E+03  0.41918378256E+03  0.97769421900E+03  0.00000000000E+00 0. -1.
        -11    1    3    3    0    0  0.77873398619E+02 -0.11049817888E+03  0.46951124345E+02  0.14310318594E+03  0.00000000000E+00 0.  1.
         22    1    1    2    0    0 -0.36902977521E+03  0.94440399291E+03 -0.13820927342E+04  0.17141359931E+04  0.00000000000E+00 0.  1.
<mgrwt>
<rscale>  0 0.26828844E+04</rscale>
<asrwt>0</asrwt>
<pdfrwt beam="1">  1        2 0.28853009E+00 0.26828844E+04</pdfrwt>
<pdfrwt beam="2">  1       -2 0.14761351E+00 0.26828844E+04</pdfrwt>
<totfact> 0.21522024E+00</totfact>
</mgrwt>
</event>
<event>
 6    1  0.2436515E-005  0.4061523E+04  0.7818608E-02  0.7992249E-01
         -1   -1    0    0    0  501 -0.00000000000E+00  0.00000000000E+00  0.14445365672E+04  0.14445365672E+04  0.00000000000E+00 0. -1.
          1   -1    0    0  501    0  0.00000000000E+00 -0.00000000000E+00 -0.28548898418E+04  0.28548898418E+04  0.00000000000E+00 0.  1.
         23    2    1    2    0    0 -0.14763183984E+04  0.47104664901E+03  0.68215345073E+03  0.16955859080E+04  0.90979568566E+02 0.  0.
         11    1    3    3    0    0 -0.67230919269E+03  0.16728276637E+03  0.30944149668E+03  0.75877349345E+03  0.00000000000E+00 0.  1.
        -11    1    3    3    0    0 -0.80400920574E+03  0.30376388264E+03  0.37271195405E+03  0.93681241453E+03  0.00000000000E+00 0. -1.
         22    1    1    2    0    0  0.14763183984E+04 -0.47104664901E+03 -0.20925067253E+04  0.26038405010E+04  0.00000000000E+00 0.  1.
<mgrwt>
<rscale>  0 0.40615232E+04</rscale>
<asrwt>0</asrwt>
<pdfrwt beam="1">  1        1 0.43921381E+00 0.40615232E+04</pdfrwt>
<pdfrwt beam="2">  1       -1 0.22223640E+00 0.40615232E+04</pdfrwt>
<totfact> 0.63015915E-02</totfact>
</mgrwt>
</event>
<event>
 6    1  0.2436515E-005  0.1683897E+04  0.7818608E-02  0.8770602E-01
         -2   -1    0    0    0  501 -0.00000000000E+00  0.00000000000E+00  0.62425579961E+03  0.62425579961E+03  0.00000000000E+00 0. -1.
          2   -1    0    0  501    0  0.00000000000E+00 -0.00000000000E+00 -0.11355562654E+04  0.11355562654E+04  0.00000000000E+00 0.  1.
         23    2    1    2    0    0 -0.77851207401E+03  0.27514922868E+03 -0.41473389769E+03  0.92847985133E+03  0.91008137104E+02 0.  0.
         11    1    3    3    0    0 -0.67875567584E+03  0.20711571127E+03 -0.36319875167E+03  0.79719478081E+03  0.00000000000E+00 0. -1.
        -11    1    3    3    0    0 -0.99756398172E+02  0.68033517407E+02 -0.51535146016E+02  0.13128507052E+03  0.00000000000E+00 0.  1.
         22    1    1    2    0    0  0.77851207401E+03 -0.27514922868E+03 -0.96566568095E+02  0.83133221367E+03  0.00000000000E+00 0. -1.
<mgrwt>
<rscale>  0 0.16838974E+04</rscale>
<asrwt>0</asrwt>
<pdfrwt beam="1">  1        2 0.17470096E+00 0.16838974E+04</pdfrwt>
<pdfrwt beam="2">  1       -2 0.96039355E-01 0.16838974E+04</pdfrwt>
<totfact> 0.17937062E+01</totfact>
</mgrwt>
</event>
<event>
 6    1  0.2436515E-005  0.3718214E+04  0.7818608E-02  0.8063937E-01
         -2   -1    0    0    0  501 -0.00000000000E+00  0.00000000000E+00  0.16648796120E+04  0.16648796120E+04  0.00000000000E+00 0.  1.
          2   -1    0    0  501    0  0.00000000000E+00 -0.00000000000E+00 -0.20759937133E+04  0.20759937133E+04  0.00000000000E+00 0. -1.
         23    2    1    2    0    0 -0.11630340001E+04 -0.12567509747E+04 -0.93154284198E+03  0.19512037547E+04  0.85749214434E+02 0.  0.
         11    1    3    3    0    0 -0.10562703051E+04 -0.11228292856E+04 -0.81212793116E+03  0.17424133662E+04  0.00000000000E+00 0.  1.
        -11    1    3    3    0    0 -0.10676369502E+03 -0.13392168914E+03 -0.11941491081E+03  0.20879038848E+03  0.00000000000E+00 0. -1.
         22    1    1    2    0    0  0.11630340001E+04  0.12567509747E+04  0.52042874068E+03  0.17896695706E+04  0.00000000000E+00 0.  1.
<mgrwt>
<rscale>  0 0.37182144E+04</rscale>
<asrwt>0</asrwt>
<pdfrwt beam="1">  1        2 0.31938365E+00 0.37182144E+04</pdfrwt>
<pdfrwt beam="2">  1       -2 0.25613533E+00 0.37182144E+04</pdfrwt>
<totfact> 0.28823988E-01</totfact>
</mgrwt>
</event>
<event>
 6    1  0.2436515E-005  0.4224893E+03  0.7818608E-02  0.1036259E+00
         -2   -1    0    0    0  501 -0.00000000000E+00  0.00000000000E+00  0.87191390326E+02  0.87191390326E+02  0.00000000000E+00 0. -1.
          2   -1    0    0  501    0  0.00000000000E+00 -0.00000000000E+00 -0.51179711406E+03  0.51179711406E+03  0.00000000000E+00 0.  1.
         23    2    1    2    0    0  0.73619585557E+02  0.38168858059E+02 -0.48260339919E+03  0.49779346764E+03  0.89529829704E+02 0.  0.
         11    1    3    3    0    0  0.52881821609E+02  0.81245630777E+01 -0.99654374773E+02  0.11310831089E+03  0.00000000000E+00 0.  1.
        -11    1    3    3    0    0  0.20737763947E+02  0.30044294981E+02 -0.38294902442E+03  0.38468515674E+03  0.00000000000E+00 0. -1.
         22    1    1    2    0    0 -0.73619585557E+02 -0.38168858059E+02  0.57997675462E+02  0.10119503675E+03  0.00000000000E+00 0. -1.
<mgrwt>
<rscale>  0 0.42248930E+03</rscale>
<asrwt>0</asrwt>
<pdfrwt beam="1">  1        2 0.78738018E-01 0.42248930E+03</pdfrwt>
<pdfrwt beam="2">  1       -2 0.13414060E-01 0.42248930E+03</pdfrwt>
<totfact> 0.25128571E+03</totfact>
</mgrwt>
</event>
<event>
 6    1  0.2436515E-005  0.2040063E+04  0.7818608E-02  0.8588115E-01
         -2   -1    0    0    0  501 -0.00000000000E+00  0.00000000000E+00  0.12161671127E+04  0.12161671127E+04  0.00000000000E+00 0. -1.
          2   -1    0    0  501    0  0.00000000000E+00 -0.00000000000E+00 -0.85552767348E+03  0.85552767348E+03  0.00000000000E+00 0.  1.
         23    2    1    2    0    0 -0.23538683020E+03 -0.87896063013E+03  0.64396844617E+03  0.11186711373E+04  0.93546804137E+02 0.  0.
         13    1    3    3    0    0 -0.15576729649E+03 -0.64018242582E+03  0.41690138338E+03  0.77968182770E+03  0.00000000000E+00 0.  1.
        -13    1    3    3    0    0 -0.79619533707E+02 -0.23877820431E+03  0.22706706279E+03  0.33898930958E+03  0.00000000000E+00 0. -1.
         22    1    1    2    0    0  0.23538683020E+03  0.87896063013E+03 -0.28332900696E+03  0.95302364888E+03  0.00000000000E+00 0. -1.
<mgrwt>
<rscale>  0 0.20400634E+04</rscale>
<asrwt>0</asrwt>
<pdfrwt beam="1">  1        2 0.13161964E+00 0.20400634E+04</pdfrwt>
<pdfrwt beam="2">  1       -2 0.18710263E+00 0.20400634E+04</pdfrwt>
<totfact> 0.47211940E+00</totfact>
</mgrwt>
</event>
<event>
 6    1  0.2436515E-005  0.1927536E+04  0.7818608E-02  0.8641270E-01
         -2   -1    0    0    0  501 -0.00000000000E+00  0.00000000000E+00  0.13673913762E+04  0.13673913762E+04  0.00000000000E+00 0. -1.
          2   -1    0    0  501    0  0.00000000000E+00 -0.00000000000E+00 -0.67928548387E+03  0.67928548387E+03  0.00000000000E+00 0.  1.
         23    2    1    2    0    0  0.39703657630E+03 -0.66603394169E+03 -0.25909210960E+03  0.82257583921E+03  0.90901240917E+02 0.  0.
         11    1    3    3    0    0  0.71611862897E+02 -0.16850442496E+03 -0.92721813475E+02  0.20522995598E+03  0.00000000000E+00 0. -1.
        -11    1    3    3    0    0  0.32542471340E+03 -0.49752951673E+03 -0.16637029612E+03  0.61734588323E+03  0.00000000000E+00 0.  1.
         22    1    1    2    0    0 -0.39703657630E+03  0.66603394169E+03  0.94719800197E+03  0.12241010209E+04  0.00000000000E+00 0.  1.
<mgrwt>
<rscale>  0 0.19275364E+04</rscale>
<asrwt>0</asrwt>
<pdfrwt beam="1">  1        2 0.10450546E+00 0.19275364E+04</pdfrwt>
<pdfrwt beam="2">  1       -2 0.21036790E+00 0.19275364E+04</pdfrwt>
<totfact> 0.45262376E+00</totfact>
</mgrwt>
</event>
<event>
 6    1  0.2436515E-005  0.2402850E+04  0.7818608E-02  0.8438437E-01
          2   -1    0    0  501    0  0.00000000000E+00  0.00000000000E+00  0.17613958330E+04  0.17613958330E+04  0.00000000000E+00 0.  1.
         -2   -1    0    0    0  501 -0.00000000000E+00 -0.00000000000E+00 -0.81947630432E+03  0.81947630432E+03  0.00000000000E+00 0. -1.
         23    2    1    2    0    0 -0.10211886926E+04  0.31123256240E+02  0.11470743469E+04  0.15388147962E+04  0.91522766211E+02 0.  0.
         11    1    3    3    0    0 -0.25263790534E+03  0.25201052328E+02  0.33993417817E+03  0.42428321878E+03  0.00000000000E+00 0.  1.
        -11    1    3    3    0    0 -0.76855078723E+03  0.59222039127E+01  0.80714016871E+03  0.11145315774E+04  0.00000000000E+00 0. -1.
         22    1    1    2    0    0  0.10211886926E+04 -0.31123256240E+02 -0.20515481816E+03  0.10420573412E+04  0.00000000000E+00 0. -1.
<mgrwt>
<rscale>  0 0.24028501E+04</rscale>
<asrwt>0</asrwt>
<pdfrwt beam="1">  1        2 0.27098397E+00 0.24028501E+04</pdfrwt>
<pdfrwt beam="2">  1       -2 0.12607328E+00 0.24028501E+04</pdfrwt>
<totfact> 0.38250985E+00</totfact>
</mgrwt>
</event>
<event>
 6    1  0.2436515E-005  0.3988575E+04  0.7818608E-02  0.8006855E-01
          2   -1    0    0  501    0  0.00000000000E+00  0.00000000000E+00  0.22799911474E+04  0.22799911474E+04  0.00000000000E+00 0.  1.
         -2   -1    0    0    0  501 -0.00000000000E+00 -0.00000000000E+00 -0.17443854302E+04  0.17443854302E+04  0.00000000000E+00 0. -1.
         23    2    1    2    0    0  0.44628097978E+03 -0.84140727768E+03 -0.14987466950E+04  0.17781079701E+04  0.91067983470E+02 0.  0.
         11    1    3    3    0    0  0.14281559758E+03 -0.18594913020E+03 -0.36293061314E+03  0.43207870103E+03  0.00000000000E+00 0. -1.
        -11    1    3    3    0    0  0.30346538220E+03 -0.65545814748E+03 -0.11358160819E+04  0.13460292691E+04  0.00000000000E+00 0.  1.
         22    1    1    2    0    0 -0.44628097978E+03  0.84140727768E+03  0.20343524122E+04  0.22462686075E+04  0.00000000000E+00 0.  1.
<mgrwt>
<rscale>  0 0.39885754E+04</rscale>
<asrwt>0</asrwt>
<pdfrwt beam="1">  1        2 0.35076787E+00 0.39885754E+04</pdfrwt>
<pdfrwt beam="2">  1       -2 0.26836699E+00 0.39885754E+04</pdfrwt>
<totfact> 0.18224590E-01</totfact>
</mgrwt>
</event>
<event>
 6    1  0.2436515E-005  0.1301908E+04  0.7818608E-02  0.9028054E-01
          2   -1    0    0  501    0  0.00000000000E+00  0.00000000000E+00  0.22530823004E+04  0.22530823004E+04  0.00000000000E+00 0.  1.
         -2   -1    0    0    0  501 -0.00000000000E+00 -0.00000000000E+00 -0.18807164046E+03  0.18807164046E+03  0.00000000000E+00 0. -1.
         23    2    1    2    0    0 -0.39799909265E+03 -0.32557497560E+03  0.29959765452E+03  0.60238113756E+03  0.93284177617E+02 0.  0.
         13    1    3    3    0    0 -0.15672541399E+03 -0.10618143110E+03  0.15913831823E+03  0.24731024247E+03  0.00000000000E+00 0.  1.
        -13    1    3    3    0    0 -0.24127367866E+03 -0.21939354450E+03  0.14045933630E+03  0.35507089509E+03  0.00000000000E+00 0. -1.
         22    1    1    2    0    0  0.39799909265E+03  0.32557497560E+03  0.17654130054E+04  0.18387728033E+04  0.00000000000E+00 0.  1.
<mgrwt>
<rscale>  0 0.13019077E+04</rscale>
<asrwt>0</asrwt>
<pdfrwt beam="1">  1        2 0.34662803E+00 0.13019077E+04</pdfrwt>
<pdfrwt beam="2">  1       -2 0.28934100E-01 0.13019077E+04</pdfrwt>
<totfact> 0.51944323E+01</totfact>
</mgrwt>
</event>
<event>
 6    1  0.2436515E-005  0.7501441E+03  0.7818608E-02  0.9635124E-01
          2   -1    0    0  501    0  0.00000000000E+00  0.00000000000E+00  0.85155610334E+03  0.85155610334E+03  0.00000000000E+00 0.  1.
         -2   -1    0    0    0  501 -0.00000000000E+00 -0.00000000000E+00 -0.16520233143E+03  0.16520233143E+03  0.00000000000E+00 0. -1.
         23    2    1    2    0    0  0.30044065174E+02  0.30008471500E+03  0.63730257008E+03  0.71121056220E+03  0.93340323090E+02 0.  0.
         13    1    3    3    0    0 -0.31582642645E+02  0.14457339486E+03  0.28048957915E+03  0.31713299076E+03  0.00000000000E+00 0. -1.
        -13    1    3    3    0    0  0.61626707819E+02  0.15551132015E+03  0.35681299094E+03  0.39407757144E+03  0.00000000000E+00 0.  1.
         22    1    1    2    0    0 -0.30044065174E+02 -0.30008471500E+03  0.49051201832E+02  0.30554787257E+03  0.00000000000E+00 0. -1.
<mgrwt>
<rscale>  0 0.75014413E+03</rscale>
<asrwt>0</asrwt>
<pdfrwt beam="1">  1        2 0.13100863E+00 0.75014413E+03</pdfrwt>
<pdfrwt beam="2">  1       -2 0.25415744E-01 0.75014413E+03</pdfrwt>
<totfact> 0.44281791E+02</totfact>
</mgrwt>
</event>
<event>
 6    1  0.2436515E-005  0.2119929E+04  0.7818608E-02  0.8552515E-01
          2   -1    0    0  501    0  0.00000000000E+00  0.00000000000E+00  0.25298182735E+04  0.25298182735E+04  0.00000000000E+00 0.  1.
         -2   -1    0    0    0  501 -0.00000000000E+00 -0.00000000000E+00 -0.44411263019E+03  0.44411263019E+03  0.00000000000E+00 0. -1.
         23    2    1    2    0    0 -0.30118475100E+03 -0.36544892561E+03 -0.28234008544E+03  0.55899700295E+03  0.92176754100E+02 0.  0.
         13    1    3    3    0    0 -0.11282062835E+03 -0.19837033875E+03 -0.16245464832E+03  0.28012639689E+03  0.00000000000E+00 0.  1.
        -13    1    3    3    0    0 -0.18836412265E+03 -0.16707858687E+03 -0.11988543712E+03  0.27887060606E+03  0.00000000000E+00 0. -1.
         22    1    1    2    0    0  0.30118475100E+03  0.36544892561E+03  0.23680457288E+04  0.24149339008E+04  0.00000000000E+00 0.  1.
<mgrwt>
<rscale>  0 0.21199285E+04</rscale>
<asrwt>0</asrwt>
<pdfrwt beam="1">  1        2 0.38920280E+00 0.21199285E+04</pdfrwt>
<pdfrwt beam="2">  1       -2 0.68325022E-01 0.21199285E+04</pdfrwt>
<totfact> 0.60330675E+00</totfact>
</mgrwt>
</event>
<event>
 6    1  0.2436515E-005  0.1504682E+04  0.7818608E-02  0.8881346E-01
          2   -1    0    0  501    0  0.00000000000E+00  0.00000000000E+00  0.67765282443E+03  0.67765282443E+03  0.00000000000E+00 0.  1.
         -2   -1    0    0    0  501 -0.00000000000E+00 -0.00000000000E+00 -0.83526066387E+03  0.83526066387E+03  0.00000000000E+00 0. -1.
         23    2    1    2    0    0  0.26702137320E+03  0.43599266042E+03  0.47195446931E+03  0.70190256711E+03  0.92391444007E+02 0.  0.
         13    1    3    3    0    0  0.20696514004E+03  0.32121620927E+03  0.40219186417E+03  0.55477267227E+03  0.00000000000E+00 0. -1.
        -13    1    3    3    0    0  0.60056233152E+02  0.11477645115E+03  0.69762605138E+02  0.14712989484E+03  0.00000000000E+00 0.  1.
         22    1    1    2    0    0 -0.26702137320E+03 -0.43599266042E+03 -0.62956230876E+03  0.81101092119E+03  0.00000000000E+00 0. -1.
<mgrwt>
<rscale>  0 0.15046817E+04</rscale>
<asrwt>0</asrwt>
<pdfrwt beam="1">  1        2 0.10425428E+00 0.15046817E+04</pdfrwt>
<pdfrwt beam="2">  1       -2 0.12850164E+00 0.15046817E+04</pdfrwt>
<totfact> 0.18433194E+01</totfact>
</mgrwt>
</event>
<event>
 6    1  0.4995293E-005  0.2891743E+04  0.7818608E-02  0.8275338E-01
          2   -1    0    0  501    0  0.00000000000E+00  0.00000000000E+00  0.22095906189E+04  0.22095906189E+04  0.00000000000E+00 0.  1.
         -2   -1    0    0    0  501 -0.00000000000E+00 -0.00000000000E+00 -0.94612308141E+03  0.94612308141E+03  0.00000000000E+00 0. -1.
         23    2    1    2    0    0 -0.10280921705E+04 -0.22442988094E+03  0.17121354428E+04  0.20117533986E+04  0.91660678079E+02 0.  0.
         13    1    3    3    0    0 -0.36588603977E+03 -0.42294718711E+02  0.55315018357E+03  0.66455741882E+03  0.00000000000E+00 0. -1.
        -13    1    3    3    0    0 -0.66220613075E+03 -0.18213516223E+03  0.11589852592E+04  0.13471959798E+04  0.00000000000E+00 0.  1.
         22    1    1    2    0    0  0.10280921705E+04  0.22442988094E+03 -0.44866790531E+03  0.11439603017E+04  0.00000000000E+00 0. -1.
<mgrwt>
<rscale>  0 0.28917432E+04</rscale>
<asrwt>0</asrwt>
<pdfrwt beam="1">  1        2 0.33993702E+00 0.28917432E+04</pdfrwt>
<pdfrwt beam="2">  1       -2 0.14555740E+00 0.28917432E+04</pdfrwt>
<totfact> 0.14287434E+00</totfact>
</mgrwt>
</event>
<event>
 6    1  0.2436515E-005  0.2552962E+04  0.7818608E-02  0.8384357E-01
          2   -1    0    0  501    0  0.00000000000E+00  0.00000000000E+00  0.16878749338E+04  0.16878749338E+04  0.00000000000E+00 0.  1.
         -2   -1    0    0    0  501 -0.00000000000E+00 -0.00000000000E+00 -0.96535773104E+03  0.96535773104E+03  0.00000000000E+00 0. -1.
         23    2    1    2    0    0  0.11845042582E+04  0.45630554619E+03  0.23907639658E+03  0.12949322186E+04  0.91797811665E+02 0.  0.
         13    1    3    3    0    0  0.45403876147E+03  0.16434652386E+03  0.13530407718E+03  0.50146602090E+03  0.00000000000E+00 0. -1.
        -13    1    3    3    0    0  0.73046549674E+03  0.29195902233E+03  0.10377231941E+03  0.79346619772E+03  0.00000000000E+00 0.  1.
         22    1    1    2    0    0 -0.11845042582E+04 -0.45630554619E+03  0.48344080621E+03  0.13583004463E+04  0.00000000000E+00 0. -1.
<mgrwt>
<rscale>  0 0.25529615E+04</rscale>
<asrwt>0</asrwt>
<pdfrwt beam="1">  1        2 0.25967307E+00 0.25529615E+04</pdfrwt>
<pdfrwt beam="2">  1       -2 0.14851657E+00 0.25529615E+04</pdfrwt>
<totfact> 0.27212705E+00</totfact>
</mgrwt>
</event>
<event>
 6    1  0.2436515E-005  0.4517301E+04  0.7818608E-02  0.7907615E-01
          2   -1    0    0  501    0  0.00000000000E+00  0.00000000000E+00  0.40597149187E+04  0.40597149187E+04  0.00000000000E+00 0. -1.
         -2   -1    0    0    0  501 -0.00000000000E+00 -0.00000000000E+00 -0.12566160338E+04  0.12566160338E+04  0.00000000000E+00 0.  1.
         23    2    1    2    0    0 -0.16142282130E+03  0.22518912285E+04  0.13811288382E+04  0.26481723654E+04  0.90711504831E+02 0.  0.
         13    1    3    3    0    0 -0.48948632615E+02  0.10472155805E+04  0.68456232897E+03  0.12520710934E+04  0.00000000000E+00 0. -1.
        -13    1    3    3    0    0 -0.11247418869E+03  0.12046756480E+04  0.69656650926E+03  0.13961012720E+04  0.00000000000E+00 0.  1.
         22    1    1    2    0    0  0.16142282130E+03 -0.22518912285E+04  0.14219700466E+04  0.26681585870E+04  0.00000000000E+00 0. -1.
<mgrwt>
<rscale>  0 0.45173013E+04</rscale>
<asrwt>0</asrwt>
<pdfrwt beam="1">  1        2 0.62457152E+00 0.45173013E+04</pdfrwt>
<pdfrwt beam="2">  1       -2 0.19332555E+00 0.45173013E+04</pdfrwt>
<totfact> 0.33904875E-02</totfact>
</mgrwt>
</event>
<event>
 6    1  0.2679583E-005  0.2067701E+04  0.7818608E-02  0.8575606E-01
          2   -1    0    0  501    0  0.00000000000E+00  0.00000000000E+00  0.17659697715E+04  0.17659697715E+04  0.00000000000E+00 0. -1.
         -2   -1    0    0    0  501 -0.00000000000E+00 -0.00000000000E+00 -0.60524640246E+03  0.60524640246E+03  0.00000000000E+00 0.  1.
         23    2    1    2    0    0  0.91789658848E+03  0.33836825912E+03  0.95774362896E+03  0.13721025664E+04  0.91462385766E+02 0.  0.
         13    1    3    3    0    0  0.40387055481E+03  0.16021934944E+03  0.36400643626E+03  0.56681774021E+03  0.00000000000E+00 0.  1.
        -13    1    3    3    0    0  0.51402603367E+03  0.17814890968E+03  0.59373719270E+03  0.80528482620E+03  0.00000000000E+00 0. -1.
         22    1    1    2    0    0 -0.91789658848E+03 -0.33836825912E+03  0.20297974008E+03  0.99911360756E+03  0.00000000000E+00 0.  1.
<mgrwt>
<rscale>  0 0.20677010E+04</rscale>
<asrwt>0</asrwt>
<pdfrwt beam="1">  1        2 0.27168765E+00 0.20677010E+04</pdfrwt>
<pdfrwt beam="2">  1       -2 0.93114832E-01 0.20677010E+04</pdfrwt>
<totfact> 0.81327610E+00</totfact>
</mgrwt>
</event>
<event>
 6    1  0.2436515E-005  0.4767545E+04  0.7818608E-02  0.7865402E-01
          2   -1    0    0  501    0  0.00000000000E+00  0.00000000000E+00  0.47115226294E+04  0.47115226294E+04  0.00000000000E+00 0.  1.
         -2   -1    0    0    0  501 -0.00000000000E+00 -0.00000000000E+00 -0.12060581601E+04  0.12060581601E+04  0.00000000000E+00 0. -1.
         23    2    1    2    0    0 -0.10326830608E+04 -0.90184316391E+03  0.41724662542E+04  0.43929015520E+04  0.91400257332E+02 0.  0.
         13    1    3    3    0    0 -0.37292586784E+03 -0.26860316263E+03  0.13851797872E+04  0.14594329052E+04  0.00000000000E+00 0.  1.
        -13    1    3    3    0    0 -0.65975719294E+03 -0.63324000129E+03  0.27872864670E+04  0.29334686468E+04  0.00000000000E+00 0. -1.
         22    1    1    2    0    0  0.10326830608E+04  0.90184316391E+03 -0.66700178480E+03  0.15246792375E+04  0.00000000000E+00 0. -1.
<mgrwt>
<rscale>  0 0.47675446E+04</rscale>
<asrwt>0</asrwt>
<pdfrwt beam="1">  1        2 0.72484963E+00 0.47675446E+04</pdfrwt>
<pdfrwt beam="2">  1       -2 0.18554741E+00 0.47675446E+04</pdfrwt>
<totfact> 0.90775112E-03</totfact>
</mgrwt>
</event>
<event>
 6    1  0.2436515E-005  0.1099628E+04  0.7818608E-02  0.9205554E-01
         -2   -1    0    0    0  501 -0.00000000000E+00  0.00000000000E+00  0.23129317509E+03  0.23129317509E+03  0.00000000000E+00 0. -1.
          2   -1    0    0  501    0  0.00000000000E+00 -0.00000000000E+00 -0.13069798097E+04  0.13069798097E+04  0.00000000000E+00 0.  1.
         23    2    1    2    0    0  0.34818400722E+03  0.83467441720E+02 -0.11182178586E+04  0.11777070106E+04  0.91562584656E+02 0.  0.
         13    1    3    3    0    0  0.57337501428E+02 -0.16572189278E+02 -0.13762388124E+03  0.15000853047E+03  0.00000000000E+00 0. -1.
        -13    1    3    3    0    0  0.29084650579E+03  0.10003963100E+03 -0.98059397731E+03  0.10276984801E+04  0.00000000000E+00 0.  1.
         22    1    1    2    0    0 -0.34818400722E+03 -0.83467441720E+02  0.42531223979E+02  0.36056597416E+03  0.00000000000E+00 0. -1.
<mgrwt>
<rscale>  0 0.10996281E+04</rscale>
<asrwt>0</asrwt>
<pdfrwt beam="1">  1        2 0.20107382E+00 0.10996281E+04</pdfrwt>
<pdfrwt beam="2">  1       -2 0.35583565E-01 0.10996281E+04</pdfrwt>
<totfact> 0.12056515E+02</totfact>
</mgrwt>
</event>
<event>
 6    1  0.2436515E-005  0.4690075E+04  0.7818608E-02  0.7878180E-01
         -2   -1    0    0    0  501 -0.00000000000E+00  0.00000000000E+00  0.22050235205E+04  0.22050235205E+04  0.00000000000E+00 0. -1.
          2   -1    0    0  501    0  0.00000000000E+00 -0.00000000000E+00 -0.24939416974E+04  0.24939416974E+04  0.00000000000E+00 0.  1.
         23    2    1    2    0    0 -0.14673345280E+04  0.62380844753E+03 -0.18661607993E+04  0.24562209422E+04  0.90871293385E+02 0.  0.
         13    1    3    3    0    0 -0.64299804583E+03  0.29170137953E+03 -0.89089655295E+03  0.11367642015E+04  0.00000000000E+00 0.  1.
        -13    1    3    3    0    0 -0.82433648218E+03  0.33210706800E+03 -0.97526424630E+03  0.13194567407E+04  0.00000000000E+00 0. -1.
         22    1    1    2    0    0  0.14673345280E+04 -0.62380844753E+03  0.15772426224E+04  0.22427442757E+04  0.00000000000E+00 0. -1.
<mgrwt>
<rscale>  0 0.46900747E+04</rscale>
<asrwt>0</asrwt>
<pdfrwt beam="1">  1        2 0.38368334E+00 0.46900747E+04</pdfrwt>
<pdfrwt beam="2">  1       -2 0.33923439E+00 0.46900747E+04</pdfrwt>
<totfact> 0.47608539E-02</totfact>
</mgrwt>
</event>
<event>
 6    1  0.2436515E-005  0.7313683E+03  0.7818608E-02  0.9665043E-01
          2   -1    0    0  501    0  0.00000000000E+00  0.00000000000E+00  0.98724799594E+03  0.98724799594E+03  0.00000000000E+00 0.  1.
         -2   -1    0    0    0  501 -0.00000000000E+00 -0.00000000000E+00 -0.13545217982E+03  0.13545217982E+03  0.00000000000E+00 0. -1.
         23    2    1    2    0    0 -0.87084048293E+02 -0.28949243237E+03  0.13261978343E+03  0.34256963164E+03  0.91522924446E+02 0.  0.
         13    1    3    3    0    0 -0.92681401458E+01 -0.17914495198E+03  0.59362925551E+02  0.18895176414E+03  0.00000000000E+00 0.  1.
        -13    1    3    3    0    0 -0.77815908147E+02 -0.11034748039E+03  0.73256857878E+02  0.15361786750E+03  0.00000000000E+00 0. -1.
         22    1    1    2    0    0  0.87084048293E+02  0.28949243237E+03  0.71917603269E+03  0.78013054412E+03  0.00000000000E+00 0.  1.
<mgrwt>
<rscale>  0 0.73136829E+03</rscale>
<asrwt>0</asrwt>
<pdfrwt beam="1">  1        2 0.15188430E+00 0.73136829E+03</pdfrwt>
<pdfrwt beam="2">  1       -2 0.20838798E-01 0.73136829E+03</pdfrwt>
<totfact> 0.51279241E+02</totfact>
</mgrwt>
</event>
<event>
 6    1  0.2436515E-005  0.1156377E+04  0.7818608E-02  0.9151920E-01
          1   -1    0    0  501    0  0.00000000000E+00  0.00000000000E+00  0.57348651031E+03  0.57348651031E+03  0.00000000000E+00 0.  1.
         -1   -1    0    0    0  501 -0.00000000000E+00 -0.00000000000E+00 -0.58292945543E+03  0.58292945543E+03  0.00000000000E+00 0. -1.
         23    2    1    2    0    0 -0.10708371781E+03 -0.37829561003E+02  0.55847983507E+03  0.57724907911E+03  0.91753881931E+02 0.  0.
         13    1    3    3    0    0 -0.61828619377E+02 -0.65208235228E+02  0.40695328211E+03  0.41675636281E+03  0.00000000000E+00 0.  1.
        -13    1    3    3    0    0 -0.45255098431E+02  0.27378674225E+02  0.15152655296E+03  0.16049271631E+03  0.00000000000E+00 0. -1.
         22    1    1    2    0    0  0.10708371781E+03  0.37829561003E+02 -0.56792278019E+03  0.57916688662E+03  0.00000000000E+00 0. -1.
<mgrwt>
<rscale>  0 0.11563774E+04</rscale>
<asrwt>0</asrwt>
<pdfrwt beam="1">  1        1 0.88228694E-01 0.11563774E+04</pdfrwt>
<pdfrwt beam="2">  1       -1 0.89681454E-01 0.11563774E+04</pdfrwt>
<totfact> 0.44200403E+01</totfact>
</mgrwt>
</event>
<event>
 6    1  0.2436515E-005  0.7550662E+03  0.7818608E-02  0.9627436E-01
          2   -1    0    0  501    0  0.00000000000E+00  0.00000000000E+00  0.18899255189E+04  0.18899255189E+04  0.00000000000E+00 0.  1.
         -2   -1    0    0    0  501 -0.00000000000E+00 -0.00000000000E+00 -0.75416335166E+02  0.75416335166E+02  0.00000000000E+00 0. -1.
         23    2    1    2    0    0 -0.66120146559E+02 -0.91548744405E+02  0.18431592933E+04  0.18488348793E+04  0.90560387208E+02 0.  0.
         11    1    3    3    0    0 -0.48658634257E+02 -0.64223376440E+02  0.17057099285E+04  0.17076119773E+04  0.00000000000E+00 0. -1.
        -11    1    3    3    0    0 -0.17461512302E+02 -0.27325367965E+02  0.13744936483E+03  0.14122290196E+03  0.00000000000E+00 0.  1.
         22    1    1    2    0    0  0.66120146559E+02  0.91548744405E+02 -0.28650109664E+02  0.11650697476E+03  0.00000000000E+00 0. -1.
<mgrwt>
<rscale>  0 0.75506624E+03</rscale>
<asrwt>0</asrwt>
<pdfrwt beam="1">  1        2 0.29075774E+00 0.75506624E+03</pdfrwt>
<pdfrwt beam="2">  1       -2 0.11602515E-01 0.75506624E+03</pdfrwt>
<totfact> 0.42233234E+02</totfact>
</mgrwt>
</event>
<event>
 6    1  0.2436515E-005  0.2808742E+04  0.7818608E-02  0.8300559E-01
          2   -1    0    0  501    0  0.00000000000E+00  0.00000000000E+00  0.23603372397E+04  0.23603372397E+04  0.00000000000E+00 0.  1.
         -2   -1    0    0    0  501 -0.00000000000E+00 -0.00000000000E+00 -0.83558315140E+03  0.83558315140E+03  0.00000000000E+00 0. -1.
         23    2    1    2    0    0  0.47515235897E+03 -0.49265589576E+03 -0.63019472769E+03  0.93488434641E+03  0.91562822682E+02 0.  0.
         13    1    3    3    0    0  0.14759673016E+03 -0.20241493351E+03 -0.26745562980E+03  0.36645479117E+03  0.00000000000E+00 0. -1.
        -13    1    3    3    0    0  0.32755562881E+03 -0.29024096225E+03 -0.36273909789E+03  0.56842955524E+03  0.00000000000E+00 0.  1.
         22    1    1    2    0    0 -0.47515235897E+03  0.49265589576E+03  0.21549488160E+04  0.22610360447E+04  0.00000000000E+00 0.  1.
<mgrwt>
<rscale>  0 0.28087421E+04</rscale>
<asrwt>0</asrwt>
<pdfrwt beam="1">  1        2 0.36312880E+00 0.28087421E+04</pdfrwt>
<pdfrwt beam="2">  1       -2 0.12855125E+00 0.28087421E+04</pdfrwt>
<totfact> 0.16271309E+00</totfact>
</mgrwt>
</event>
<event>
 6    1  0.2436515E-005  0.2223334E+04  0.7818608E-02  0.8508778E-01
          4   -1    0    0  501    0  0.00000000000E+00  0.00000000000E+00  0.13596902554E+04  0.13596902554E+04  0.00000000000E+00 0.  1.
         -4   -1    0    0    0  501 -0.00000000000E+00 -0.00000000000E+00 -0.90888635371E+03  0.90888635371E+03  0.00000000000E+00 0. -1.
         23    2    1    2    0    0 -0.10310437305E+04 -0.33922235430E+03  0.46194763886E+03  0.11831056685E+04  0.90666541983E+02 0.  0.
         11    1    3    3    0    0 -0.89075080463E+03 -0.25928583083E+03  0.39220724972E+03  0.10072202662E+04  0.00000000000E+00 0. -1.
        -11    1    3    3    0    0 -0.14029292592E+03 -0.79936523470E+02  0.69740389142E+02  0.17588540225E+03  0.00000000000E+00 0.  1.
         22    1    1    2    0    0  0.10310437305E+04  0.33922235430E+03 -0.11143737193E+02  0.10854709406E+04  0.00000000000E+00 0. -1.
<mgrwt>
<rscale>  0 0.22233344E+04</rscale>
<asrwt>0</asrwt>
<pdfrwt beam="1">  1        4 0.20918312E+00 0.22233344E+04</pdfrwt>
<pdfrwt beam="2">  1       -4 0.13982867E+00 0.22233344E+04</pdfrwt>
<totfact> 0.74878016E-02</totfact>
</mgrwt>
</event>
<event>
 6    1  0.2436515E-005  0.1662808E+04  0.7818608E-02  0.8782866E-01
          2   -1    0    0  501    0  0.00000000000E+00  0.00000000000E+00  0.14195116886E+04  0.14195116886E+04  0.00000000000E+00 0.  1.
         -2   -1    0    0    0  501 -0.00000000000E+00 -0.00000000000E+00 -0.48695074711E+03  0.48695074711E+03  0.00000000000E+00 0. -1.
         23    2    1    2    0    0  0.33409240362E+03  0.67126549432E+03  0.87263525768E+03  0.11542615412E+04  0.92802557288E+02 0.  0.
         13    1    3    3    0    0  0.31298578571E+03  0.65147016888E+03  0.85796355296E+03  0.11218176952E+04  0.00000000000E+00 0. -1.
        -13    1    3    3    0    0  0.21106617905E+02  0.19795325441E+02  0.14671704719E+02  0.32443846074E+02  0.00000000000E+00 0.  1.
         22    1    1    2    0    0 -0.33409240362E+03 -0.67126549432E+03  0.59925683788E+02  0.75220089444E+03  0.00000000000E+00 0. -1.
<mgrwt>
<rscale>  0 0.16628076E+04</rscale>
<asrwt>0</asrwt>
<pdfrwt beam="1">  1        2 0.21838641E+00 0.16628076E+04</pdfrwt>
<pdfrwt beam="2">  1       -2 0.74915500E-01 0.16628076E+04</pdfrwt>
<totfact> 0.21545097E+01</totfact>
</mgrwt>
</event>
<event>
 6    1  0.2436515E-005  0.2193317E+04  0.7818608E-02  0.8521215E-01
          2   -1    0    0  501    0  0.00000000000E+00  0.00000000000E+00  0.27298884266E+04  0.27298884266E+04  0.00000000000E+00 0.  1.
         -2   -1    0    0    0  501 -0.00000000000E+00 -0.00000000000E+00 -0.44055268761E+03  0.44055268761E+03  0.00000000000E+00 0. -1.
         23    2    1    2    0    0  0.49833051661E+03 -0.42456399404E+03 -0.12179303939E+03  0.67201563509E+03  0.90463144680E+02 0.  0.
         13    1    3    3    0    0  0.18887952648E+03 -0.20916324110E+03 -0.26139200325E+02  0.28303355763E+03  0.00000000000E+00 0. -1.
        -13    1    3    3    0    0  0.30945099013E+03 -0.21540075294E+03 -0.95653839070E+02  0.38898207746E+03  0.00000000000E+00 0.  1.
         22    1    1    2    0    0 -0.49833051661E+03  0.42456399404E+03  0.24111287784E+04  0.24984254792E+04  0.00000000000E+00 0.  1.
<mgrwt>
<rscale>  0 0.21933168E+04</rscale>
<asrwt>0</asrwt>
<pdfrwt beam="1">  1        2 0.41998282E+00 0.21933168E+04</pdfrwt>
<pdfrwt beam="2">  1       -2 0.67777338E-01 0.21933168E+04</pdfrwt>
<totfact> 0.46506450E+00</totfact>
</mgrwt>
</event>
<event>
 6    1  0.2436515E-005  0.1218214E+04  0.7818608E-02  0.9097061E-01
          2   -1    0    0  501    0  0.00000000000E+00  0.00000000000E+00  0.62218759851E+03  0.62218759851E+03  0.00000000000E+00 0.  1.
         -2   -1    0    0    0  501 -0.00000000000E+00 -0.00000000000E+00 -0.59630185734E+03  0.59630185734E+03  0.00000000000E+00 0. -1.
         23    2    1    2    0    0  0.39060487239E+03 -0.21034530171E+03 -0.39956194714E+03  0.60381633314E+03  0.90150442415E+02 0.  0.
         13    1    3    3    0    0  0.28805531526E+03 -0.18059209682E+03 -0.25954535584E+03  0.42773024422E+03  0.00000000000E+00 0. -1.
        -13    1    3    3    0    0  0.10254955713E+03 -0.29753204895E+02 -0.14001659130E+03  0.17608608892E+03  0.00000000000E+00 0.  1.
         22    1    1    2    0    0 -0.39060487239E+03  0.21034530171E+03  0.42544768831E+03  0.61467312271E+03  0.00000000000E+00 0.  1.
<mgrwt>
<rscale>  0 0.12182145E+04</rscale>
<asrwt>0</asrwt>
<pdfrwt beam="1">  1        2 0.95721169E-01 0.12182145E+04</pdfrwt>
<pdfrwt beam="2">  1       -2 0.91738747E-01 0.12182145E+04</pdfrwt>
<totfact> 0.47300348E+01</totfact>
</mgrwt>
</event>
<event>
 6    1  0.2436515E-005  0.1170855E+04  0.7818608E-02  0.9138756E-01
         -2   -1    0    0    0  501 -0.00000000000E+00  0.00000000000E+00  0.14407213289E+03  0.14407213289E+03  0.00000000000E+00 0. -1.
          2   -1    0    0  501    0  0.00000000000E+00 -0.00000000000E+00 -0.23788469899E+04  0.23788469899E+04  0.00000000000E+00 0.  1.
         23    2    1    2    0    0 -0.55132653527E+03 -0.60390729914E+02 -0.15036499233E+04  0.16052309092E+04  0.90527294649E+02 0.  0.
         11    1    3    3    0    0 -0.92480670399E+02 -0.37683081404E+02 -0.33342803579E+03  0.34806169579E+03  0.00000000000E+00 0.  1.
        -11    1    3    3    0    0 -0.45884586487E+03 -0.22707648511E+02 -0.11702218875E+04  0.12571692134E+04  0.00000000000E+00 0. -1.
         22    1    1    2    0    0  0.55132653527E+03  0.60390729914E+02 -0.73112493366E+03  0.91768821359E+03  0.00000000000E+00 0.  1.
<mgrwt>
<rscale>  0 0.11708553E+04</rscale>
<asrwt>0</asrwt>
<pdfrwt beam="1">  1        2 0.36597644E+00 0.11708553E+04</pdfrwt>
<pdfrwt beam="2">  1       -2 0.22164945E-01 0.11708553E+04</pdfrwt>
<totfact> 0.72391135E+01</totfact>
</mgrwt>
</event>
<event>
 6    1  0.2436515E-005  0.1254319E+04  0.7818608E-02  0.9066597E-01
         -2   -1    0    0    0  501 -0.00000000000E+00  0.00000000000E+00  0.66727904793E+03  0.66727904793E+03  0.00000000000E+00 0. -1.
          2   -1    0    0  501    0  0.00000000000E+00 -0.00000000000E+00 -0.58945171965E+03  0.58945171965E+03  0.00000000000E+00 0.  1.
         23    2    1    2    0    0 -0.13184084579E+03 -0.40722472671E+03 -0.41545816132E+03  0.60362697728E+03  0.92444887529E+02 0.  0.
         11    1    3    3    0    0 -0.95749609254E+02 -0.20754193776E+03 -0.27112592478E+03  0.35461374859E+03  0.00000000000E+00 0.  1.
        -11    1    3    3    0    0 -0.36091236536E+02 -0.19968278895E+03 -0.14433223654E+03  0.24901322869E+03  0.00000000000E+00 0. -1.
         22    1    1    2    0    0  0.13184084579E+03  0.40722472671E+03  0.49328548960E+03  0.65310379030E+03  0.00000000000E+00 0. -1.
<mgrwt>
<rscale>  0 0.12543186E+04</rscale>
<asrwt>0</asrwt>
<pdfrwt beam="1">  1        2 0.90684880E-01 0.12543186E+04</pdfrwt>
<pdfrwt beam="2">  1       -2 0.10265832E+00 0.12543186E+04</pdfrwt>
<totfact> 0.38664658E+01</totfact>
</mgrwt>
</event>
<event>
 6    1  0.2436515E-005  0.3509510E+04  0.7818608E-02  0.8111540E-01
         -2   -1    0    0    0  501 -0.00000000000E+00  0.00000000000E+00  0.68908743067E+03  0.68908743067E+03  0.00000000000E+00 0. -1.
          2   -1    0    0  501    0  0.00000000000E+00 -0.00000000000E+00 -0.44684683547E+04  0.44684683547E+04  0.00000000000E+00 0.  1.
         23    2    1    2    0    0  0.15165756002E+04 -0.15781466897E+03 -0.31638543702E+04  0.35132383101E+04  0.89229631220E+02 0.  0.
         13    1    3    3    0    0  0.13823738725E+04 -0.16771100545E+03 -0.28649033610E+04  0.31853972707E+04  0.00000000000E+00 0.  1.
        -13    1    3    3    0    0  0.13420172771E+03  0.98963364761E+01 -0.29895100919E+03  0.32784103937E+03  0.00000000000E+00 0. -1.
         22    1    1    2    0    0 -0.15165756002E+04  0.15781466897E+03 -0.61552655388E+03  0.16443174753E+04  0.00000000000E+00 0. -1.
<mgrwt>
<rscale>  0 0.35095102E+04</rscale>
<asrwt>0</asrwt>
<pdfrwt beam="1">  1        2 0.68745668E+00 0.35095102E+04</pdfrwt>
<pdfrwt beam="2">  1       -2 0.10601345E+00 0.35095102E+04</pdfrwt>
<totfact> 0.77534457E-02</totfact>
</mgrwt>
</event>
<event>
 6    1  0.2436515E-005  0.3067190E+04  0.7818608E-02  0.8224800E-01
         -2   -1    0    0    0  501 -0.00000000000E+00  0.00000000000E+00  0.18292174413E+04  0.18292174413E+04  0.00000000000E+00 0. -1.
          2   -1    0    0  501    0  0.00000000000E+00 -0.00000000000E+00 -0.12857483333E+04  0.12857483333E+04  0.00000000000E+00 0.  1.
         23    2    1    2    0    0 -0.25134841226E+03 -0.48458719545E+03 -0.11809594501E+04  0.13061941953E+04  0.11609168288E+03 0.  0.
         11    1    3    3    0    0 -0.22100749118E+03 -0.36252742514E+03 -0.81065744458E+03  0.91511525918E+03  0.00000000000E+00 0.  1.
        -11    1    3    3    0    0 -0.30340921089E+02 -0.12205977031E+03 -0.37030200549E+03  0.39107893614E+03  0.00000000000E+00 0. -1.
         22    1    1    2    0    0  0.25134841226E+03  0.48458719545E+03  0.17244285580E+04  0.18087715793E+04  0.00000000000E+00 0. -1.
<mgrwt>
<rscale>  0 0.30671898E+04</rscale>
<asrwt>0</asrwt>
<pdfrwt beam="1">  1        2 0.19780744E+00 0.30671898E+04</pdfrwt>
<pdfrwt beam="2">  1       -2 0.28141807E+00 0.30671898E+04</pdfrwt>
<totfact> 0.59220778E-01</totfact>
</mgrwt>
</event>
<event>
 6    1  0.2907427E-005  0.3179821E+04  0.7818608E-02  0.8194167E-01
         -2   -1    0    0    0  501 -0.00000000000E+00  0.00000000000E+00  0.16101622858E+04  0.16101622858E+04  0.00000000000E+00 0. -1.
          2   -1    0    0  501    0  0.00000000000E+00 -0.00000000000E+00 -0.15699132081E+04  0.15699132081E+04  0.00000000000E+00 0.  1.
         23    2    1    2    0    0  0.14241121468E+04 -0.64472290631E+03  0.30269084588E+03  0.15949449901E+04  0.92004024643E+02 0.  0.
         13    1    3    3    0    0  0.72781102405E+03 -0.29792701740E+03  0.18873957765E+03  0.80875955796E+03  0.00000000000E+00 0. -1.
        -13    1    3    3    0    0  0.69630112278E+03 -0.34679588891E+03  0.11395126822E+03  0.78618543212E+03  0.00000000000E+00 0.  1.
         22    1    1    2    0    0 -0.14241121468E+04  0.64472290631E+03 -0.26244176820E+03  0.15851305039E+04  0.00000000000E+00 0.  1.
<mgrwt>
<rscale>  0 0.31798208E+04</rscale>
<asrwt>0</asrwt>
<pdfrwt beam="1">  1        2 0.24152511E+00 0.31798208E+04</pdfrwt>
<pdfrwt beam="2">  1       -2 0.24771727E+00 0.31798208E+04</pdfrwt>
<totfact> 0.64910141E-01</totfact>
</mgrwt>
</event>
<event>
 6    1  0.2436515E-005  0.1693655E+04  0.7818608E-02  0.8764991E-01
          3   -1    0    0  501    0  0.00000000000E+00  0.00000000000E+00  0.58741263995E+03  0.58741263995E+03  0.00000000000E+00 0.  1.
         -3   -1    0    0    0  501 -0.00000000000E+00 -0.00000000000E+00 -0.12208063296E+04  0.12208063296E+04  0.00000000000E+00 0. -1.
         23    2    1    2    0    0 -0.45939999209E+03  0.43340900727E+03  0.28082653440E+03  0.69705276308E+03  0.90151493490E+02 0.  0.
         11    1    3    3    0    0 -0.18348638360E+03  0.13233553790E+03  0.66242281211E+02  0.23572863080E+03  0.00000000000E+00 0. -1.
        -11    1    3    3    0    0 -0.27591360849E+03  0.30107346937E+03  0.21458425319E+03  0.46132413228E+03  0.00000000000E+00 0.  1.
         22    1    1    2    0    0  0.45939999209E+03 -0.43340900727E+03 -0.91422022407E+03  0.11111662065E+04  0.00000000000E+00 0. -1.
<mgrwt>
<rscale>  0 0.16936553E+04</rscale>
<asrwt>0</asrwt>
<pdfrwt beam="1">  1        3 0.90371177E-01 0.16936553E+04</pdfrwt>
<pdfrwt beam="2">  1       -3 0.18781635E+00 0.16936553E+04</pdfrwt>
<totfact> 0.48307976E-01</totfact>
</mgrwt>
</event>
<event>
 6    1  0.2436515E-005  0.2957469E+04  0.7818608E-02  0.8255981E-01
         -2   -1    0    0    0  501 -0.00000000000E+00  0.00000000000E+00  0.48618295969E+03  0.48618295969E+03  0.00000000000E+00 0.  1.
          2   -1    0    0  501    0  0.00000000000E+00 -0.00000000000E+00 -0.44975998753E+04  0.44975998753E+04  0.00000000000E+00 0. -1.
         23    2    1    2    0    0 -0.13249682464E+04 -0.10519594336E+03 -0.30942852955E+04  0.33689337866E+04  0.92229754544E+02 0.  0.
         11    1    3    3    0    0 -0.83385877659E+03 -0.63074736251E+02 -0.18324821343E+04  0.20142714947E+04  0.00000000000E+00 0.  1.
        -11    1    3    3    0    0 -0.49110946985E+03 -0.42121207108E+02 -0.12618031612E+04  0.13546622919E+04  0.00000000000E+00 0. -1.
         22    1    1    2    0    0  0.13249682464E+04  0.10519594336E+03 -0.91713162005E+03  0.16148490484E+04  0.00000000000E+00 0. -1.
<mgrwt>
<rscale>  0 0.29574695E+04</rscale>
<asrwt>0</asrwt>
<pdfrwt beam="1">  1        2 0.69193848E+00 0.29574695E+04</pdfrwt>
<pdfrwt beam="2">  1       -2 0.74797374E-01 0.29574695E+04</pdfrwt>
<totfact> 0.17070309E-01</totfact>
</mgrwt>
</event>
<event>
 6    1  0.2436515E-005  0.1757691E+04  0.7818608E-02  0.8729128E-01
          2   -1    0    0  501    0  0.00000000000E+00  0.00000000000E+00  0.67119055259E+03  0.67119055259E+03  0.00000000000E+00 0.  1.
         -2   -1    0    0    0  501 -0.00000000000E+00 -0.00000000000E+00 -0.11507459929E+04  0.11507459929E+04  0.00000000000E+00 0. -1.
         23    2    1    2    0    0 -0.40062729407E+03 -0.47629980553E+03 -0.88014019812E+03  0.10817798852E+04  0.90759122186E+02 0.  0.
         11    1    3    3    0    0 -0.36148209656E+03 -0.40645147291E+03 -0.71629770988E+03  0.89941898754E+03  0.00000000000E+00 0. -1.
        -11    1    3    3    0    0 -0.39145197511E+02 -0.69848332622E+02 -0.16384248824E+03  0.18236089770E+03  0.00000000000E+00 0.  1.
         22    1    1    2    0    0  0.40062729407E+03  0.47629980553E+03  0.40058475783E+03  0.74015666024E+03  0.00000000000E+00 0.  1.
<mgrwt>
<rscale>  0 0.17576915E+04</rscale>
<asrwt>0</asrwt>
<pdfrwt beam="1">  1        2 0.10326009E+00 0.17576915E+04</pdfrwt>
<pdfrwt beam="2">  1       -2 0.17703784E+00 0.17576915E+04</pdfrwt>
<totfact> 0.77743924E+00</totfact>
</mgrwt>
</event>
<event>
 6    1  0.2436515E-005  0.2671504E+04  0.7818608E-02  0.8344311E-01
          2   -1    0    0  501    0  0.00000000000E+00  0.00000000000E+00  0.98482703604E+03  0.98482703604E+03  0.00000000000E+00 0.  1.
         -2   -1    0    0    0  501 -0.00000000000E+00 -0.00000000000E+00 -0.18117227243E+04  0.18117227243E+04  0.00000000000E+00 0. -1.
         23    2    1    2    0    0 -0.12435678286E+04 -0.48511890214E+02 -0.91739755995E+03  0.15487497217E+04  0.90515577244E+02 0.  0.
         13    1    3    3    0    0 -0.10316508446E+04 -0.54382216371E+02 -0.72139966219E+03  0.12600310961E+04  0.00000000000E+00 0. -1.
        -13    1    3    3    0    0 -0.21191698400E+03  0.58703261572E+01 -0.19599789776E+03  0.28871862559E+03  0.00000000000E+00 0.  1.
         22    1    1    2    0    0  0.12435678286E+04  0.48511890214E+02  0.90501871657E+02  0.12478000387E+04  0.00000000000E+00 0.  1.
<mgrwt>
<rscale>  0 0.26715041E+04</rscale>
<asrwt>0</asrwt>
<pdfrwt beam="1">  1        2 0.15151185E+00 0.26715041E+04</pdfrwt>
<pdfrwt beam="2">  1       -2 0.27872657E+00 0.26715041E+04</pdfrwt>
<totfact> 0.97125433E-01</totfact>
</mgrwt>
</event>
<event>
 6    1  0.2436515E-005  0.2722099E+04  0.7818608E-02  0.8327870E-01
          2   -1    0    0  501    0  0.00000000000E+00  0.00000000000E+00  0.19022588512E+04  0.19022588512E+04  0.00000000000E+00 0.  1.
         -2   -1    0    0    0  501 -0.00000000000E+00 -0.00000000000E+00 -0.97381915333E+03  0.97381915333E+03  0.00000000000E+00 0. -1.
         23    2    1    2    0    0  0.79947439630E+03  0.88092233753E+03  0.11600579693E+04  0.16641248294E+04  0.91615940209E+02 0.  0.
         13    1    3    3    0    0  0.25944482421E+03  0.34156605069E+03  0.38546219025E+03  0.57668022674E+03  0.00000000000E+00 0. -1.
        -13    1    3    3    0    0  0.54002957209E+03  0.53935628684E+03  0.77459577909E+03  0.10874446027E+04  0.00000000000E+00 0.  1.
         22    1    1    2    0    0 -0.79947439630E+03 -0.88092233753E+03 -0.23161827145E+03  0.12119531752E+04  0.00000000000E+00 0. -1.
<mgrwt>
<rscale>  0 0.27220993E+04</rscale>
<asrwt>0</asrwt>
<pdfrwt beam="1">  1        2 0.29265521E+00 0.27220993E+04</pdfrwt>
<pdfrwt beam="2">  1       -2 0.14981833E+00 0.27220993E+04</pdfrwt>
<totfact> 0.19932389E+00</totfact>
</mgrwt>
</event>
<event>
 6    1  0.2436515E-005  0.3698013E+04  0.7818608E-02  0.8068402E-01
          2   -1    0    0  501    0  0.00000000000E+00  0.00000000000E+00  0.29930483344E+04  0.29930483344E+04  0.00000000000E+00 0.  1.
         -2   -1    0    0    0  501 -0.00000000000E+00 -0.00000000000E+00 -0.11422555048E+04  0.11422555048E+04  0.00000000000E+00 0. -1.
         23    2    1    2    0    0  0.17564766702E+04  0.62555859795E+01  0.15669320363E+04  0.23560269143E+04  0.10167295255E+03 0.  0.
         13    1    3    3    0    0  0.14435206147E+04  0.42576605669E+02  0.12718008429E+04  0.19243289523E+04  0.00000000000E+00 0. -1.
        -13    1    3    3    0    0  0.31295605547E+03 -0.36321019690E+02  0.29513119334E+03  0.43169796201E+03  0.00000000000E+00 0.  1.
         22    1    1    2    0    0 -0.17564766702E+04 -0.62555859795E+01  0.28386079333E+03  0.17792769249E+04  0.00000000000E+00 0. -1.
<mgrwt>
<rscale>  0 0.36980135E+04</rscale>
<asrwt>0</asrwt>
<pdfrwt beam="1">  1        2 0.46046897E+00 0.36980135E+04</pdfrwt>
<pdfrwt beam="2">  1       -2 0.17573162E+00 0.36980135E+04</pdfrwt>
<totfact> 0.27592247E-01</totfact>
</mgrwt>
</event>
<event>
 6    1  0.2436515E-005  0.3940781E+04  0.7818608E-02  0.8016601E-01
          1   -1    0    0  501    0  0.00000000000E+00  0.00000000000E+00  0.20181350139E+04  0.20181350139E+04  0.00000000000E+00 0.  1.
         -1   -1    0    0    0  501 -0.00000000000E+00 -0.00000000000E+00 -0.19237751875E+04  0.19237751875E+04  0.00000000000E+00 0. -1.
         23    2    1    2    0    0 -0.40786353884E+03 -0.12449665113E+04  0.15179371472E+04  0.20072612233E+04  0.93113667234E+02 0.  0.
         11    1    3    3    0    0 -0.23830820608E+03 -0.86061156418E+03  0.10518560715E+04  0.13797986305E+04  0.00000000000E+00 0. -1.
        -11    1    3    3    0    0 -0.16955533276E+03 -0.38435494715E+03  0.46608107563E+03  0.62746259277E+03  0.00000000000E+00 0.  1.
         22    1    1    2    0    0  0.40786353884E+03  0.12449665113E+04 -0.14235773207E+04  0.19346489782E+04  0.00000000000E+00 0. -1.
<mgrwt>
<rscale>  0 0.39407807E+04</rscale>
<asrwt>0</asrwt>
<pdfrwt beam="1">  1        1 0.31048231E+00 0.39407807E+04</pdfrwt>
<pdfrwt beam="2">  1       -1 0.29596541E+00 0.39407807E+04</pdfrwt>
<totfact> 0.79903387E-02</totfact>
</mgrwt>
</event>
<event>
 6    1  0.2436515E-005  0.2097443E+04  0.7818608E-02  0.8562371E-01
         -2   -1    0    0    0  501 -0.00000000000E+00  0.00000000000E+00  0.80989874076E+03  0.80989874076E+03  0.00000000000E+00 0. -1.
          2   -1    0    0  501    0  0.00000000000E+00 -0.00000000000E+00 -0.13579677887E+04  0.13579677887E+04  0.00000000000E+00 0.  1.
         23    2    1    2    0    0 -0.20202988485E+02 -0.37674009332E+03  0.73466791222E+03  0.83079683508E+03  0.90250658014E+02 0.  0.
         13    1    3    3    0    0 -0.39982223419E+02 -0.28693503894E+03  0.61551312351E+03  0.68028427880E+03  0.00000000000E+00 0.  1.
        -13    1    3    3    0    0  0.19779234935E+02 -0.89805054381E+02  0.11915478871E+03  0.15051255629E+03  0.00000000000E+00 0. -1.
         22    1    1    2    0    0  0.20202988485E+02  0.37674009332E+03 -0.12827369602E+04  0.13370696944E+04  0.00000000000E+00 0.  1.
<mgrwt>
<rscale>  0 0.20974426E+04</rscale>
<asrwt>0</asrwt>
<pdfrwt beam="1">  1        2 0.20891812E+00 0.20974426E+04</pdfrwt>
<pdfrwt beam="2">  1       -2 0.12459981E+00 0.20974426E+04</pdfrwt>
<totfact> 0.68173646E+00</totfact>
</mgrwt>
</event>
<event>
 6    1  0.2436515E-005  0.1449085E+04  0.7818608E-02  0.8919035E-01
         -2   -1    0    0    0  501 -0.00000000000E+00  0.00000000000E+00  0.25015433222E+03  0.25015433222E+03  0.00000000000E+00 0. -1.
          2   -1    0    0  501    0  0.00000000000E+00 -0.00000000000E+00 -0.20985526884E+04  0.20985526884E+04  0.00000000000E+00 0.  1.
         23    2    1    2    0    0  0.68034814345E+02  0.31098312758E+03 -0.19776213986E+04  0.20051406714E+04  0.90903653339E+02 0.  0.
         11    1    3    3    0    0  0.63971469977E+02  0.14970068675E+03 -0.11971899168E+04  0.12082079049E+04  0.00000000000E+00 0.  1.
        -11    1    3    3    0    0  0.40633443682E+01  0.16128244083E+03 -0.78043148185E+03  0.79693276652E+03  0.00000000000E+00 0. -1.
         22    1    1    2    0    0 -0.68034814345E+02 -0.31098312758E+03  0.12922304247E+03  0.34356634921E+03  0.00000000000E+00 0. -1.
<mgrwt>
<rscale>  0 0.14490853E+04</rscale>
<asrwt>0</asrwt>
<pdfrwt beam="1">  1        2 0.32285425E+00 0.14490853E+04</pdfrwt>
<pdfrwt beam="2">  1       -2 0.38485283E-01 0.14490853E+04</pdfrwt>
<totfact> 0.36442490E+01</totfact>
</mgrwt>
</event>
<event>
 6    1  0.2436515E-005  0.1715204E+04  0.7818608E-02  0.8752740E-01
          2   -1    0    0  501    0  0.00000000000E+00  0.00000000000E+00  0.19319775477E+04  0.19319775477E+04  0.00000000000E+00 0.  1.
         -2   -1    0    0    0  501 -0.00000000000E+00 -0.00000000000E+00 -0.38068815428E+03  0.38068815428E+03  0.00000000000E+00 0. -1.
         23    2    1    2    0    0 -0.15058838530E+03 -0.42618489806E+03 -0.20105135920E+03  0.50296723472E+03  0.90796261178E+02 0.  0.
         13    1    3    3    0    0 -0.76860434524E+02 -0.22860281607E+03 -0.57745557105E+02  0.24799460332E+03  0.00000000000E+00 0. -1.
        -13    1    3    3    0    0 -0.73727950772E+02 -0.19758208199E+03 -0.14330580209E+03  0.25497263140E+03  0.00000000000E+00 0.  1.
         22    1    1    2    0    0  0.15058838530E+03  0.42618489806E+03  0.17523407526E+04  0.18096984672E+04  0.00000000000E+00 0.  1.
<mgrwt>
<rscale>  0 0.17152037E+04</rscale>
<asrwt>0</asrwt>
<pdfrwt beam="1">  1        2 0.29722731E+00 0.17152037E+04</pdfrwt>
<pdfrwt beam="2">  1       -2 0.58567409E-01 0.17152037E+04</pdfrwt>
<totfact> 0.18882145E+01</totfact>
</mgrwt>
</event>
<event>
 6    1  0.2436515E-005  0.2322333E+04  0.7818608E-02  0.8469167E-01
         -2   -1    0    0    0  501 -0.00000000000E+00  0.00000000000E+00  0.19817817528E+04  0.19817817528E+04  0.00000000000E+00 0.  1.
          2   -1    0    0  501    0  0.00000000000E+00 -0.00000000000E+00 -0.68035122837E+03  0.68035122837E+03  0.00000000000E+00 0. -1.
         23    2    1    2    0    0 -0.43964340593E+02 -0.99357095041E+03  0.13357503736E+04  0.16669978402E+04  0.74408616293E+02 0.  0.
         13    1    3    3    0    0 -0.44481170009E+02 -0.71116981759E+03  0.90353628198E+03  0.11507036529E+04  0.00000000000E+00 0. -1.
        -13    1    3    3    0    0  0.51682941575E+00 -0.28240113282E+03  0.43221409158E+03  0.51629418735E+03  0.00000000000E+00 0.  1.
         22    1    1    2    0    0  0.43964340593E+02  0.99357095041E+03 -0.34319849092E+02  0.99513514096E+03  0.00000000000E+00 0. -1.
<mgrwt>
<rscale>  0 0.23223330E+04</rscale>
<asrwt>0</asrwt>
<pdfrwt beam="1">  1        2 0.10466942E+00 0.23223330E+04</pdfrwt>
<pdfrwt beam="2">  1       -2 0.30488950E+00 0.23223330E+04</pdfrwt>
<totfact> 0.11406748E+00</totfact>
</mgrwt>
</event>
<event>
 6    1  0.2436515E-005  0.1557746E+04  0.7818608E-02  0.8846935E-01
         -2   -1    0    0    0  501 -0.00000000000E+00  0.00000000000E+00  0.63081901986E+03  0.63081901986E+03  0.00000000000E+00 0. -1.
          2   -1    0    0  501    0  0.00000000000E+00 -0.00000000000E+00 -0.96167578827E+03  0.96167578827E+03  0.00000000000E+00 0.  1.
         23    2    1    2    0    0  0.22753757657E+03 -0.60048929229E+02 -0.92226588510E+03  0.95598560476E+03  0.89190195844E+02 0.  0.
         13    1    3    3    0    0  0.16491513511E+03 -0.34164469148E+02 -0.48291975594E+03  0.51144472177E+03  0.00000000000E+00 0. -1.
        -13    1    3    3    0    0  0.62622441458E+02 -0.25884460082E+02 -0.43934612916E+03  0.44454088300E+03  0.00000000000E+00 0.  1.
         22    1    1    2    0    0 -0.22753757657E+03  0.60048929229E+02  0.59140911670E+03  0.63650920337E+03  0.00000000000E+00 0. -1.
<mgrwt>
<rscale>  0 0.15577463E+04</rscale>
<asrwt>0</asrwt>
<pdfrwt beam="1">  1        2 0.14795012E+00 0.15577463E+04</pdfrwt>
<pdfrwt beam="2">  1       -2 0.97049081E-01 0.15577463E+04</pdfrwt>
<totfact> 0.22753686E+01</totfact>
</mgrwt>
</event>
<event>
 6    1  0.2436515E-005  0.2014344E+03  0.7818608E-02  0.1148534E+00
          2   -1    0    0  501    0  0.00000000000E+00  0.00000000000E+00  0.89156107135E+02  0.89156107135E+02  0.00000000000E+00 0.  1.
         -2   -1    0    0    0  501 -0.00000000000E+00 -0.00000000000E+00 -0.11377748430E+03  0.11377748430E+03  0.00000000000E+00 0. -1.
         23    2    1    2    0    0 -0.56426664420E+02  0.29225672435E+02  0.30346498837E+02  0.11891230973E+03  0.95818156042E+02 0.  0.
         13    1    3    3    0    0 -0.40437355139E+02 -0.31782480689E+02  0.82799287980E+01  0.52094750122E+02  0.00000000000E+00 0.  1.
        -13    1    3    3    0    0 -0.15989309281E+02  0.61008153124E+02  0.22066570039E+02  0.66817559610E+02  0.00000000000E+00 0. -1.
         22    1    1    2    0    0  0.56426664420E+02 -0.29225672435E+02 -0.54967876001E+02  0.84021281702E+02  0.00000000000E+00 0. -1.
<mgrwt>
<rscale>  0 0.20143443E+03</rscale>
<asrwt>0</asrwt>
<pdfrwt beam="1">  1        2 0.13716324E-01 0.20143443E+03</pdfrwt>
<pdfrwt beam="2">  1       -2 0.17504228E-01 0.20143443E+03</pdfrwt>
<totfact> 0.11091296E+04</totfact>
</mgrwt>
</event>
<event>
 6    1  0.2436515E-005  0.1787022E+04  0.7818608E-02  0.8713231E-01
         -2   -1    0    0    0  501 -0.00000000000E+00  0.00000000000E+00  0.50418851977E+03  0.50418851977E+03  0.00000000000E+00 0. -1.
          2   -1    0    0  501    0  0.00000000000E+00 -0.00000000000E+00 -0.15834597225E+04  0.15834597225E+04  0.00000000000E+00 0.  1.
         23    2    1    2    0    0  0.11759820421E+03  0.83908898184E+03 -0.86390472703E+03  0.12134157927E+04  0.90259910822E+02 0.  0.
         13    1    3    3    0    0  0.49899240736E+02  0.63636079256E+03 -0.65203271135E+03  0.91246460161E+03  0.00000000000E+00 0. -1.
        -13    1    3    3    0    0  0.67698963470E+02  0.20272818928E+03 -0.21187201568E+03  0.30095119108E+03  0.00000000000E+00 0.  1.
         22    1    1    2    0    0 -0.11759820421E+03 -0.83908898184E+03 -0.21536647574E+03  0.87423244961E+03  0.00000000000E+00 0. -1.
<mgrwt>
<rscale>  0 0.17870223E+04</rscale>
<asrwt>0</asrwt>
<pdfrwt beam="1">  1        2 0.24360919E+00 0.17870223E+04</pdfrwt>
<pdfrwt beam="2">  1       -2 0.77567464E-01 0.17870223E+04</pdfrwt>
<totfact> 0.15949034E+01</totfact>
</mgrwt>
</event>
<event>
 6    1  0.2605324E-005  0.4008611E+04  0.7818608E-02  0.8002812E-01
          2   -1    0    0  501    0  0.00000000000E+00  0.00000000000E+00  0.17064239171E+04  0.17064239171E+04  0.00000000000E+00 0.  1.
         -2   -1    0    0    0  501 -0.00000000000E+00 -0.00000000000E+00 -0.23541865741E+04  0.23541865741E+04  0.00000000000E+00 0. -1.
         23    2    1    2    0    0  0.16644327524E+04  0.11142383624E+04 -0.28929746875E+03  0.20258228347E+04  0.91660334147E+02 0.  0.
         11    1    3    3    0    0  0.74927717213E+03  0.45821339725E+03 -0.98772845618E+02  0.88381665131E+03  0.00000000000E+00 0.  1.
        -11    1    3    3    0    0  0.91515558026E+03  0.65602496515E+03 -0.19052462314E+03  0.11420061834E+04  0.00000000000E+00 0. -1.
         22    1    1    2    0    0 -0.16644327524E+04 -0.11142383624E+04 -0.35846518829E+03  0.20347876564E+04  0.00000000000E+00 0. -1.
<mgrwt>
<rscale>  0 0.40086109E+04</rscale>
<asrwt>0</asrwt>
<pdfrwt beam="1">  1        2 0.26252676E+00 0.40086109E+04</pdfrwt>
<pdfrwt beam="2">  1       -2 0.36218255E+00 0.40086109E+04</pdfrwt>
<totfact> 0.99834503E-02</totfact>
</mgrwt>
</event>
<event>
 6    1  0.2436515E-005  0.7182625E+03  0.7818608E-02  0.9686501E-01
          2   -1    0    0  501    0  0.00000000000E+00  0.00000000000E+00  0.53426629406E+03  0.53426629406E+03  0.00000000000E+00 0.  1.
         -2   -1    0    0    0  501 -0.00000000000E+00 -0.00000000000E+00 -0.24140632636E+03  0.24140632636E+03  0.00000000000E+00 0. -1.
         23    2    1    2    0    0  0.28881770659E+03 -0.42895617169E+02 -0.66101911510E+02  0.31295312404E+03  0.91183844647E+02 0.  0.
         13    1    3    3    0    0  0.12033540579E+03 -0.54182723924E+02 -0.57271484414E+02  0.14386243563E+03  0.00000000000E+00 0. -1.
        -13    1    3    3    0    0  0.16848230080E+03  0.11287106755E+02 -0.88304270963E+01  0.16909068841E+03  0.00000000000E+00 0.  1.
         22    1    1    2    0    0 -0.28881770659E+03  0.42895617169E+02  0.35896187920E+03  0.46271949639E+03  0.00000000000E+00 0.  1.
<mgrwt>
<rscale>  0 0.71826252E+03</rscale>
<asrwt>0</asrwt>
<pdfrwt beam="1">  1        2 0.82194814E-01 0.71826252E+03</pdfrwt>
<pdfrwt beam="2">  1       -2 0.37139435E-01 0.71826252E+03</pdfrwt>
<totfact> 0.39218823E+02</totfact>
</mgrwt>
</event>
<event>
 6    1  0.2964610E-005  0.3529979E+04  0.7818608E-02  0.8106722E-01
         -1   -1    0    0    0  501 -0.00000000000E+00  0.00000000000E+00  0.11461421227E+04  0.11461421227E+04  0.00000000000E+00 0. -1.
          1   -1    0    0  501    0  0.00000000000E+00 -0.00000000000E+00 -0.27179764260E+04  0.27179764260E+04  0.00000000000E+00 0.  1.
         23    2    1    2    0    0 -0.15335015615E+04 -0.74914741461E+03 -0.12740316364E+04  0.21316245902E+04  0.88418860954E+02 0.  0.
         11    1    3    3    0    0 -0.59738698604E+03 -0.32528854318E+03 -0.46876725262E+03  0.82609114784E+03  0.00000000000E+00 0. -1.
        -11    1    3    3    0    0 -0.93611457546E+03 -0.42385887143E+03 -0.80526438377E+03  0.13055334423E+04  0.00000000000E+00 0.  1.
         22    1    1    2    0    0  0.15335015615E+04  0.74914741461E+03 -0.29780266685E+03  0.17324939585E+04  0.00000000000E+00 0. -1.
<mgrwt>
<rscale>  0 0.35299786E+04</rscale>
<asrwt>0</asrwt>
<pdfrwt beam="1">  1        1 0.41815022E+00 0.35299786E+04</pdfrwt>
<pdfrwt beam="2">  1       -1 0.17632956E+00 0.35299786E+04</pdfrwt>
<totfact> 0.17150993E-01</totfact>
</mgrwt>
</event>
<event>
 6    1  0.2436515E-005  0.1601317E+04  0.7818608E-02  0.8819739E-01
         -2   -1    0    0    0  501 -0.00000000000E+00  0.00000000000E+00  0.16842193956E+04  0.16842193956E+04  0.00000000000E+00 0. -1.
          2   -1    0    0  501    0  0.00000000000E+00 -0.00000000000E+00 -0.38062400404E+03  0.38062400404E+03  0.00000000000E+00 0.  1.
         23    2    1    2    0    0  0.23269693103E+03 -0.28661379900E+03 -0.25833462077E+03  0.45987589377E+03  0.91944167272E+02 0.  0.
         13    1    3    3    0    0  0.58472626386E+02 -0.14355186817E+03 -0.10759928946E+03  0.18868967641E+03  0.00000000000E+00 0. -1.
        -13    1    3    3    0    0  0.17422430464E+03 -0.14306193083E+03 -0.15073533131E+03  0.27118621736E+03  0.00000000000E+00 0.  1.
         22    1    1    2    0    0 -0.23269693103E+03  0.28661379900E+03  0.15619300123E+04  0.16049675059E+04  0.00000000000E+00 0. -1.
<mgrwt>
<rscale>  0 0.16013174E+04</rscale>
<asrwt>0</asrwt>
<pdfrwt beam="1">  1        2 0.58557540E-01 0.16013174E+04</pdfrwt>
<pdfrwt beam="2">  1       -2 0.25911067E+00 0.16013174E+04</pdfrwt>
<totfact> 0.45588792E+00</totfact>
</mgrwt>
</event>
<event>
 6    1  0.2436515E-005  0.4828234E+04  0.7818608E-02  0.7855564E-01
          2   -1    0    0  501    0  0.00000000000E+00  0.00000000000E+00  0.22514404036E+04  0.22514404036E+04  0.00000000000E+00 0.  1.
         -2   -1    0    0    0  501 -0.00000000000E+00 -0.00000000000E+00 -0.25885476977E+04  0.25885476977E+04  0.00000000000E+00 0. -1.
         23    2    1    2    0    0 -0.11913473380E+04  0.23589946027E+02 -0.22722916359E+04  0.25673677190E+04  0.90569093539E+02 0.  0.
         13    1    3    3    0    0 -0.11728189460E+04  0.15616954526E+02 -0.22495369875E+04  0.25369597607E+04  0.00000000000E+00 0. -1.
        -13    1    3    3    0    0 -0.18528392019E+02  0.79729915009E+01 -0.22754648422E+02  0.30407958318E+02  0.00000000000E+00 0.  1.
         22    1    1    2    0    0  0.11913473380E+04 -0.23589946027E+02  0.19351843418E+04  0.22726203823E+04  0.00000000000E+00 0.  1.
<mgrwt>
<rscale>  0 0.48282340E+04</rscale>
<asrwt>0</asrwt>
<pdfrwt beam="1">  1        2 0.34637545E+00 0.48282340E+04</pdfrwt>
<pdfrwt beam="2">  1       -2 0.39823811E+00 0.48282340E+04</pdfrwt>
<totfact> 0.27182955E-02</totfact>
</mgrwt>
</event>
<event>
 6    1  0.2436515E-005  0.7752189E+03  0.7818608E-02  0.9596596E-01
         -1   -1    0    0    0  501 -0.00000000000E+00  0.00000000000E+00  0.10180188429E+03  0.10180188429E+03  0.00000000000E+00 0. -1.
          1   -1    0    0  501    0  0.00000000000E+00 -0.00000000000E+00 -0.14758184377E+04  0.14758184377E+04  0.00000000000E+00 0.  1.
         23    2    1    2    0    0  0.29333595832E+03 -0.19258398469E+03 -0.10053284097E+04  0.10686355257E+04  0.90344339766E+02 0.  0.
         13    1    3    3    0    0  0.10458539241E+03 -0.67596612137E+02 -0.23800758528E+03  0.26861685898E+03  0.00000000000E+00 0. -1.
        -13    1    3    3    0    0  0.18875056591E+03 -0.12498737255E+03 -0.76732082445E+03  0.80001866670E+03  0.00000000000E+00 0.  1.
         22    1    1    2    0    0 -0.29333595832E+03  0.19258398469E+03 -0.36868814372E+03  0.50898479636E+03  0.00000000000E+00 0. -1.
<mgrwt>
<rscale>  0 0.77521893E+03</rscale>
<asrwt>0</asrwt>
<pdfrwt beam="1">  1        1 0.22704899E+00 0.77521893E+03</pdfrwt>
<pdfrwt beam="2">  1       -1 0.15661829E-01 0.77521893E+03</pdfrwt>
<totfact> 0.21186175E+02</totfact>
</mgrwt>
</event>
<event>
 6    1  0.2436515E-005  0.3420000E+04  0.7818608E-02  0.8133015E-01
         -2   -1    0    0    0  501 -0.00000000000E+00  0.00000000000E+00  0.12249161778E+04  0.12249161778E+04  0.00000000000E+00 0. -1.
          2   -1    0    0  501    0  0.00000000000E+00 -0.00000000000E+00 -0.23871839309E+04  0.23871839309E+04  0.00000000000E+00 0.  1.
         23    2    1    2    0    0  0.13839538714E+04  0.20240379476E+03 -0.16183419184E+04  0.21409443526E+04  0.91195075790E+02 0.  0.
         13    1    3    3    0    0  0.43982544512E+03  0.39257943756E+02 -0.56387922530E+03  0.71620345507E+03  0.00000000000E+00 0. -1.
        -13    1    3    3    0    0  0.94412842628E+03  0.16314585101E+03 -0.10544626931E+04  0.14247408975E+04  0.00000000000E+00 0.  1.
         22    1    1    2    0    0 -0.13839538714E+04 -0.20240379476E+03  0.45607416526E+03  0.14711557560E+04  0.00000000000E+00 0. -1.
<mgrwt>
<rscale>  0 0.34200001E+04</rscale>
<asrwt>0</asrwt>
<pdfrwt beam="1">  1        2 0.36725906E+00 0.34200001E+04</pdfrwt>
<pdfrwt beam="2">  1       -2 0.18844865E+00 0.34200001E+04</pdfrwt>
<totfact> 0.53092918E-01</totfact>
</mgrwt>
</event>
<event>
 6    1  0.2436515E-005  0.3023344E+04  0.7818608E-02  0.8237096E-01
         -2   -1    0    0    0  501 -0.00000000000E+00  0.00000000000E+00  0.18646643572E+04  0.18646643572E+04  0.00000000000E+00 0. -1.
          2   -1    0    0  501    0  0.00000000000E+00 -0.00000000000E+00 -0.12255032677E+04  0.12255032677E+04  0.00000000000E+00 0.  1.
         23    2    1    2    0    0  0.20862147146E+03 -0.40872413816E+03  0.17905699312E+04  0.18506835951E+04  0.91163320634E+02 0.  0.
         13    1    3    3    0    0  0.79459825188E+02 -0.11974928539E+03  0.72448837051E+03  0.73860487013E+03  0.00000000000E+00 0.  1.
        -13    1    3    3    0    0  0.12916164627E+03 -0.28897485277E+03  0.10660815607E+04  0.11120787249E+04  0.00000000000E+00 0. -1.
         22    1    1    2    0    0 -0.20862147146E+03  0.40872413816E+03 -0.11514088417E+04  0.12394840298E+04  0.00000000000E+00 0.  1.
<mgrwt>
<rscale>  0 0.30233440E+04</rscale>
<asrwt>0</asrwt>
<pdfrwt beam="1">  1        2 0.18853897E+00 0.30233440E+04</pdfrwt>
<pdfrwt beam="2">  1       -2 0.28687144E+00 0.30233440E+04</pdfrwt>
<totfact> 0.59743190E-01</totfact>
</mgrwt>
</event>
<event>
 6    1  0.2436515E-005  0.2372165E+04  0.7818608E-02  0.8449999E-01
          2   -1    0    0  501    0  0.00000000000E+00  0.00000000000E+00  0.42453421746E+04  0.42453421746E+04  0.00000000000E+00 0.  1.
         -2   -1    0    0    0  501 -0.00000000000E+00 -0.00000000000E+00 -0.33137297593E+03  0.33137297593E+03  0.00000000000E+00 0. -1.
         23    2    1    2    0    0 -0.78273885081E+03 -0.34471588440E+03  0.35404226815E+04  0.36434166184E+04  0.91557318073E+02 0.  0.
         11    1    3    3    0    0 -0.64198334376E+03 -0.25991244553E+03  0.29779553086E+04  0.30574360031E+04  0.00000000000E+00 0. -1.
        -11    1    3    3    0    0 -0.14075550705E+03 -0.84803438869E+02  0.56246737283E+03  0.58598061530E+03  0.00000000000E+00 0.  1.
         22    1    1    2    0    0  0.78273885081E+03  0.34471588440E+03  0.37354651723E+03  0.93329853212E+03  0.00000000000E+00 0. -1.
<mgrwt>
<rscale>  0 0.23721650E+04</rscale>
<asrwt>0</asrwt>
<pdfrwt beam="1">  1        2 0.65312953E+00 0.23721650E+04</pdfrwt>
<pdfrwt beam="2">  1       -2 0.50980461E-01 0.23721650E+04</pdfrwt>
<totfact> 0.70010849E-01</totfact>
</mgrwt>
</event>
<event>
 6    1  0.2436515E-005  0.2493495E+04  0.7818608E-02  0.8405307E-01
         -2   -1    0    0    0  501 -0.00000000000E+00  0.00000000000E+00  0.93839558333E+03  0.93839558333E+03  0.00000000000E+00 0. -1.
          2   -1    0    0  501    0  0.00000000000E+00 -0.00000000000E+00 -0.16564221625E+04  0.16564221625E+04  0.00000000000E+00 0.  1.
         23    2    1    2    0    0  0.83570596873E+03  0.44413083172E+03 -0.12014562954E+04  0.15321037898E+04  0.90488291993E+02 0.  0.
         13    1    3    3    0    0  0.29144072476E+03  0.14241594861E+03 -0.34635054569E+03  0.47452997689E+03  0.00000000000E+00 0. -1.
        -13    1    3    3    0    0  0.54426524397E+03  0.30171488311E+03 -0.85510574971E+03  0.10575738129E+04  0.00000000000E+00 0.  1.
         22    1    1    2    0    0 -0.83570596873E+03 -0.44413083172E+03  0.48342971623E+03  0.10627139561E+04  0.00000000000E+00 0. -1.
<mgrwt>
<rscale>  0 0.24934949E+04</rscale>
<asrwt>0</asrwt>
<pdfrwt beam="1">  1        2 0.25483418E+00 0.24934949E+04</pdfrwt>
<pdfrwt beam="2">  1       -2 0.14436855E+00 0.24934949E+04</pdfrwt>
<totfact> 0.30679537E+00</totfact>
</mgrwt>
</event>
<event>
 6    1  0.2436515E-005  0.2840276E+04  0.7818608E-02  0.8290872E-01
         -2   -1    0    0    0  501 -0.00000000000E+00  0.00000000000E+00  0.25979800714E+04  0.25979800714E+04  0.00000000000E+00 0. -1.
          2   -1    0    0  501    0  0.00000000000E+00 -0.00000000000E+00 -0.77629234325E+03  0.77629234325E+03  0.00000000000E+00 0.  1.
         23    2    1    2    0    0 -0.81975286151E+03  0.52044674383E+03 -0.31705038710E+03  0.10254300843E+04  0.90146229940E+02 0.  0.
         11    1    3    3    0    0 -0.48974828599E+03  0.25815875485E+03 -0.17683858739E+03  0.58118087746E+03  0.00000000000E+00 0.  1.
        -11    1    3    3    0    0 -0.33000457552E+03  0.26228798897E+03 -0.14021179971E+03  0.44424920687E+03  0.00000000000E+00 0. -1.
         22    1    1    2    0    0  0.81975286151E+03 -0.52044674383E+03  0.21387381153E+04  0.23488423304E+04  0.00000000000E+00 0. -1.
<mgrwt>
<rscale>  0 0.28402761E+04</rscale>
<asrwt>0</asrwt>
<pdfrwt beam="1">  1        2 0.11942959E+00 0.28402761E+04</pdfrwt>
<pdfrwt beam="2">  1       -2 0.39968924E+00 0.28402761E+04</pdfrwt>
<totfact> 0.23173058E-01</totfact>
</mgrwt>
</event>
<event>
 6    1  0.2436515E-005  0.2455404E+04  0.7818608E-02  0.8419047E-01
          2   -1    0    0  501    0  0.00000000000E+00  0.00000000000E+00  0.13408628508E+04  0.13408628508E+04  0.00000000000E+00 0.  1.
         -2   -1    0    0    0  501 -0.00000000000E+00 -0.00000000000E+00 -0.11240915217E+04  0.11240915217E+04  0.00000000000E+00 0. -1.
         23    2    1    2    0    0 -0.57811166886E+03 -0.99379970151E+03  0.53802943318E+03  0.12711965587E+04  0.67926957783E+02 0.  0.
         13    1    3    3    0    0 -0.17464383339E+03 -0.24644511923E+03  0.12721637147E+03  0.32774940199E+03  0.00000000000E+00 0. -1.
        -13    1    3    3    0    0 -0.40346783547E+03 -0.74735458228E+03  0.41081306171E+03  0.94344715675E+03  0.00000000000E+00 0.  1.
         22    1    1    2    0    0  0.57811166886E+03  0.99379970151E+03 -0.32125810407E+03  0.11937578137E+04  0.00000000000E+00 0. -1.
<mgrwt>
<rscale>  0 0.24554043E+04</rscale>
<asrwt>0</asrwt>
<pdfrwt beam="1">  1        2 0.20628659E+00 0.24554043E+04</pdfrwt>
<pdfrwt beam="2">  1       -2 0.17293716E+00 0.24554043E+04</pdfrwt>
<totfact> 0.28466563E+00</totfact>
</mgrwt>
</event>
<event>
 6    1  0.2436515E-005  0.2420757E+04  0.7818608E-02  0.8431773E-01
         -2   -1    0    0    0  501 -0.00000000000E+00  0.00000000000E+00  0.10161852691E+04  0.10161852691E+04  0.00000000000E+00 0. -1.
          2   -1    0    0  501    0  0.00000000000E+00 -0.00000000000E+00 -0.14416822680E+04  0.14416822680E+04  0.00000000000E+00 0.  1.
         23    2    1    2    0    0 -0.80757010881E+03 -0.44371148844E+02  0.69888672849E+03  0.10728126480E+04  0.91356658537E+02 0.  0.
         11    1    3    3    0    0 -0.52227297884E+03 -0.50230726109E+02  0.50177377579E+03  0.72599525641E+03  0.00000000000E+00 0. -1.
        -11    1    3    3    0    0 -0.28529712997E+03  0.58595772649E+01  0.19711295271E+03  0.34681739163E+03  0.00000000000E+00 0.  1.
         22    1    1    2    0    0  0.80757010881E+03  0.44371148844E+02 -0.11243837273E+04  0.13850548891E+04  0.00000000000E+00 0.  1.
<mgrwt>
<rscale>  0 0.24207571E+04</rscale>
<asrwt>0</asrwt>
<pdfrwt beam="1">  1        2 0.22179727E+00 0.24207571E+04</pdfrwt>
<pdfrwt beam="2">  1       -2 0.15633620E+00 0.24207571E+04</pdfrwt>
<totfact> 0.32991371E+00</totfact>
</mgrwt>
</event>
<event>
 6    1  0.2436515E-005  0.2001546E+04  0.7818608E-02  0.8605898E-01
          2   -1    0    0  501    0  0.00000000000E+00  0.00000000000E+00  0.14593738201E+04  0.14593738201E+04  0.00000000000E+00 0.  1.
         -2   -1    0    0    0  501 -0.00000000000E+00 -0.00000000000E+00 -0.68628483020E+03  0.68628483020E+03  0.00000000000E+00 0. -1.
         23    2    1    2    0    0  0.39604878638E+03  0.59270696763E+02 -0.59338111374E+03  0.72171756976E+03  0.91692135283E+02 0.  0.
         13    1    3    3    0    0  0.19021681075E+03  0.39611978500E+02 -0.36603795798E+03  0.41440961695E+03  0.00000000000E+00 0. -1.
        -13    1    3    3    0    0  0.20583197563E+03  0.19658718262E+02 -0.22734315576E+03  0.30730795281E+03  0.00000000000E+00 0.  1.
         22    1    1    2    0    0 -0.39604878638E+03 -0.59270696763E+02  0.13664701036E+04  0.14239410805E+04  0.00000000000E+00 0.  1.
<mgrwt>
<rscale>  0 0.20015455E+04</rscale>
<asrwt>0</asrwt>
<pdfrwt beam="1">  1        2 0.22451905E+00 0.20015455E+04</pdfrwt>
<pdfrwt beam="2">  1       -2 0.10558228E+00 0.20015455E+04</pdfrwt>
<totfact> 0.90204342E+00</totfact>
</mgrwt>
</event>
<event>
 6    1  0.2436515E-005  0.1246734E+04  0.7818608E-02  0.9072906E-01
          1   -1    0    0  501    0  0.00000000000E+00  0.00000000000E+00  0.56997578023E+03  0.56997578023E+03  0.00000000000E+00 0.  1.
         -1   -1    0    0    0  501 -0.00000000000E+00 -0.00000000000E+00 -0.68175922679E+03  0.68175922679E+03  0.00000000000E+00 0. -1.
         23    2    1    2    0    0 -0.25205085193E+03  0.20101059616E+03  0.47551833425E+03  0.58176614695E+03  0.91647541149E+02 0.  0.
         11    1    3    3    0    0 -0.22845281618E+03  0.15537900991E+03  0.34835025014E+03  0.44461356560E+03  0.00000000000E+00 0.  1.
        -11    1    3    3    0    0 -0.23598035753E+02  0.45631586253E+02  0.12716808411E+03  0.13715258135E+03  0.00000000000E+00 0. -1.
         22    1    1    2    0    0  0.25205085193E+03 -0.20101059616E+03 -0.58730178081E+03  0.66996886008E+03  0.00000000000E+00 0. -1.
<mgrwt>
<rscale>  0 0.12467337E+04</rscale>
<asrwt>0</asrwt>
<pdfrwt beam="1">  1        1 0.87688582E-01 0.12467337E+04</pdfrwt>
<pdfrwt beam="2">  1       -1 0.10488603E+00 0.12467337E+04</pdfrwt>
<totfact> 0.31059564E+01</totfact>
</mgrwt>
</event>
<event>
 6    1  0.2436515E-005  0.1084093E+04  0.7818608E-02  0.9220836E-01
          2   -1    0    0  501    0  0.00000000000E+00  0.00000000000E+00  0.63673198107E+03  0.63673198107E+03  0.00000000000E+00 0.  1.
         -2   -1    0    0    0  501 -0.00000000000E+00 -0.00000000000E+00 -0.46144107461E+03  0.46144107461E+03  0.00000000000E+00 0. -1.
         23    2    1    2    0    0 -0.29671502078E+03  0.17169693523E+02 -0.36655655556E+03  0.48016555246E+03  0.88660292171E+02 0.  0.
         11    1    3    3    0    0 -0.24532976898E+03  0.90763248185E+01 -0.23993504914E+03  0.34327525840E+03  0.00000000000E+00 0. -1.
        -11    1    3    3    0    0 -0.51385251799E+02  0.80933687046E+01 -0.12662150642E+03  0.13689029406E+03  0.00000000000E+00 0.  1.
         22    1    1    2    0    0  0.29671502078E+03 -0.17169693523E+02  0.54184746202E+03  0.61800750322E+03  0.00000000000E+00 0.  1.
<mgrwt>
<rscale>  0 0.10840928E+04</rscale>
<asrwt>0</asrwt>
<pdfrwt beam="1">  1        2 0.97958766E-01 0.10840928E+04</pdfrwt>
<pdfrwt beam="2">  1       -2 0.70990935E-01 0.10840928E+04</pdfrwt>
<totfact> 0.82677404E+01</totfact>
</mgrwt>
</event>
<event>
 6    1  0.2436515E-005  0.1489871E+04  0.7818608E-02  0.8891217E-01
         -2   -1    0    0    0  501 -0.00000000000E+00  0.00000000000E+00  0.29757877591E+04  0.29757877591E+04  0.00000000000E+00 0. -1.
          2   -1    0    0  501    0  0.00000000000E+00 -0.00000000000E+00 -0.18648139221E+03  0.18648139221E+03  0.00000000000E+00 0.  1.
         23    2    1    2    0    0  0.26522877830E+01  0.41945115454E+03  0.26991520986E+04  0.27332305775E+04  0.95817707900E+02 0.  0.
         13    1    3    3    0    0  0.17663553915E+02  0.18173247273E+03  0.89606434484E+03  0.91447799475E+03  0.00000000000E+00 0. -1.
        -13    1    3    3    0    0 -0.15011266132E+02  0.23771868180E+03  0.18030877537E+04  0.18187525828E+04  0.00000000000E+00 0.  1.
         22    1    1    2    0    0 -0.26522877830E+01 -0.41945115454E+03  0.90154268319E+02  0.42903857375E+03  0.00000000000E+00 0.  1.
<mgrwt>
<rscale>  0 0.14898712E+04</rscale>
<asrwt>0</asrwt>
<pdfrwt beam="1">  1        2 0.28689447E-01 0.14898712E+04</pdfrwt>
<pdfrwt beam="2">  1       -2 0.45781347E+00 0.14898712E+04</pdfrwt>
<totfact> 0.56317043E-01</totfact>
</mgrwt>
</event>
<event>
 6    1  0.2436515E-005  0.6841141E+04  0.7818608E-02  0.7594044E-01
          1   -1    0    0  501    0  0.00000000000E+00  0.00000000000E+00  0.38044001349E+04  0.38044001349E+04  0.00000000000E+00 0.  1.
         -1   -1    0    0    0  501 -0.00000000000E+00 -0.00000000000E+00 -0.30754655357E+04  0.30754655357E+04  0.00000000000E+00 0. -1.
         23    2    1    2    0    0 -0.11709999995E+04 -0.26310878164E+04 -0.14902303302E+04  0.32441323084E+04  0.98711198504E+02 0.  0.
         13    1    3    3    0    0 -0.20889099454E+03 -0.45785515452E+03 -0.30286130226E+03  0.58735999057E+03  0.00000000000E+00 0.  1.
        -13    1    3    3    0    0 -0.96210900500E+03 -0.21732326619E+04 -0.11873690280E+04  0.26567723178E+04  0.00000000000E+00 0. -1.
         22    1    1    2    0    0  0.11709999995E+04  0.26310878164E+04  0.22191649295E+04  0.36357333622E+04  0.00000000000E+00 0.  1.
<mgrwt>
<rscale>  0 0.68411407E+04</rscale>
<asrwt>0</asrwt>
<pdfrwt beam="1">  1        1 0.58529232E+00 0.68411407E+04</pdfrwt>
<pdfrwt beam="2">  1       -1 0.47314855E+00 0.68411407E+04</pdfrwt>
<totfact> 0.20020187E-04</totfact>
</mgrwt>
</event>
<event>
 6    1  0.2436515E-005  0.1770321E+04  0.7818608E-02  0.8722244E-01
         -2   -1    0    0    0  501 -0.00000000000E+00  0.00000000000E+00  0.10822400662E+04  0.10822400662E+04  0.00000000000E+00 0. -1.
          2   -1    0    0  501    0  0.00000000000E+00 -0.00000000000E+00 -0.72396950384E+03  0.72396950384E+03  0.00000000000E+00 0.  1.
         23    2    1    2    0    0 -0.77311960897E+03  0.13887280251E+03 -0.23135136025E+03  0.82404176530E+03  0.92313563634E+02 0.  0.
         11    1    3    3    0    0 -0.32633714949E+03  0.19556066884E+02 -0.70605546377E+02  0.33446003957E+03  0.00000000000E+00 0. -1.
        -11    1    3    3    0    0 -0.44678245947E+03  0.11931673563E+03 -0.16074581387E+03  0.48958172573E+03  0.00000000000E+00 0.  1.
         22    1    1    2    0    0  0.77311960897E+03 -0.13887280251E+03  0.58962192263E+03  0.98216780475E+03  0.00000000000E+00 0. -1.
<mgrwt>
<rscale>  0 0.17703207E+04</rscale>
<asrwt>0</asrwt>
<pdfrwt beam="1">  1        2 0.11137992E+00 0.17703207E+04</pdfrwt>
<pdfrwt beam="2">  1       -2 0.16649847E+00 0.17703207E+04</pdfrwt>
<totfact> 0.83818482E+00</totfact>
</mgrwt>
</event>
<event>
 6    1  0.2436515E-005  0.1529916E+04  0.7818608E-02  0.8864799E-01
         -2   -1    0    0    0  501 -0.00000000000E+00  0.00000000000E+00  0.19301451092E+03  0.19301451092E+03  0.00000000000E+00 0.  1.
          2   -1    0    0  501    0  0.00000000000E+00 -0.00000000000E+00 -0.30316921737E+04  0.30316921737E+04  0.00000000000E+00 0. -1.
         23    2    1    2    0    0 -0.33290665335E+03  0.67775290872E+03 -0.12049516986E+04  0.14249188162E+04  0.91154768170E+02 0.  0.
         11    1    3    3    0    0 -0.11986610027E+03  0.15874777888E+03 -0.29028412423E+03  0.35190000295E+03  0.00000000000E+00 0.  1.
        -11    1    3    3    0    0 -0.21304055308E+03  0.51900512984E+03 -0.91466757434E+03  0.10730188133E+04  0.00000000000E+00 0. -1.
         22    1    1    2    0    0  0.33290665335E+03 -0.67775290872E+03 -0.16337259642E+04  0.17997878684E+04  0.00000000000E+00 0. -1.
<mgrwt>
<rscale>  0 0.15299158E+04</rscale>
<asrwt>0</asrwt>
<pdfrwt beam="1">  1        2 0.46641418E+00 0.15299158E+04</pdfrwt>
<pdfrwt beam="2">  1       -2 0.29694540E-01 0.15299158E+04</pdfrwt>
<totfact> 0.16878309E+01</totfact>
</mgrwt>
</event>
<event>
 6    1  0.2436515E-005  0.1396019E+04  0.7818608E-02  0.8956705E-01
         -2   -1    0    0    0  501 -0.00000000000E+00  0.00000000000E+00  0.33986139708E+03  0.33986139708E+03  0.00000000000E+00 0. -1.
          2   -1    0    0  501    0  0.00000000000E+00 -0.00000000000E+00 -0.14335770861E+04  0.14335770861E+04  0.00000000000E+00 0.  1.
         23    2    1    2    0    0 -0.58755261192E+02 -0.56713285599E+03 -0.44390832029E+02  0.57921299671E+03  0.91789392193E+02 0.  0.
         11    1    3    3    0    0 -0.52121830894E+02 -0.24601982268E+03 -0.56709603641E+02  0.25779530165E+03  0.00000000000E+00 0. -1.
        -11    1    3    3    0    0 -0.66334302989E+01 -0.32111303331E+03  0.12318771613E+02  0.32141769506E+03  0.00000000000E+00 0.  1.
         22    1    1    2    0    0  0.58755261192E+02  0.56713285599E+03 -0.10493248570E+04  0.11942254865E+04  0.00000000000E+00 0.  1.
<mgrwt>
<rscale>  0 0.13960194E+04</rscale>
<asrwt>0</asrwt>
<pdfrwt beam="1">  1        2 0.22055032E+00 0.13960194E+04</pdfrwt>
<pdfrwt beam="2">  1       -2 0.52286369E-01 0.13960194E+04</pdfrwt>
<totfact> 0.46527686E+01</totfact>
</mgrwt>
</event>
<event>
 6    1  0.2436515E-005  0.3307090E+04  0.7818608E-02  0.8161094E-01
         -2   -1    0    0    0  501 -0.00000000000E+00  0.00000000000E+00  0.23366898352E+04  0.23366898352E+04  0.00000000000E+00 0. -1.
          2   -1    0    0  501    0  0.00000000000E+00 -0.00000000000E+00 -0.11701212886E+04  0.11701212886E+04  0.00000000000E+00 0.  1.
         23    2    1    2    0    0  0.12858533848E+04  0.11361309543E+03  0.16773734799E+04  0.21185573493E+04  0.91523705106E+02 0.  0.
         11    1    3    3    0    0  0.61416479265E+03  0.77811653899E+02  0.86828699031E+03  0.10663842382E+04  0.00000000000E+00 0.  1.
        -11    1    3    3    0    0  0.67168859212E+03  0.35801441529E+02  0.80908648962E+03  0.10521731111E+04  0.00000000000E+00 0. -1.
         22    1    1    2    0    0 -0.12858533848E+04 -0.11361309543E+03 -0.51080493334E+03  0.13882537745E+04  0.00000000000E+00 0.  1.
<mgrwt>
<rscale>  0 0.33070897E+04</rscale>
<asrwt>0</asrwt>
<pdfrwt beam="1">  1        2 0.18001866E+00 0.33070897E+04</pdfrwt>
<pdfrwt beam="2">  1       -2 0.35949074E+00 0.33070897E+04</pdfrwt>
<totfact> 0.22313319E-01</totfact>
</mgrwt>
</event>
<event>
 6    1  0.2436515E-005  0.1225585E+04  0.7818608E-02  0.9090753E-01
          2   -1    0    0  501    0  0.00000000000E+00  0.00000000000E+00  0.72397553195E+03  0.72397553195E+03  0.00000000000E+00 0.  1.
         -2   -1    0    0    0  501 -0.00000000000E+00 -0.00000000000E+00 -0.51868381463E+03  0.51868381463E+03  0.00000000000E+00 0. -1.
         23    2    1    2    0    0  0.18371145176E+03 -0.57093467222E+03  0.20860937133E+03  0.64288663607E+03  0.10034470379E+03 0.  0.
         11    1    3    3    0    0  0.95223034838E+02 -0.15391812276E+03  0.47145484338E+02  0.18703184641E+03  0.00000000000E+00 0.  1.
        -11    1    3    3    0    0  0.88488416921E+02 -0.41701654946E+03  0.16146388699E+03  0.45585478966E+03  0.00000000000E+00 0. -1.
         22    1    1    2    0    0 -0.18371145176E+03  0.57093467222E+03 -0.33176540090E+01  0.59977271052E+03  0.00000000000E+00 0. -1.
<mgrwt>
<rscale>  0 0.12255846E+04</rscale>
<asrwt>0</asrwt>
<pdfrwt beam="1">  1        2 0.11138085E+00 0.12255846E+04</pdfrwt>
<pdfrwt beam="2">  1       -2 0.79797510E-01 0.12255846E+04</pdfrwt>
<totfact> 0.53778360E+01</totfact>
</mgrwt>
</event>
<event>
 6    1  0.2436515E-005  0.4627610E+04  0.7818608E-02  0.7888669E-01
         -2   -1    0    0    0  501 -0.00000000000E+00  0.00000000000E+00  0.13609120349E+04  0.13609120349E+04  0.00000000000E+00 0. -1.
          2   -1    0    0  501    0  0.00000000000E+00 -0.00000000000E+00 -0.39339018764E+04  0.39339018764E+04  0.00000000000E+00 0.  1.
         23    2    1    2    0    0 -0.13337099866E+04  0.14616016594E+04  0.83294564423E+02  0.19825777205E+04  0.92815376247E+02 0.  0.
         11    1    3    3    0    0 -0.36810996212E+03  0.35679126428E+03  0.47402295100E+02  0.51483194157E+03  0.00000000000E+00 0.  1.
        -11    1    3    3    0    0 -0.96560002446E+03  0.11048103952E+04  0.35892269323E+02  0.14677457789E+04  0.00000000000E+00 0. -1.
         22    1    1    2    0    0  0.13337099866E+04 -0.14616016594E+04 -0.26562844059E+04  0.33122361909E+04  0.00000000000E+00 0.  1.
<mgrwt>
<rscale>  0 0.46276104E+04</rscale>
<asrwt>0</asrwt>
<pdfrwt beam="1">  1        2 0.60521566E+00 0.46276104E+04</pdfrwt>
<pdfrwt beam="2">  1       -2 0.20937109E+00 0.46276104E+04</pdfrwt>
<totfact> 0.33371415E-02</totfact>
</mgrwt>
</event>
<event>
 6    1  0.2436515E-005  0.2148683E+04  0.7818608E-02  0.8540096E-01
         -2   -1    0    0    0  501 -0.00000000000E+00  0.00000000000E+00  0.50222630060E+03  0.50222630060E+03  0.00000000000E+00 0. -1.
          2   -1    0    0  501    0  0.00000000000E+00 -0.00000000000E+00 -0.22981863291E+04  0.22981863291E+04  0.00000000000E+00 0.  1.
         23    2    1    2    0    0  0.81978062669E+03  0.22099658365E+02  0.83638965819E+00  0.82531616645E+03  0.92829975061E+02 0.  0.
         11    1    3    3    0    0  0.33020691863E+03 -0.34194443568E+02  0.15022590554E+02  0.33231242424E+03  0.00000000000E+00 0. -1.
        -11    1    3    3    0    0  0.48957370806E+03  0.56294101933E+02 -0.14186200896E+02  0.49300374221E+03  0.00000000000E+00 0.  1.
         22    1    1    2    0    0 -0.81978062669E+03 -0.22099658365E+02 -0.17967964182E+04  0.19750964632E+04  0.00000000000E+00 0.  1.
<mgrwt>
<rscale>  0 0.21486830E+04</rscale>
<asrwt>0</asrwt>
<pdfrwt beam="1">  1        2 0.35356711E+00 0.21486830E+04</pdfrwt>
<pdfrwt beam="2">  1       -2 0.77265587E-01 0.21486830E+04</pdfrwt>
<totfact> 0.62333769E+00</totfact>
</mgrwt>
</event>
<event>
 6    1  0.2436515E-005  0.3505109E+04  0.7818608E-02  0.8112580E-01
          2   -1    0    0  501    0  0.00000000000E+00  0.00000000000E+00  0.15562279520E+04  0.15562279520E+04  0.00000000000E+00 0.  1.
         -2   -1    0    0    0  501 -0.00000000000E+00 -0.00000000000E+00 -0.19736483119E+04  0.19736483119E+04  0.00000000000E+00 0. -1.
         23    2    1    2    0    0  0.13761125101E+04  0.21352017231E+03 -0.12784797661E+04  0.18925919865E+04  0.90096673532E+02 0.  0.
         11    1    3    3    0    0  0.92059048017E+03  0.10011319452E+03 -0.84114580840E+03  0.12510138908E+04  0.00000000000E+00 0. -1.
        -11    1    3    3    0    0  0.45552202990E+03  0.11340697779E+03 -0.43733395768E+03  0.64157809569E+03  0.00000000000E+00 0.  1.
         22    1    1    2    0    0 -0.13761125101E+04 -0.21352017231E+03  0.86105940609E+03  0.16372842774E+04  0.00000000000E+00 0.  1.
<mgrwt>
<rscale>  0 0.35051087E+04</rscale>
<asrwt>0</asrwt>
<pdfrwt beam="1">  1        2 0.23941969E+00 0.35051087E+04</pdfrwt>
<pdfrwt beam="2">  1       -2 0.30363820E+00 0.35051087E+04</pdfrwt>
<totfact> 0.29261830E-01</totfact>
</mgrwt>
</event>
<event>
 6    1  0.2436515E-005  0.8332371E+03  0.7818608E-02  0.9513116E-01
         -2   -1    0    0    0  501 -0.00000000000E+00  0.00000000000E+00  0.13343267024E+03  0.13343267024E+03  0.00000000000E+00 0. -1.
          2   -1    0    0  501    0  0.00000000000E+00 -0.00000000000E+00 -0.13008135835E+04  0.13008135835E+04  0.00000000000E+00 0.  1.
         23    2    1    2    0    0 -0.37147212458E+01 -0.39932385061E+03 -0.41937647110E+03  0.58631702182E+03  0.91747963173E+02 0.  0.
         11    1    3    3    0    0 -0.12950002782E+01 -0.47316951065E+02 -0.13849760994E+02  0.49319233199E+02  0.00000000000E+00 0. -1.
        -11    1    3    3    0    0 -0.24197209676E+01 -0.35200689955E+03 -0.40552671010E+03  0.53699778862E+03  0.00000000000E+00 0.  1.
         22    1    1    2    0    0  0.37147212458E+01  0.39932385061E+03 -0.74800444214E+03  0.84792923189E+03  0.00000000000E+00 0. -1.
<mgrwt>
<rscale>  0 0.83323713E+03</rscale>
<asrwt>0</asrwt>
<pdfrwt beam="1">  1        2 0.20012516E+00 0.83323713E+03</pdfrwt>
<pdfrwt beam="2">  1       -2 0.20528103E-01 0.83323713E+03</pdfrwt>
<totfact> 0.33846422E+02</totfact>
</mgrwt>
</event>
<event>
 6    1  0.2436515E-005  0.7994551E+03  0.7818608E-02  0.9560806E-01
         -2   -1    0    0    0  501 -0.00000000000E+00  0.00000000000E+00  0.81519724072E+02  0.81519724072E+02  0.00000000000E+00 0. -1.
          2   -1    0    0  501    0  0.00000000000E+00 -0.00000000000E+00 -0.19600422757E+04  0.19600422757E+04  0.00000000000E+00 0.  1.
         23    2    1    2    0    0  0.18373926624E+03 -0.28823415983E+03 -0.44895902531E+03  0.57170114764E+03  0.91863741230E+02 0.  0.
         11    1    3    3    0    0  0.17980311685E+03 -0.24002765867E+03 -0.34558240638E+03  0.45756927056E+03  0.00000000000E+00 0. -1.
        -11    1    3    3    0    0  0.39361493942E+01 -0.48206501161E+02 -0.10337661892E+03  0.11413187708E+03  0.00000000000E+00 0.  1.
         22    1    1    2    0    0 -0.18373926624E+03  0.28823415983E+03 -0.14295635263E+04  0.14698608522E+04  0.00000000000E+00 0.  1.
<mgrwt>
<rscale>  0 0.79945508E+03</rscale>
<asrwt>0</asrwt>
<pdfrwt beam="1">  1        2 0.30154497E+00 0.79945508E+03</pdfrwt>
<pdfrwt beam="2">  1       -2 0.12541496E-01 0.79945508E+03</pdfrwt>
<totfact> 0.33890703E+02</totfact>
</mgrwt>
</event>
<event>
 6    1  0.2436515E-005  0.3522557E+04  0.7818608E-02  0.8108465E-01
         -2   -1    0    0    0  501 -0.00000000000E+00  0.00000000000E+00  0.15992557504E+04  0.15992557504E+04  0.00000000000E+00 0. -1.
          2   -1    0    0  501    0  0.00000000000E+00 -0.00000000000E+00 -0.19397156055E+04  0.19397156055E+04  0.00000000000E+00 0.  1.
         23    2    1    2    0    0 -0.56089950342E+02  0.82575397057E+03  0.13902737859E+04  0.16205202520E+04  0.90603448548E+02 0.  0.
         11    1    3    3    0    0 -0.73603941755E+02  0.55155980542E+03  0.88574741161E+03  0.10460326173E+04  0.00000000000E+00 0.  1.
        -11    1    3    3    0    0  0.17513991413E+02  0.27419416515E+03  0.50452637429E+03  0.57448763472E+03  0.00000000000E+00 0. -1.
         22    1    1    2    0    0  0.56089950342E+02 -0.82575397057E+03 -0.17307336410E+04  0.19184511040E+04  0.00000000000E+00 0.  1.
<mgrwt>
<rscale>  0 0.35225566E+04</rscale>
<asrwt>0</asrwt>
<pdfrwt beam="1">  1        2 0.29841778E+00 0.35225566E+04</pdfrwt>
<pdfrwt beam="2">  1       -2 0.24603935E+00 0.35225566E+04</pdfrwt>
<totfact> 0.40242546E-01</totfact>
</mgrwt>
</event>
<event>
 6    1  0.2436515E-005  0.3897958E+04  0.7818608E-02  0.8025454E-01
         -2   -1    0    0    0  501 -0.00000000000E+00  0.00000000000E+00  0.12107843045E+04  0.12107843045E+04  0.00000000000E+00 0. -1.
          2   -1    0    0  501    0  0.00000000000E+00 -0.00000000000E+00 -0.31372382683E+04  0.31372382683E+04  0.00000000000E+00 0.  1.
         23    2    1    2    0    0  0.11761654051E+04  0.89101534206E+03  0.45472031502E+03  0.15467256685E+04  0.91193907969E+02 0.  0.
         11    1    3    3    0    0  0.90239045263E+03  0.73048064729E+03  0.35502344739E+03  0.12140643118E+04  0.00000000000E+00 0. -1.
        -11    1    3    3    0    0  0.27377495246E+03  0.16053469477E+03  0.99696867622E+02  0.33266135669E+03  0.00000000000E+00 0.  1.
         22    1    1    2    0    0 -0.11761654051E+04 -0.89101534206E+03 -0.23811742788E+04  0.28012969043E+04  0.00000000000E+00 0.  1.
<mgrwt>
<rscale>  0 0.38979579E+04</rscale>
<asrwt>0</asrwt>
<pdfrwt beam="1">  1        2 0.48265204E+00 0.38979579E+04</pdfrwt>
<pdfrwt beam="2">  1       -2 0.18627451E+00 0.38979579E+04</pdfrwt>
<totfact> 0.18589513E-01</totfact>
</mgrwt>
</event>
<event>
 6    1  0.2436515E-005  0.1683113E+04  0.7818608E-02  0.8771054E-01
         -2   -1    0    0    0  501 -0.00000000000E+00  0.00000000000E+00  0.83988564833E+03  0.83988564833E+03  0.00000000000E+00 0. -1.
          2   -1    0    0  501    0  0.00000000000E+00 -0.00000000000E+00 -0.84323107576E+03  0.84323107576E+03  0.00000000000E+00 0.  1.
         23    2    1    2    0    0  0.19186611143E+03 -0.70206661736E+03 -0.41946210362E+03  0.84474733765E+03  0.89103693355E+02 0.  0.
         11    1    3    3    0    0  0.14926766066E+03 -0.60788310349E+03 -0.32774451352E+03  0.70655443398E+03  0.00000000000E+00 0.  1.
        -11    1    3    3    0    0  0.42598450766E+02 -0.94183513867E+02 -0.91717590097E+02  0.13819290367E+03  0.00000000000E+00 0. -1.
         22    1    1    2    0    0 -0.19186611143E+03  0.70206661736E+03  0.41611667618E+03  0.83836938644E+03  0.00000000000E+00 0. -1.
<mgrwt>
<rscale>  0 0.16831134E+04</rscale>
<asrwt>0</asrwt>
<pdfrwt beam="1">  1        2 0.12972786E+00 0.16831134E+04</pdfrwt>
<pdfrwt beam="2">  1       -2 0.12921318E+00 0.16831134E+04</pdfrwt>
<totfact> 0.13481737E+01</totfact>
</mgrwt>
</event>
<event>
 6    1  0.2436515E-005  0.2493927E+04  0.7818608E-02  0.8405152E-01
          2   -1    0    0  501    0  0.00000000000E+00  0.00000000000E+00  0.99384208090E+03  0.99384208090E+03  0.00000000000E+00 0. -1.
         -2   -1    0    0    0  501 -0.00000000000E+00 -0.00000000000E+00 -0.15645519125E+04  0.15645519125E+04  0.00000000000E+00 0.  1.
         23    2    1    2    0    0  0.78491950728E+03 -0.44582877630E+03 -0.11656499819E+04  0.14772761862E+04  0.93504649500E+02 0.  0.
         11    1    3    3    0    0  0.19702877178E+02 -0.27619587432E+02 -0.62101201502E+02  0.70764427554E+02  0.00000000000E+00 0.  1.
        -11    1    3    3    0    0  0.76521663010E+03 -0.41820918887E+03 -0.11035487804E+04  0.14065117587E+04  0.00000000000E+00 0. -1.
         22    1    1    2    0    0 -0.78491950728E+03  0.44582877630E+03  0.59494015024E+03  0.10811178072E+04  0.00000000000E+00 0. -1.
<mgrwt>
<rscale>  0 0.24939266E+04</rscale>
<asrwt>0</asrwt>
<pdfrwt beam="1">  1        2 0.15289878E+00 0.24939266E+04</pdfrwt>
<pdfrwt beam="2">  1       -2 0.24070029E+00 0.24939266E+04</pdfrwt>
<totfact> 0.16632933E+00</totfact>
</mgrwt>
</event>
<event>
 6    1  0.2436515E-005  0.3742470E+04  0.7818608E-02  0.8058615E-01
         -1   -1    0    0    0  501 -0.00000000000E+00  0.00000000000E+00  0.19995584321E+04  0.19995584321E+04  0.00000000000E+00 0.  1.
          1   -1    0    0  501    0  0.00000000000E+00 -0.00000000000E+00 -0.17511466368E+04  0.17511466368E+04  0.00000000000E+00 0. -1.
         23    2    1    2    0    0 -0.14748209957E+04  0.77130735206E+03  0.97892006063E+03  0.19331093145E+04  0.92817757297E+02 0.  0.
         11    1    3    3    0    0 -0.10040689264E+03  0.62835850078E+02  0.45114105866E+02  0.12674845440E+03  0.00000000000E+00 0. -1.
        -11    1    3    3    0    0 -0.13744141030E+04  0.70847150198E+03  0.93380595477E+03  0.18063608601E+04  0.00000000000E+00 0.  1.
         22    1    1    2    0    0  0.14748209957E+04 -0.77130735206E+03 -0.73050826540E+03  0.18175957544E+04  0.00000000000E+00 0. -1.
<mgrwt>
<rscale>  0 0.37424698E+04</rscale>
<asrwt>0</asrwt>
<pdfrwt beam="1">  1        1 0.26940717E+00 0.37424698E+04</pdfrwt>
<pdfrwt beam="2">  1       -1 0.30762438E+00 0.37424698E+04</pdfrwt>
<totfact> 0.10360066E-01</totfact>
</mgrwt>
</event>
<event>
 6    1  0.2436515E-005  0.5202905E+03  0.7818608E-02  0.1008614E+00
          2   -1    0    0  501    0  0.00000000000E+00  0.00000000000E+00  0.76864931828E+03  0.76864931828E+03  0.00000000000E+00 0.  1.
         -2   -1    0    0    0  501 -0.00000000000E+00 -0.00000000000E+00 -0.88044764935E+02  0.88044764935E+02  0.00000000000E+00 0. -1.
         23    2    1    2    0    0 -0.70861385754E+02 -0.24206124375E+03  0.34506996839E+03  0.43693410487E+03  0.90681570324E+02 0.  0.
         11    1    3    3    0    0  0.54516989667E+01 -0.10701558628E+03  0.98018521879E+02  0.14522288856E+03  0.00000000000E+00 0. -1.
        -11    1    3    3    0    0 -0.76313084721E+02 -0.13504565747E+03  0.24705144651E+03  0.29171121631E+03  0.00000000000E+00 0.  1.
         22    1    1    2    0    0  0.70861385754E+02  0.24206124375E+03  0.33553458496E+03  0.41975997835E+03  0.00000000000E+00 0. -1.
<mgrwt>
<rscale>  0 0.52029049E+03</rscale>
<asrwt>0</asrwt>
<pdfrwt beam="1">  1        2 0.11825374E+00 0.52029049E+03</pdfrwt>
<pdfrwt beam="2">  1       -2 0.13545349E-01 0.52029049E+03</pdfrwt>
<totfact> 0.15151285E+03</totfact>
</mgrwt>
</event>
<event>
 6    1  0.2436515E-005  0.3465879E+04  0.7818608E-02  0.8121924E-01
         -2   -1    0    0    0  501 -0.00000000000E+00  0.00000000000E+00  0.12826078849E+04  0.12826078849E+04  0.00000000000E+00 0. -1.
          2   -1    0    0  501    0  0.00000000000E+00 -0.00000000000E+00 -0.23413853695E+04  0.23413853695E+04  0.00000000000E+00 0.  1.
         23    2    1    2    0    0 -0.11678684917E+04 -0.84006874515E+03 -0.15377584521E+04  0.21077297292E+04  0.90505488929E+02 0.  0.
         11    1    3    3    0    0 -0.73192698368E+03 -0.47242313021E+03 -0.93762474739E+03  0.12798597151E+04  0.00000000000E+00 0. -1.
        -11    1    3    3    0    0 -0.43594150806E+03 -0.36764561494E+03 -0.60013370476E+03  0.82787001409E+03  0.00000000000E+00 0.  1.
         22    1    1    2    0    0  0.11678684917E+04  0.84006874515E+03  0.47898096752E+03  0.15162635252E+04  0.00000000000E+00 0. -1.
<mgrwt>
<rscale>  0 0.34658790E+04</rscale>
<asrwt>0</asrwt>
<pdfrwt beam="1">  1        2 0.36021313E+00 0.34658790E+04</pdfrwt>
<pdfrwt beam="2">  1       -2 0.19732429E+00 0.34658790E+04</pdfrwt>
<totfact> 0.49012762E-01</totfact>
</mgrwt>
</event>
<event>
 6    1  0.2436515E-005  0.2377134E+04  0.7818608E-02  0.8448114E-01
         -2   -1    0    0    0  501 -0.00000000000E+00  0.00000000000E+00  0.69935558068E+03  0.69935558068E+03  0.00000000000E+00 0. -1.
          2   -1    0    0  501    0  0.00000000000E+00 -0.00000000000E+00 -0.20199898214E+04  0.20199898214E+04  0.00000000000E+00 0.  1.
         23    2    1    2    0    0  0.40289002816E+03 -0.10682121927E+04 -0.29043758541E+03  0.11815863793E+04  0.91622690334E+02 0.  0.
         11    1    3    3    0    0  0.13609444291E+03 -0.25505584144E+03 -0.59230636038E+02  0.29509904759E+03  0.00000000000E+00 0.  1.
        -11    1    3    3    0    0  0.26679558525E+03 -0.81315635126E+03 -0.23120694938E+03  0.88648733174E+03  0.00000000000E+00 0. -1.
         22    1    1    2    0    0 -0.40289002816E+03  0.10682121927E+04 -0.10301966553E+04  0.15377590228E+04  0.00000000000E+00 0.  1.
<mgrwt>
<rscale>  0 0.23771337E+04</rscale>
<asrwt>0</asrwt>
<pdfrwt beam="1">  1        2 0.31076766E+00 0.23771337E+04</pdfrwt>
<pdfrwt beam="2">  1       -2 0.10759317E+00 0.23771337E+04</pdfrwt>
<totfact> 0.40663603E+00</totfact>
</mgrwt>
</event>
<event>
 6    1  0.2436515E-005  0.2139810E+04  0.7818608E-02  0.8543907E-01
         -2   -1    0    0    0  501 -0.00000000000E+00  0.00000000000E+00  0.64995865094E+03  0.64995865094E+03  0.00000000000E+00 0. -1.
          2   -1    0    0  501    0  0.00000000000E+00 -0.00000000000E+00 -0.17611832420E+04  0.17611832420E+04  0.00000000000E+00 0.  1.
         23    2    1    2    0    0  0.52539524898E+03  0.39448927052E+03 -0.15053493839E+04  0.16449850522E+04  0.90758482446E+02 0.  0.
         11    1    3    3    0    0  0.25654192310E+03  0.24394531605E+03 -0.75727595770E+03  0.83593657154E+03  0.00000000000E+00 0. -1.
        -11    1    3    3    0    0  0.26885332588E+03  0.15054395448E+03 -0.74807342619E+03  0.80904848064E+03  0.00000000000E+00 0.  1.
         22    1    1    2    0    0 -0.52539524898E+03 -0.39448927052E+03  0.39412479288E+03  0.76615684071E+03  0.00000000000E+00 0. -1.
<mgrwt>
<rscale>  0 0.21398096E+04</rscale>
<asrwt>0</asrwt>
<pdfrwt beam="1">  1        2 0.27095127E+00 0.21398096E+04</pdfrwt>
<pdfrwt beam="2">  1       -2 0.99993640E-01 0.21398096E+04</pdfrwt>
<totfact> 0.68814534E+00</totfact>
</mgrwt>
</event>
<event>
 6    1  0.2436515E-005  0.7995534E+03  0.7818608E-02  0.9560664E-01
          2   -1    0    0  501    0  0.00000000000E+00  0.00000000000E+00  0.17566684812E+03  0.17566684812E+03  0.00000000000E+00 0. -1.
         -2   -1    0    0    0  501 -0.00000000000E+00 -0.00000000000E+00 -0.90979828006E+03  0.90979828006E+03  0.00000000000E+00 0.  1.
         23    2    1    2    0    0 -0.22898125505E+02 -0.70747007318E+02 -0.89812474050E+03  0.90540050521E+03  0.87135309392E+02 0.  0.
         11    1    3    3    0    0  0.23363889171E+02 -0.63501139053E+02 -0.54540481537E+03  0.54958591559E+03  0.00000000000E+00 0.  1.
        -11    1    3    3    0    0 -0.46262014677E+02 -0.72458682645E+01 -0.35271992512E+03  0.35581458962E+03  0.00000000000E+00 0. -1.
         22    1    1    2    0    0  0.22898125505E+02  0.70747007318E+02  0.16399330856E+03  0.18006462298E+03  0.00000000000E+00 0. -1.
<mgrwt>
<rscale>  0 0.79955337E+03</rscale>
<asrwt>0</asrwt>
<pdfrwt beam="1">  1        2 0.27025669E-01 0.79955337E+03</pdfrwt>
<pdfrwt beam="2">  1       -2 0.13996896E+00 0.79955337E+03</pdfrwt>
<totfact> 0.72589517E+01</totfact>
</mgrwt>
</event>
<event>
 6    1  0.2436515E-005  0.1508686E+04  0.7818608E-02  0.8878697E-01
          2   -1    0    0  501    0  0.00000000000E+00  0.00000000000E+00  0.42996855568E+03  0.42996855568E+03  0.00000000000E+00 0.  1.
         -2   -1    0    0    0  501 -0.00000000000E+00 -0.00000000000E+00 -0.13234299629E+04  0.13234299629E+04  0.00000000000E+00 0. -1.
         23    2    1    2    0    0  0.55789254984E+03 -0.49492950464E+03 -0.34005103209E+03  0.82471000513E+03  0.91173331672E+02 0.  0.
         13    1    3    3    0    0  0.14676429090E+03 -0.10132516840E+03 -0.11754598091E+03  0.21359682690E+03  0.00000000000E+00 0. -1.
        -13    1    3    3    0    0  0.41112825894E+03 -0.39360433624E+03 -0.22250505119E+03  0.61111317823E+03  0.00000000000E+00 0.  1.
         22    1    1    2    0    0 -0.55789254984E+03  0.49492950464E+03 -0.55341037514E+03  0.92868851347E+03  0.00000000000E+00 0. -1.
<mgrwt>
<rscale>  0 0.15086859E+04</rscale>
<asrwt>0</asrwt>
<pdfrwt beam="1">  1        2 0.66149008E-01 0.15086859E+04</pdfrwt>
<pdfrwt beam="2">  1       -2 0.20360461E+00 0.15086859E+04</pdfrwt>
<totfact> 0.89021905E+00</totfact>
</mgrwt>
</event>
<event>
 6    1  0.2436515E-005  0.2951041E+04  0.7818608E-02  0.8257851E-01
          2   -1    0    0  501    0  0.00000000000E+00  0.00000000000E+00  0.20557499120E+04  0.20557499120E+04  0.00000000000E+00 0.  1.
         -2   -1    0    0    0  501 -0.00000000000E+00 -0.00000000000E+00 -0.10590594027E+04  0.10590594027E+04  0.00000000000E+00 0. -1.
         23    2    1    2    0    0  0.94359718982E+03 -0.71991525176E+03  0.14215549368E+04  0.18541890673E+04  0.92439346087E+02 0.  0.
         13    1    3    3    0    0  0.60959544420E+03 -0.51556715111E+03  0.92774542778E+03  0.12239802579E+04  0.00000000000E+00 0. -1.
        -13    1    3    3    0    0  0.33400174562E+03 -0.20434810065E+03  0.49380950905E+03  0.63020880948E+03  0.00000000000E+00 0.  1.
         22    1    1    2    0    0 -0.94359718982E+03  0.71991525176E+03 -0.42486442749E+03  0.12606202474E+04  0.00000000000E+00 0. -1.
<mgrwt>
<rscale>  0 0.29510414E+04</rscale>
<asrwt>0</asrwt>
<pdfrwt beam="1">  1        2 0.31626922E+00 0.29510414E+04</pdfrwt>
<pdfrwt beam="2">  1       -2 0.16293222E+00 0.29510414E+04</pdfrwt>
<totfact> 0.12814017E+00</totfact>
</mgrwt>
</event>
<event>
 6    1  0.2436515E-005  0.3148913E+04  0.7818608E-02  0.8202441E-01
         -2   -1    0    0    0  501 -0.00000000000E+00  0.00000000000E+00  0.10750410416E+04  0.10750410416E+04  0.00000000000E+00 0. -1.
          2   -1    0    0  501    0  0.00000000000E+00 -0.00000000000E+00 -0.23058783324E+04  0.23058783324E+04  0.00000000000E+00 0.  1.
         23    2    1    2    0    0 -0.12376093516E+04  0.26575342996E+03 -0.16187910086E+04  0.20569821097E+04  0.91592998453E+02 0.  0.
         13    1    3    3    0    0 -0.49781936547E+03  0.62785152056E+02 -0.62066837091E+03  0.79811986731E+03  0.00000000000E+00 0. -1.
        -13    1    3    3    0    0 -0.73978998615E+03  0.20296827790E+03 -0.99812263766E+03  0.12588622424E+04  0.00000000000E+00 0.  1.
         22    1    1    2    0    0  0.12376093516E+04 -0.26575342996E+03  0.38795371771E+03  0.13239372643E+04  0.00000000000E+00 0. -1.
<mgrwt>
<rscale>  0 0.31489134E+04</rscale>
<asrwt>0</asrwt>
<pdfrwt beam="1">  1        2 0.35475051E+00 0.31489134E+04</pdfrwt>
<pdfrwt beam="2">  1       -2 0.16539093E+00 0.31489134E+04</pdfrwt>
<totfact> 0.87498078E-01</totfact>
</mgrwt>
</event>
<event>
 6    1  0.2436515E-005  0.1305682E+04  0.7818608E-02  0.9025071E-01
         -3   -1    0    0    0  501 -0.00000000000E+00  0.00000000000E+00  0.17595768165E+04  0.17595768165E+04  0.00000000000E+00 0. -1.
          3   -1    0    0  501    0  0.00000000000E+00 -0.00000000000E+00 -0.24221828298E+03  0.24221828298E+03  0.00000000000E+00 0.  1.
         23    2    1    2    0    0 -0.27671238779E+03 -0.23068396136E+03 -0.69579185124E+02  0.37447946986E+03  0.74891753604E+02 0.  0.
         13    1    3    3    0    0 -0.17900370959E+03 -0.16178046008E+03 -0.11482878601E+02  0.24155144754E+03  0.00000000000E+00 0. -1.
        -13    1    3    3    0    0 -0.97708678206E+02 -0.68903501277E+02 -0.58096306523E+02  0.13292802231E+03  0.00000000000E+00 0.  1.
         22    1    1    2    0    0  0.27671238779E+03  0.23068396136E+03  0.15869377186E+04  0.16273156296E+04  0.00000000000E+00 0. -1.
<mgrwt>
<rscale>  0 0.13056825E+04</rscale>
<asrwt>0</asrwt>
<pdfrwt beam="1">  1        3 0.37264352E-01 0.13056825E+04</pdfrwt>
<pdfrwt beam="2">  1       -3 0.27070412E+00 0.13056825E+04</pdfrwt>
<totfact> 0.10251203E+00</totfact>
</mgrwt>
</event>
<event>
 6    1  0.2436515E-005  0.8670473E+03  0.7818608E-02  0.9467738E-01
         -2   -1    0    0    0  501 -0.00000000000E+00  0.00000000000E+00  0.37632745727E+03  0.37632745727E+03  0.00000000000E+00 0. -1.
          2   -1    0    0  501    0  0.00000000000E+00 -0.00000000000E+00 -0.49941279521E+03  0.49941279521E+03  0.00000000000E+00 0.  1.
         23    2    1    2    0    0  0.14813089971E+03 -0.19093772617E+02 -0.46827171468E+03  0.49962727705E+03  0.89675423628E+02 0.  0.
         11    1    3    3    0    0  0.24486437190E+02 -0.37748799588E+02 -0.17738705720E+03  0.18300471452E+03  0.00000000000E+00 0.  1.
        -11    1    3    3    0    0  0.12364446252E+03  0.18655026971E+02 -0.29088465749E+03  0.31662256253E+03  0.00000000000E+00 0. -1.
         22    1    1    2    0    0 -0.14813089971E+03  0.19093772617E+02  0.34518637674E+03  0.37611297543E+03  0.00000000000E+00 0. -1.
<mgrwt>
<rscale>  0 0.86704728E+03</rscale>
<asrwt>0</asrwt>
<pdfrwt beam="1">  1        2 0.76832738E-01 0.86704728E+03</pdfrwt>
<pdfrwt beam="2">  1       -2 0.57896532E-01 0.86704728E+03</pdfrwt>
<totfact> 0.17308836E+02</totfact>
</mgrwt>
</event>
<event>
 6    1  0.2436515E-005  0.1288482E+04  0.7818608E-02  0.9038749E-01
         -4   -1    0    0    0  501 -0.00000000000E+00  0.00000000000E+00  0.89928157721E+03  0.89928157721E+03  0.00000000000E+00 0. -1.
          4   -1    0    0  501    0  0.00000000000E+00 -0.00000000000E+00 -0.46153141517E+03  0.46153141517E+03  0.00000000000E+00 0.  1.
         23    2    1    2    0    0  0.36126426923E+03 -0.52109464841E+03  0.31928240897E+03  0.71576561943E+03  0.91256015973E+02 0.  0.
         11    1    3    3    0    0  0.12142532222E+02 -0.54624125885E+02  0.44888351344E+02  0.71737021850E+02  0.00000000000E+00 0. -1.
        -11    1    3    3    0    0  0.34912173701E+03 -0.46647052253E+03  0.27439405763E+03  0.64402859758E+03  0.00000000000E+00 0.  1.
         22    1    1    2    0    0 -0.36126426923E+03  0.52109464841E+03  0.11846775307E+03  0.64504737295E+03  0.00000000000E+00 0.  1.
<mgrwt>
<rscale>  0 0.12884824E+04</rscale>
<asrwt>0</asrwt>
<pdfrwt beam="1">  1        4 0.71004833E-01 0.12884824E+04</pdfrwt>
<pdfrwt beam="2">  1       -4 0.13835101E+00 0.12884824E+04</pdfrwt>
<totfact> 0.13094298E+00</totfact>
</mgrwt>
</event>
<event>
 6    1  0.2436515E-005  0.4478117E+04  0.7818608E-02  0.7914479E-01
          2   -1    0    0  501    0  0.00000000000E+00  0.00000000000E+00  0.32939013669E+04  0.32939013669E+04  0.00000000000E+00 0.  1.
         -2   -1    0    0    0  501 -0.00000000000E+00 -0.00000000000E+00 -0.15220194783E+04  0.15220194783E+04  0.00000000000E+00 0. -1.
         23    2    1    2    0    0  0.20920808452E+03 -0.72212853198E+03 -0.13806708084E+04  0.15749601625E+04  0.94920982732E+02 0.  0.
         11    1    3    3    0    0  0.13732330803E+03 -0.52806282548E+03 -0.10792319985E+04  0.12093178842E+04  0.00000000000E+00 0. -1.
        -11    1    3    3    0    0  0.71884776492E+02 -0.19406570649E+03 -0.30143880992E+03  0.36564227826E+03  0.00000000000E+00 0.  1.
         22    1    1    2    0    0 -0.20920808452E+03  0.72212853198E+03  0.31525526970E+04  0.32409606827E+04  0.00000000000E+00 0.  1.
<mgrwt>
<rscale>  0 0.44781166E+04</rscale>
<asrwt>0</asrwt>
<pdfrwt beam="1">  1        2 0.50675406E+00 0.44781166E+04</pdfrwt>
<pdfrwt beam="2">  1       -2 0.23415684E+00 0.44781166E+04</pdfrwt>
<totfact> 0.68646006E-02</totfact>
</mgrwt>
</event>
<event>
 6    1  0.2436515E-005  0.1590960E+04  0.7818608E-02  0.8826121E-01
          2   -1    0    0  501    0  0.00000000000E+00  0.00000000000E+00  0.20457751546E+04  0.20457751546E+04  0.00000000000E+00 0.  1.
         -2   -1    0    0    0  501 -0.00000000000E+00 -0.00000000000E+00 -0.30931475341E+03  0.30931475341E+03  0.00000000000E+00 0. -1.
         23    2    1    2    0    0 -0.55757648196E+03 -0.66971563168E+02  0.41379915765E+02  0.56940388421E+03  0.84449762704E+02 0.  0.
         11    1    3    3    0    0 -0.41611614558E+03 -0.14794296355E+02  0.43221696622E+02  0.41861633135E+03  0.00000000000E+00 0.  1.
        -11    1    3    3    0    0 -0.14146033638E+03 -0.52177266813E+02 -0.18417808573E+01  0.15078755286E+03  0.00000000000E+00 0. -1.
         22    1    1    2    0    0  0.55757648196E+03  0.66971563168E+02  0.16950804854E+04  0.17856860238E+04  0.00000000000E+00 0.  1.
<mgrwt>
<rscale>  0 0.15909600E+04</rscale>
<asrwt>0</asrwt>
<pdfrwt beam="1">  1        2 0.31473463E+00 0.15909600E+04</pdfrwt>
<pdfrwt beam="2">  1       -2 0.47586886E-01 0.15909600E+04</pdfrwt>
<totfact> 0.25307778E+01</totfact>
</mgrwt>
</event>
<event>
 6    1  0.2436515E-005  0.1413054E+04  0.7818608E-02  0.8944423E-01
         -2   -1    0    0    0  501 -0.00000000000E+00  0.00000000000E+00  0.17651007490E+03  0.17651007490E+03  0.00000000000E+00 0. -1.
          2   -1    0    0  501    0  0.00000000000E+00 -0.00000000000E+00 -0.28280550500E+04  0.28280550500E+04  0.00000000000E+00 0.  1.
         23    2    1    2    0    0 -0.66894510405E+03  0.29211166811E+02 -0.17840645609E+04  0.19087261251E+04  0.10958201765E+03 0.  0.
         13    1    3    3    0    0 -0.15514071228E+03  0.20167351971E+02 -0.55318143973E+03  0.57487830708E+03  0.00000000000E+00 0. -1.
        -13    1    3    3    0    0 -0.51380439177E+03  0.90438148398E+01 -0.12308831212E+04  0.13338478180E+04  0.00000000000E+00 0.  1.
         22    1    1    2    0    0  0.66894510405E+03 -0.29211166811E+02 -0.86748041411E+03  0.10958389997E+04  0.00000000000E+00 0. -1.
<mgrwt>
<rscale>  0 0.14130537E+04</rscale>
<asrwt>0</asrwt>
<pdfrwt beam="1">  1        2 0.43508535E+00 0.14130537E+04</pdfrwt>
<pdfrwt beam="2">  1       -2 0.27155398E-01 0.14130537E+04</pdfrwt>
<totfact> 0.26849566E+01</totfact>
</mgrwt>
</event>
<event>
 6    1  0.2436515E-005  0.1271133E+04  0.7818608E-02  0.9052776E-01
          3   -1    0    0  501    0  0.00000000000E+00  0.00000000000E+00  0.26187814432E+04  0.26187814432E+04  0.00000000000E+00 0.  1.
         -3   -1    0    0    0  501 -0.00000000000E+00 -0.00000000000E+00 -0.15424903497E+03  0.15424903497E+03  0.00000000000E+00 0. -1.
         23    2    1    2    0    0 -0.55133140785E+03  0.13090717313E+03  0.62425413502E+03  0.84748454726E+03  0.86219623569E+02 0.  0.
         13    1    3    3    0    0 -0.41227541872E+03  0.61946048113E+02  0.43143244685E+03  0.59995190637E+03  0.00000000000E+00 0. -1.
        -13    1    3    3    0    0 -0.13905598913E+03  0.68961125016E+02  0.19282168818E+03  0.24753264089E+03  0.00000000000E+00 0.  1.
         22    1    1    2    0    0  0.55133140785E+03 -0.13090717313E+03  0.18402782733E+04  0.19255459310E+04  0.00000000000E+00 0.  1.
<mgrwt>
<rscale>  0 0.12711326E+04</rscale>
<asrwt>0</asrwt>
<pdfrwt beam="1">  1        3 0.40288942E+00 0.12711326E+04</pdfrwt>
<pdfrwt beam="2">  1       -3 0.23730623E-01 0.12711326E+04</pdfrwt>
<totfact> 0.47262792E-01</totfact>
</mgrwt>
</event>
<event>
 6    1  0.2436515E-005  0.6289090E+03  0.7818608E-02  0.9847180E-01
          2   -1    0    0  501    0  0.00000000000E+00  0.00000000000E+00  0.14383085265E+04  0.14383085265E+04  0.00000000000E+00 0.  1.
         -2   -1    0    0    0  501 -0.00000000000E+00 -0.00000000000E+00 -0.68748545481E+02  0.68748545481E+02  0.00000000000E+00 0. -1.
         23    2    1    2    0    0 -0.17273763994E+03  0.73999648365E+02  0.12830921242E+04  0.13001973841E+04  0.94199777756E+02 0.  0.
         11    1    3    3    0    0 -0.17375097360E+03  0.81287863780E+02  0.10753767489E+04  0.10923517152E+04  0.00000000000E+00 0. -1.
        -11    1    3    3    0    0  0.10133336612E+01 -0.72882154150E+01  0.20771537530E+03  0.20784566886E+03  0.00000000000E+00 0.  1.
         22    1    1    2    0    0  0.17273763994E+03 -0.73999648365E+02  0.86467856766E+02  0.20685968787E+03  0.00000000000E+00 0. -1.
<mgrwt>
<rscale>  0 0.62890896E+03</rscale>
<asrwt>0</asrwt>
<pdfrwt beam="1">  1        2 0.22127821E+00 0.62890896E+03</pdfrwt>
<pdfrwt beam="2">  1       -2 0.10576700E-01 0.62890896E+03</pdfrwt>
<totfact> 0.87598254E+02</totfact>
</mgrwt>
</event>
<event>
 6    1  0.2436515E-005  0.2495894E+04  0.7818608E-02  0.8404450E-01
          2   -1    0    0  501    0  0.00000000000E+00  0.00000000000E+00  0.13294815311E+04  0.13294815311E+04  0.00000000000E+00 0.  1.
         -2   -1    0    0    0  501 -0.00000000000E+00 -0.00000000000E+00 -0.11714131341E+04  0.11714131341E+04  0.00000000000E+00 0. -1.
         23    2    1    2    0    0  0.24660959331E+03 -0.11424878832E+04 -0.35408206181E+03  0.12248096574E+04  0.93218750268E+02 0.  0.
         13    1    3    3    0    0  0.84024850498E+02 -0.27315829606E+03 -0.53723410052E+02  0.29079517705E+03  0.00000000000E+00 0. -1.
        -13    1    3    3    0    0  0.16258474281E+03 -0.86932958718E+03 -0.30035865176E+03  0.93401448031E+03  0.00000000000E+00 0.  1.
         22    1    1    2    0    0 -0.24660959331E+03  0.11424878832E+04  0.51215045873E+03  0.12760850078E+04  0.00000000000E+00 0.  1.
<mgrwt>
<rscale>  0 0.24958943E+04</rscale>
<asrwt>0</asrwt>
<pdfrwt beam="1">  1        2 0.20453562E+00 0.24958943E+04</pdfrwt>
<pdfrwt beam="2">  1       -2 0.18021741E+00 0.24958943E+04</pdfrwt>
<totfact> 0.25621060E+00</totfact>
</mgrwt>
</event>
<event>
 6    1  0.2436515E-005  0.1478361E+04  0.7818608E-02  0.8898972E-01
          2   -1    0    0  501    0  0.00000000000E+00  0.00000000000E+00  0.71194030683E+03  0.71194030683E+03  0.00000000000E+00 0.  1.
         -2   -1    0    0    0  501 -0.00000000000E+00 -0.00000000000E+00 -0.76746266198E+03  0.76746266198E+03  0.00000000000E+00 0. -1.
         23    2    1    2    0    0 -0.61778362197E+03 -0.34608479897E+02 -0.42719487949E+03  0.75760326266E+03  0.92805646790E+02 0.  0.
         13    1    3    3    0    0 -0.19395918377E+03  0.28531372507E+01 -0.18483746357E+03  0.26794251865E+03  0.00000000000E+00 0. -1.
        -13    1    3    3    0    0 -0.42382443820E+03 -0.37461617147E+02 -0.24235741592E+03  0.48966074401E+03  0.00000000000E+00 0.  1.
         22    1    1    2    0    0  0.61778362197E+03  0.34608479897E+02  0.37167252434E+03  0.72179970616E+03  0.00000000000E+00 0.  1.
<mgrwt>
<rscale>  0 0.14783607E+04</rscale>
<asrwt>0</asrwt>
<pdfrwt beam="1">  1        2 0.10952928E+00 0.14783607E+04</pdfrwt>
<pdfrwt beam="2">  1       -2 0.11807118E+00 0.14783607E+04</pdfrwt>
<totfact> 0.21449839E+01</totfact>
</mgrwt>
</event>
<event>
 6    1  0.2436515E-005  0.3461433E+04  0.7818608E-02  0.8122991E-01
         -2   -1    0    0    0  501 -0.00000000000E+00  0.00000000000E+00  0.10059445697E+04  0.10059445697E+04  0.00000000000E+00 0. -1.
          2   -1    0    0  501    0  0.00000000000E+00 -0.00000000000E+00 -0.29776790810E+04  0.29776790810E+04  0.00000000000E+00 0.  1.
         23    2    1    2    0    0  0.34319271966E+03  0.15839242309E+04 -0.29161809851E+03  0.16492311446E+04  0.91241662083E+02 0.  0.
         11    1    3    3    0    0  0.20494147821E+03  0.85507631419E+03 -0.19999079171E+03  0.90174987072E+03  0.00000000000E+00 0.  1.
        -11    1    3    3    0    0  0.13825124145E+03  0.72884791667E+03 -0.91627306798E+02  0.74748127384E+03  0.00000000000E+00 0. -1.
         22    1    1    2    0    0 -0.34319271966E+03 -0.15839242309E+04 -0.16801164129E+04  0.23343925061E+04  0.00000000000E+00 0.  1.
<mgrwt>
<rscale>  0 0.34614333E+04</rscale>
<asrwt>0</asrwt>
<pdfrwt beam="1">  1        2 0.45810448E+00 0.34614333E+04</pdfrwt>
<pdfrwt beam="2">  1       -2 0.15476070E+00 0.34614333E+04</pdfrwt>
<totfact> 0.40829994E-01</totfact>
</mgrwt>
</event>
<event>
 6    1  0.2436515E-005  0.2062259E+04  0.7818608E-02  0.8578053E-01
         -2   -1    0    0    0  501 -0.00000000000E+00  0.00000000000E+00  0.43628768873E+03  0.43628768873E+03  0.00000000000E+00 0. -1.
          2   -1    0    0  501    0  0.00000000000E+00 -0.00000000000E+00 -0.24369884343E+04  0.24369884343E+04  0.00000000000E+00 0.  1.
         23    2    1    2    0    0 -0.33631236698E+03 -0.96662244832E+03 -0.11540816087E+04  0.15450333257E+04  0.88083211671E+02 0.  0.
         13    1    3    3    0    0 -0.94658883041E+02 -0.19685691481E+03 -0.28669080847E+03  0.36042276386E+03  0.00000000000E+00 0. -1.
        -13    1    3    3    0    0 -0.24165348394E+03 -0.76976553351E+03 -0.86739080021E+03  0.11846105618E+04  0.00000000000E+00 0.  1.
         22    1    1    2    0    0  0.33631236698E+03  0.96662244832E+03 -0.84661913688E+03  0.13282427973E+04  0.00000000000E+00 0. -1.
<mgrwt>
<rscale>  0 0.20622590E+04</rscale>
<asrwt>0</asrwt>
<pdfrwt beam="1">  1        2 0.37492129E+00 0.20622590E+04</pdfrwt>
<pdfrwt beam="2">  1       -2 0.67121185E-01 0.20622590E+04</pdfrwt>
<totfact> 0.71296598E+00</totfact>
</mgrwt>
</event>
<event>
 6    1  0.2436515E-005  0.2535786E+04  0.7818608E-02  0.8390346E-01
         -2   -1    0    0    0  501 -0.00000000000E+00  0.00000000000E+00  0.21526795933E+04  0.21526795933E+04  0.00000000000E+00 0. -1.
          2   -1    0    0  501    0  0.00000000000E+00 -0.00000000000E+00 -0.74676824566E+03  0.74676824566E+03  0.00000000000E+00 0.  1.
         23    2    1    2    0    0  0.23137756219E+03  0.12439365852E+04  0.66456017230E+03  0.14329842800E+04  0.10435477877E+03 0.  0.
         11    1    3    3    0    0  0.10992836565E+03  0.33871645463E+03  0.19563725512E+03  0.40630901762E+03  0.00000000000E+00 0. -1.
        -11    1    3    3    0    0  0.12144919654E+03  0.90522013062E+03  0.46892291718E+03  0.10266752624E+04  0.00000000000E+00 0.  1.
         22    1    1    2    0    0 -0.23137756219E+03 -0.12439365852E+04  0.74135117531E+03  0.14664635589E+04  0.00000000000E+00 0. -1.
<mgrwt>
<rscale>  0 0.25357861E+04</rscale>
<asrwt>0</asrwt>
<pdfrwt beam="1">  1        2 0.11488742E+00 0.25357861E+04</pdfrwt>
<pdfrwt beam="2">  1       -2 0.33118147E+00 0.25357861E+04</pdfrwt>
<totfact> 0.68468495E-01</totfact>
</mgrwt>
</event>
<event>
 6    1  0.2436515E-005  0.2285649E+04  0.7818608E-02  0.8483601E-01
         -2   -1    0    0    0  501 -0.00000000000E+00  0.00000000000E+00  0.10277114738E+04  0.10277114738E+04  0.00000000000E+00 0.  1.
          2   -1    0    0  501    0  0.00000000000E+00 -0.00000000000E+00 -0.12708308113E+04  0.12708308113E+04  0.00000000000E+00 0. -1.
         23    2    1    2    0    0  0.73593300130E+03  0.48395771471E+03 -0.85120074961E+03  0.12282266980E+04  0.90474602090E+02 0.  0.
         11    1    3    3    0    0  0.27018751275E+03  0.22999610774E+03 -0.33096245188E+03  0.48521711241E+03  0.00000000000E+00 0. -1.
        -11    1    3    3    0    0  0.46574548855E+03  0.25396160697E+03 -0.52023829773E+03  0.74300958563E+03  0.00000000000E+00 0.  1.
         22    1    1    2    0    0 -0.73593300130E+03 -0.48395771471E+03  0.60808141216E+03  0.10703155870E+04  0.00000000000E+00 0.  1.
<mgrwt>
<rscale>  0 0.22856486E+04</rscale>
<asrwt>0</asrwt>
<pdfrwt beam="1">  1        2 0.19551243E+00 0.22856486E+04</pdfrwt>
<pdfrwt beam="2">  1       -2 0.15810946E+00 0.22856486E+04</pdfrwt>
<totfact> 0.40609428E+00</totfact>
</mgrwt>
</event>
<event>
 6    1  0.2436515E-005  0.3137540E+04  0.7818608E-02  0.8205510E-01
         -2   -1    0    0    0  501 -0.00000000000E+00  0.00000000000E+00  0.91453915461E+03  0.91453915461E+03  0.00000000000E+00 0. -1.
          2   -1    0    0  501    0  0.00000000000E+00 -0.00000000000E+00 -0.26910162282E+04  0.26910162282E+04  0.00000000000E+00 0.  1.
         23    2    1    2    0    0  0.92369693516E+03  0.10724871797E+04 -0.11465832078E+03  0.14226476097E+04  0.85644101601E+02 0.  0.
         13    1    3    3    0    0  0.13604298132E+03  0.19650650069E+03  0.54529715686E+00  0.23900375505E+03  0.00000000000E+00 0. -1.
        -13    1    3    3    0    0  0.78765395384E+03  0.87598067905E+03 -0.11520361793E+03  0.11836438547E+04  0.00000000000E+00 0.  1.
         22    1    1    2    0    0 -0.92369693516E+03 -0.10724871797E+04 -0.16618187528E+04  0.21829077731E+04  0.00000000000E+00 0.  1.
<mgrwt>
<rscale>  0 0.31375403E+04</rscale>
<asrwt>0</asrwt>
<pdfrwt beam="1">  1        2 0.41400249E+00 0.31375403E+04</pdfrwt>
<pdfrwt beam="2">  1       -2 0.14069833E+00 0.31375403E+04</pdfrwt>
<totfact> 0.80645493E-01</totfact>
</mgrwt>
</event>
<event>
 6    1  0.2436515E-005  0.2593149E+04  0.7818608E-02  0.8370532E-01
         -2   -1    0    0    0  501 -0.00000000000E+00  0.00000000000E+00  0.58304711835E+03  0.58304711835E+03  0.00000000000E+00 0.  1.
          2   -1    0    0  501    0  0.00000000000E+00 -0.00000000000E+00 -0.28833108048E+04  0.28833108048E+04  0.00000000000E+00 0. -1.
         23    2    1    2    0    0 -0.49039446750E+03  0.24939902509E+03 -0.27186071469E+04  0.27752010247E+04  0.90715493756E+02 0.  0.
         13    1    3    3    0    0 -0.24067229525E+03  0.10308884049E+03 -0.10842105869E+04  0.11153757482E+04  0.00000000000E+00 0. -1.
        -13    1    3    3    0    0 -0.24972217225E+03  0.14631018461E+03 -0.16343965599E+04  0.16598252765E+04  0.00000000000E+00 0.  1.
         22    1    1    2    0    0  0.49039446750E+03 -0.24939902509E+03  0.41834346042E+03  0.69115689850E+03  0.00000000000E+00 0.  1.
<mgrwt>
<rscale>  0 0.25931495E+04</rscale>
<asrwt>0</asrwt>
<pdfrwt beam="1">  1        2 0.44358627E+00 0.25931495E+04</pdfrwt>
<pdfrwt beam="2">  1       -2 0.89699557E-01 0.25931495E+04</pdfrwt>
<totfact> 0.19387248E+00</totfact>
</mgrwt>
</event>
<event>
 6    1  0.2436515E-005  0.1782897E+04  0.7818608E-02  0.8715448E-01
         -2   -1    0    0    0  501 -0.00000000000E+00  0.00000000000E+00  0.96755817656E+03  0.96755817656E+03  0.00000000000E+00 0. -1.
          2   -1    0    0  501    0  0.00000000000E+00 -0.00000000000E+00 -0.82132590382E+03  0.82132590382E+03  0.00000000000E+00 0.  1.
         23    2    1    2    0    0 -0.31442910061E+03  0.80228461133E+03  0.29353597385E+03  0.91468465391E+03  0.89209815997E+02 0.  0.
         11    1    3    3    0    0 -0.17589171054E+03  0.33752660564E+03  0.11045516037E+03  0.39631104678E+03  0.00000000000E+00 0. -1.
        -11    1    3    3    0    0 -0.13853739007E+03  0.46475800569E+03  0.18308081348E+03  0.51837360712E+03  0.00000000000E+00 0.  1.
         22    1    1    2    0    0  0.31442910061E+03 -0.80228461133E+03 -0.14730370110E+03  0.87419942647E+03  0.00000000000E+00 0. -1.
<mgrwt>
<rscale>  0 0.17828972E+04</rscale>
<asrwt>0</asrwt>
<pdfrwt beam="1">  1        2 0.12635783E+00 0.17828972E+04</pdfrwt>
<pdfrwt beam="2">  1       -2 0.14885510E+00 0.17828972E+04</pdfrwt>
<totfact> 0.96085573E+00</totfact>
</mgrwt>
</event>
<event>
 6    1  0.2436515E-005  0.2526055E+04  0.7818608E-02  0.8393762E-01
         -2   -1    0    0    0  501 -0.00000000000E+00  0.00000000000E+00  0.16940285585E+04  0.16940285585E+04  0.00000000000E+00 0. -1.
          2   -1    0    0  501    0  0.00000000000E+00 -0.00000000000E+00 -0.94168324259E+03  0.94168324259E+03  0.00000000000E+00 0.  1.
         23    2    1    2    0    0  0.96823164809E+03 -0.30468950945E+03  0.11579288102E+04  0.15426398948E+04  0.92900451793E+02 0.  0.
         13    1    3    3    0    0  0.57671373600E+03 -0.22860047689E+03  0.71373090663E+03  0.94565782310E+03  0.00000000000E+00 0. -1.
        -13    1    3    3    0    0  0.39151791209E+03 -0.76089032566E+02  0.44419790361E+03  0.59698207170E+03  0.00000000000E+00 0.  1.
         22    1    1    2    0    0 -0.96823164809E+03  0.30468950945E+03 -0.40558349429E+03  0.10930719063E+04  0.00000000000E+00 0.  1.
<mgrwt>
<rscale>  0 0.25260549E+04</rscale>
<asrwt>0</asrwt>
<pdfrwt beam="1">  1        2 0.14487435E+00 0.25260549E+04</pdfrwt>
<pdfrwt beam="2">  1       -2 0.26061978E+00 0.25260549E+04</pdfrwt>
<totfact> 0.13532863E+00</totfact>
</mgrwt>
</event>
<event>
 6    1  0.2436515E-005  0.1679120E+04  0.7818608E-02  0.8773363E-01
         -2   -1    0    0    0  501 -0.00000000000E+00  0.00000000000E+00  0.24050663391E+04  0.24050663391E+04  0.00000000000E+00 0. -1.
          2   -1    0    0  501    0  0.00000000000E+00 -0.00000000000E+00 -0.29307344613E+03  0.29307344613E+03  0.00000000000E+00 0.  1.
         23    2    1    2    0    0 -0.65399474161E+03 -0.51444618281E+03  0.91127202014E+03  0.12372857160E+04  0.89973614536E+02 0.  0.
         11    1    3    3    0    0 -0.16613324442E+03 -0.16179595027E+03  0.20749175394E+03  0.31117681851E+03  0.00000000000E+00 0.  1.
        -11    1    3    3    0    0 -0.48786149720E+03 -0.35265023254E+03  0.70378026620E+03  0.92610889751E+03  0.00000000000E+00 0. -1.
         22    1    1    2    0    0  0.65399474161E+03  0.51444618281E+03  0.12007208729E+04  0.14608540692E+04  0.00000000000E+00 0. -1.
<mgrwt>
<rscale>  0 0.16791201E+04</rscale>
<asrwt>0</asrwt>
<pdfrwt beam="1">  1        2 0.45088224E-01 0.16791201E+04</pdfrwt>
<pdfrwt beam="2">  1       -2 0.37001019E+00 0.16791201E+04</pdfrwt>
<totfact> 0.12538561E+00</totfact>
</mgrwt>
</event>
<event>
 6    1  0.2436515E-005  0.1772639E+04  0.7818608E-02  0.8720987E-01
          2   -1    0    0  501    0  0.00000000000E+00  0.00000000000E+00  0.25722561892E+04  0.25722561892E+04  0.00000000000E+00 0.  1.
         -2   -1    0    0    0  501 -0.00000000000E+00 -0.00000000000E+00 -0.30539811058E+03  0.30539811058E+03  0.00000000000E+00 0. -1.
         23    2    1    2    0    0 -0.79695573016E+03 -0.19426794128E+03  0.16716946831E+04  0.18641958960E+04  0.88231265868E+02 0.  0.
         13    1    3    3    0    0 -0.16098532875E+03 -0.49331407771E+01  0.30380195360E+03  0.34385496792E+03  0.00000000000E+00 0. -1.
        -13    1    3    3    0    0 -0.63597040140E+03 -0.18933480050E+03  0.13678927295E+04  0.15203409281E+04  0.00000000000E+00 0.  1.
         22    1    1    2    0    0  0.79695573016E+03  0.19426794128E+03  0.59516339550E+03  0.10134584038E+04  0.00000000000E+00 0. -1.
<mgrwt>
<rscale>  0 0.17726389E+04</rscale>
<asrwt>0</asrwt>
<pdfrwt beam="1">  1        2 0.39573171E+00 0.17726389E+04</pdfrwt>
<pdfrwt beam="2">  1       -2 0.46984326E-01 0.17726389E+04</pdfrwt>
<totfact> 0.12856118E+01</totfact>
</mgrwt>
</event>
<event>
 6    1  0.2436515E-005  0.2588441E+04  0.7818608E-02  0.8372138E-01
          1   -1    0    0  501    0  0.00000000000E+00  0.00000000000E+00  0.13955544165E+04  0.13955544165E+04  0.00000000000E+00 0.  1.
         -1   -1    0    0    0  501 -0.00000000000E+00 -0.00000000000E+00 -0.12002449550E+04  0.12002449550E+04  0.00000000000E+00 0. -1.
         23    2    1    2    0    0  0.59026267717E+03 -0.80155968981E+01  0.12510132029E+04  0.13862603405E+04  0.90605848456E+02 0.  0.
         11    1    3    3    0    0  0.40869081752E+03 -0.26100129665E+02  0.94593241092E+03  0.10307752069E+04  0.00000000000E+00 0. -1.
        -11    1    3    3    0    0  0.18157185964E+03  0.18084532767E+02  0.30508079201E+03  0.35548513358E+03  0.00000000000E+00 0.  1.
         22    1    1    2    0    0 -0.59026267717E+03  0.80155968981E+01 -0.10557037414E+04  0.12095390310E+04  0.00000000000E+00 0. -1.
<mgrwt>
<rscale>  0 0.25884413E+04</rscale>
<asrwt>0</asrwt>
<pdfrwt beam="1">  1        1 0.21470068E+00 0.25884413E+04</pdfrwt>
<pdfrwt beam="2">  1       -1 0.18465307E+00 0.25884413E+04</pdfrwt>
<totfact> 0.13151720E+00</totfact>
</mgrwt>
</event>
<event>
 6    1  0.2436515E-005  0.3891340E+04  0.7818608E-02  0.8026833E-01
          2   -1    0    0  501    0  0.00000000000E+00  0.00000000000E+00  0.40374557144E+04  0.40374557144E+04  0.00000000000E+00 0. -1.
         -2   -1    0    0    0  501 -0.00000000000E+00 -0.00000000000E+00 -0.93762803407E+03  0.93762803407E+03  0.00000000000E+00 0.  1.
         23    2    1    2    0    0 -0.14058525133E+04  0.23925499949E+03  0.32411231460E+04  0.35420350219E+04  0.86421090008E+02 0.  0.
         11    1    3    3    0    0 -0.75221910374E+03  0.86936220880E+02  0.16813853996E+04  0.18440304630E+04  0.00000000000E+00 0.  1.
        -11    1    3    3    0    0 -0.65363340959E+03  0.15231877861E+03  0.15597377464E+04  0.16980045589E+04  0.00000000000E+00 0. -1.
         22    1    1    2    0    0  0.14058525133E+04 -0.23925499949E+03 -0.14129546571E+03  0.14330487265E+04  0.00000000000E+00 0.  1.
<mgrwt>
<rscale>  0 0.38913400E+04</rscale>
<asrwt>0</asrwt>
<pdfrwt beam="1">  1        2 0.62114702E+00 0.38913400E+04</pdfrwt>
<pdfrwt beam="2">  1       -2 0.14425047E+00 0.38913400E+04</pdfrwt>
<totfact> 0.83986796E-02</totfact>
</mgrwt>
</event>
<event>
 6    1  0.2436515E-005  0.3337514E+04  0.7818608E-02  0.8153415E-01
         -2   -1    0    0    0  501 -0.00000000000E+00  0.00000000000E+00  0.85359345438E+03  0.85359345438E+03  0.00000000000E+00 0. -1.
          2   -1    0    0  501    0  0.00000000000E+00 -0.00000000000E+00 -0.32623836933E+04  0.32623836933E+04  0.00000000000E+00 0.  1.
         23    2    1    2    0    0 -0.47054374016E+03 -0.44351520415E+03  0.69051648780E+03  0.94993556015E+03  0.86298324457E+02 0.  0.
         11    1    3    3    0    0 -0.13744388230E+03 -0.13111902371E+03  0.26265599068E+03  0.32414686270E+03  0.00000000000E+00 0. -1.
        -11    1    3    3    0    0 -0.33309985786E+03 -0.31239618044E+03  0.42786049712E+03  0.62578869745E+03  0.00000000000E+00 0.  1.
         22    1    1    2    0    0  0.47054374016E+03  0.44351520415E+03 -0.30993067267E+04  0.31660415875E+04  0.00000000000E+00 0.  1.
<mgrwt>
<rscale>  0 0.33375137E+04</rscale>
<asrwt>0</asrwt>
<pdfrwt beam="1">  1        2 0.50190518E+00 0.33375137E+04</pdfrwt>
<pdfrwt beam="2">  1       -2 0.13132207E+00 0.33375137E+04</pdfrwt>
<totfact> 0.41540155E-01</totfact>
</mgrwt>
</event>
<event>
 6    1  0.2436515E-005  0.1951348E+04  0.7818608E-02  0.8629711E-01
          2   -1    0    0  501    0  0.00000000000E+00  0.00000000000E+00  0.13966962720E+04  0.13966962720E+04  0.00000000000E+00 0.  1.
         -2   -1    0    0    0  501 -0.00000000000E+00 -0.00000000000E+00 -0.68156522995E+03  0.68156522995E+03  0.00000000000E+00 0. -1.
         23    2    1    2    0    0 -0.73583233220E+03 -0.63516686835E+03  0.30230260060E+03  0.10221774646E+04  0.92594465886E+02 0.  0.
         11    1    3    3    0    0 -0.62286942979E+03 -0.49049964745E+03  0.23999976189E+03  0.82834540889E+03  0.00000000000E+00 0. -1.
        -11    1    3    3    0    0 -0.11296290241E+03 -0.14466722090E+03  0.62302838713E+02  0.19383205575E+03  0.00000000000E+00 0.  1.
         22    1    1    2    0    0  0.73583233220E+03  0.63516686835E+03  0.41282844142E+03  0.10560840373E+04  0.00000000000E+00 0. -1.
<mgrwt>
<rscale>  0 0.19513479E+04</rscale>
<asrwt>0</asrwt>
<pdfrwt beam="1">  1        2 0.21487635E+00 0.19513479E+04</pdfrwt>
<pdfrwt beam="2">  1       -2 0.10485619E+00 0.19513479E+04</pdfrwt>
<totfact> 0.99991343E+00</totfact>
</mgrwt>
</event>
<event>
 6    1  0.2436515E-005  0.6601805E+04  0.7818608E-02  0.7619956E-01
         -2   -1    0    0    0  501 -0.00000000000E+00  0.00000000000E+00  0.43102981680E+04  0.43102981680E+04  0.00000000000E+00 0. -1.
          2   -1    0    0  501    0  0.00000000000E+00 -0.00000000000E+00 -0.25278896373E+04  0.25278896373E+04  0.00000000000E+00 0.  1.
         23    2    1    2    0    0 -0.39478597300E+03  0.44591373228E+03  0.42536831003E+04  0.42961624279E+04  0.92177374283E+02 0.  0.
         13    1    3    3    0    0 -0.28142467600E+03  0.34971479760E+03  0.34189064115E+04  0.34482490250E+04  0.00000000000E+00 0. -1.
        -13    1    3    3    0    0 -0.11336129700E+03  0.96198934679E+02  0.83477668877E+03  0.84791340289E+03  0.00000000000E+00 0.  1.
         22    1    1    2    0    0  0.39478597300E+03 -0.44591373228E+03 -0.24712745695E+04  0.25420253774E+04  0.00000000000E+00 0.  1.
<mgrwt>
<rscale>  0 0.66018052E+04</rscale>
<asrwt>0</asrwt>
<pdfrwt beam="1">  1        2 0.38890610E+00 0.66018052E+04</pdfrwt>
<pdfrwt beam="2">  1       -2 0.66312279E+00 0.66018052E+04</pdfrwt>
<totfact> 0.67201975E-04</totfact>
</mgrwt>
</event>
<event>
 6    1  0.2436515E-005  0.5421088E+04  0.7818608E-02  0.7766642E-01
          2   -1    0    0  501    0  0.00000000000E+00  0.00000000000E+00  0.41189940441E+04  0.41189940441E+04  0.00000000000E+00 0.  1.
         -2   -1    0    0    0  501 -0.00000000000E+00 -0.00000000000E+00 -0.17836995219E+04  0.17836995219E+04  0.00000000000E+00 0. -1.
         23    2    1    2    0    0 -0.94256518306E+03 -0.15843054330E+02  0.39341861736E+04  0.40465861769E+04  0.91425992540E+02 0.  0.
         13    1    3    3    0    0 -0.56260669851E+03 -0.25276142708E+02  0.21665113401E+04  0.22385121325E+04  0.00000000000E+00 0.  1.
        -13    1    3    3    0    0 -0.37995848455E+03  0.94330883785E+01  0.17676748335E+04  0.18080740444E+04  0.00000000000E+00 0. -1.
         22    1    1    2    0    0  0.94256518306E+03  0.15843054330E+02 -0.15988916514E+04  0.18561073890E+04  0.00000000000E+00 0. -1.
<mgrwt>
<rscale>  0 0.54210876E+04</rscale>
<asrwt>0</asrwt>
<pdfrwt beam="1">  1        2 0.63369139E+00 0.54210876E+04</pdfrwt>
<pdfrwt beam="2">  1       -2 0.27441531E+00 0.54210876E+04</pdfrwt>
<totfact> 0.86965161E-03</totfact>
</mgrwt>
</event>
<event>
 6    1  0.2436515E-005  0.1077689E+04  0.7818608E-02  0.9227215E-01
          2   -1    0    0  501    0  0.00000000000E+00  0.00000000000E+00  0.17008487870E+04  0.17008487870E+04  0.00000000000E+00 0. -1.
         -2   -1    0    0    0  501 -0.00000000000E+00 -0.00000000000E+00 -0.17071085306E+03  0.17071085306E+03  0.00000000000E+00 0.  1.
         23    2    1    2    0    0  0.23088421726E+03 -0.45065059356E+03  0.47361608848E+03  0.69996590108E+03  0.96159160542E+02 0.  0.
         13    1    3    3    0    0  0.14465959921E+03 -0.24498982583E+03  0.20407711963E+03  0.35013409596E+03  0.00000000000E+00 0. -1.
        -13    1    3    3    0    0  0.86224618058E+02 -0.20566076773E+03  0.26953896885E+03  0.34983180512E+03  0.00000000000E+00 0.  1.
         22    1    1    2    0    0 -0.23088421726E+03  0.45065059356E+03  0.10565218455E+04  0.11715937390E+04  0.00000000000E+00 0. -1.
<mgrwt>
<rscale>  0 0.10776889E+04</rscale>
<asrwt>0</asrwt>
<pdfrwt beam="1">  1        2 0.26166903E+00 0.10776889E+04</pdfrwt>
<pdfrwt beam="2">  1       -2 0.26263209E-01 0.10776889E+04</pdfrwt>
<totfact> 0.12771664E+02</totfact>
</mgrwt>
</event>
<event>
 6    1  0.2436515E-005  0.6976561E+04  0.7818608E-02  0.7579857E-01
          2   -1    0    0  501    0  0.00000000000E+00  0.00000000000E+00  0.25759768341E+04  0.25759768341E+04  0.00000000000E+00 0.  1.
         -2   -1    0    0    0  501 -0.00000000000E+00 -0.00000000000E+00 -0.47236842275E+04  0.47236842275E+04  0.00000000000E+00 0. -1.
         23    2    1    2    0    0 -0.20954296060E+03  0.16782703206E+04 -0.42655687111E+04  0.45893407702E+04  0.80453429118E+02 0.  0.
         11    1    3    3    0    0 -0.71066160225E+01  0.11435160499E+03 -0.24112768022E+03  0.26696320294E+03  0.00000000000E+00 0. -1.
        -11    1    3    3    0    0 -0.20243634457E+03  0.15639187156E+04 -0.40244410309E+04  0.43223775672E+04  0.00000000000E+00 0.  1.
         22    1    1    2    0    0  0.20954296060E+03 -0.16782703206E+04  0.21178613177E+04  0.27103202914E+04  0.00000000000E+00 0.  1.
<mgrwt>
<rscale>  0 0.69765611E+04</rscale>
<asrwt>0</asrwt>
<pdfrwt beam="1">  1        2 0.39630413E+00 0.69765611E+04</pdfrwt>
<pdfrwt beam="2">  1       -2 0.72672065E+00 0.69765611E+04</pdfrwt>
<totfact> 0.36185140E-04</totfact>
</mgrwt>
</event>
<event>
 6    1  0.2436515E-005  0.3590728E+04  0.7818608E-02  0.8092619E-01
          2   -1    0    0  501    0  0.00000000000E+00  0.00000000000E+00  0.24789939153E+04  0.24789939153E+04  0.00000000000E+00 0.  1.
         -2   -1    0    0    0  501 -0.00000000000E+00 -0.00000000000E+00 -0.13002579010E+04  0.13002579010E+04  0.00000000000E+00 0. -1.
         23    2    1    2    0    0  0.19221779422E+03  0.93226606604E+03 -0.10109653195E+04  0.13916045163E+04  0.91894256222E+02 0.  0.
         13    1    3    3    0    0  0.10252328484E+03  0.61275187947E+03 -0.60402492973E+03  0.86649985890E+03  0.00000000000E+00 0.  1.
        -13    1    3    3    0    0  0.89694509380E+02  0.31951418657E+03 -0.40694038976E+03  0.52510465743E+03  0.00000000000E+00 0. -1.
         22    1    1    2    0    0 -0.19221779422E+03 -0.93226606604E+03  0.21897013337E+04  0.23876473000E+04  0.00000000000E+00 0.  1.
<mgrwt>
<rscale>  0 0.35907277E+04</rscale>
<asrwt>0</asrwt>
<pdfrwt beam="1">  1        2 0.38138368E+00 0.35907277E+04</pdfrwt>
<pdfrwt beam="2">  1       -2 0.20003968E+00 0.35907277E+04</pdfrwt>
<totfact> 0.38810573E-01</totfact>
</mgrwt>
</event>
<event>
 6    1  0.2436515E-005  0.2203435E+04  0.7818608E-02  0.8517000E-01
          2   -1    0    0  501    0  0.00000000000E+00  0.00000000000E+00  0.16902511105E+04  0.16902511105E+04  0.00000000000E+00 0.  1.
         -2   -1    0    0    0  501 -0.00000000000E+00 -0.00000000000E+00 -0.71810689330E+03  0.71810689330E+03  0.00000000000E+00 0. -1.
         23    2    1    2    0    0 -0.58390316758E+03 -0.57328855212E+03  0.12901128321E+04  0.15304589702E+04  0.91163956378E+02 0.  0.
         13    1    3    3    0    0 -0.10507778601E+03 -0.97788800897E+02  0.29569079465E+03  0.32868987927E+03  0.00000000000E+00 0. -1.
        -13    1    3    3    0    0 -0.47882538156E+03 -0.47549975123E+03  0.99442203742E+03  0.12017690909E+04  0.00000000000E+00 0.  1.
         22    1    1    2    0    0  0.58390316758E+03  0.57328855212E+03 -0.31796861488E+03  0.87789903357E+03  0.00000000000E+00 0. -1.
<mgrwt>
<rscale>  0 0.22034346E+04</rscale>
<asrwt>0</asrwt>
<pdfrwt beam="1">  1        2 0.26003863E+00 0.22034346E+04</pdfrwt>
<pdfrwt beam="2">  1       -2 0.11047798E+00 0.22034346E+04</pdfrwt>
<totfact> 0.59000045E+00</totfact>
</mgrwt>
</event>
<event>
 6    1  0.2436515E-005  0.2087772E+04  0.7818608E-02  0.8566649E-01
          2   -1    0    0  501    0  0.00000000000E+00  0.00000000000E+00  0.12419275212E+04  0.12419275212E+04  0.00000000000E+00 0.  1.
         -2   -1    0    0    0  501 -0.00000000000E+00 -0.00000000000E+00 -0.87742509041E+03  0.87742509041E+03  0.00000000000E+00 0. -1.
         23    2    1    2    0    0  0.89705348144E+03 -0.14051623435E+03  0.70136887302E+03  0.11508853893E+04  0.90383199185E+02 0.  0.
         11    1    3    3    0    0  0.15676501758E+03 -0.51698009085E+02  0.10005051646E+03  0.19302347195E+03  0.00000000000E+00 0.  1.
        -11    1    3    3    0    0  0.74028846386E+03 -0.88818225264E+02  0.60131835656E+03  0.95786191740E+03  0.00000000000E+00 0. -1.
         22    1    1    2    0    0 -0.89705348144E+03  0.14051623435E+03 -0.33686644224E+03  0.96846722226E+03  0.00000000000E+00 0. -1.
<mgrwt>
<rscale>  0 0.20877724E+04</rscale>
<asrwt>0</asrwt>
<pdfrwt beam="1">  1        2 0.19106577E+00 0.20877724E+04</pdfrwt>
<pdfrwt beam="2">  1       -2 0.13498848E+00 0.20877724E+04</pdfrwt>
<totfact> 0.65105138E+00</totfact>
</mgrwt>
</event>
<event>
 6    1  0.2436515E-005  0.2036775E+04  0.7818608E-02  0.8589617E-01
         -2   -1    0    0    0  501 -0.00000000000E+00  0.00000000000E+00  0.52159890934E+03  0.52159890934E+03  0.00000000000E+00 0. -1.
          2   -1    0    0  501    0  0.00000000000E+00 -0.00000000000E+00 -0.19883349726E+04  0.19883349726E+04  0.00000000000E+00 0.  1.
         23    2    1    2    0    0  0.41270066032E+02  0.35823888213E+03  0.43606210828E+03  0.57326684896E+03  0.91904313387E+02 0.  0.
         13    1    3    3    0    0  0.80623390231E+01  0.59980003430E+02  0.27868358650E+02  0.66627678452E+02  0.00000000000E+00 0.  1.
        -13    1    3    3    0    0  0.33207727009E+02  0.29825887870E+03  0.40819374963E+03  0.50663917051E+03  0.00000000000E+00 0. -1.
         22    1    1    2    0    0 -0.41270066032E+02 -0.35823888213E+03 -0.19027981715E+04  0.19366670330E+04  0.00000000000E+00 0.  1.
<mgrwt>
<rscale>  0 0.20367752E+04</rscale>
<asrwt>0</asrwt>
<pdfrwt beam="1">  1        2 0.30589769E+00 0.20367752E+04</pdfrwt>
<pdfrwt beam="2">  1       -2 0.80245985E-01 0.20367752E+04</pdfrwt>
<totfact> 0.86230173E+00</totfact>
</mgrwt>
</event>
<event>
 6    1  0.2436515E-005  0.3285772E+04  0.7818608E-02  0.8166525E-01
          2   -1    0    0  501    0  0.00000000000E+00  0.00000000000E+00  0.21477374178E+04  0.21477374178E+04  0.00000000000E+00 0. -1.
         -2   -1    0    0    0  501 -0.00000000000E+00 -0.00000000000E+00 -0.12567060242E+04  0.12567060242E+04  0.00000000000E+00 0.  1.
         23    2    1    2    0    0  0.37690816363E+03 -0.50518151658E+03  0.20164064816E+04  0.21145840633E+04  0.91118237897E+02 0.  0.
         11    1    3    3    0    0  0.27439180785E+03 -0.37832320919E+03  0.13538143105E+04  0.14322124501E+04  0.00000000000E+00 0.  1.
        -11    1    3    3    0    0  0.10251635578E+03 -0.12685830739E+03  0.66259217105E+03  0.68237161320E+03  0.00000000000E+00 0. -1.
         22    1    1    2    0    0 -0.37690816363E+03  0.50518151658E+03 -0.11253750880E+04  0.12898593788E+04  0.00000000000E+00 0.  1.
<mgrwt>
<rscale>  0 0.32857721E+04</rscale>
<asrwt>0</asrwt>
<pdfrwt beam="1">  1        2 0.33042114E+00 0.32857721E+04</pdfrwt>
<pdfrwt beam="2">  1       -2 0.19333939E+00 0.32857721E+04</pdfrwt>
<totfact> 0.68017926E-01</totfact>
</mgrwt>
</event>
<event>
 6    1  0.2436515E-005  0.1085149E+04  0.7818608E-02  0.9219789E-01
         -2   -1    0    0    0  501 -0.00000000000E+00  0.00000000000E+00  0.24957041932E+03  0.24957041932E+03  0.00000000000E+00 0. -1.
          2   -1    0    0  501    0  0.00000000000E+00 -0.00000000000E+00 -0.11795749953E+04  0.11795749953E+04  0.00000000000E+00 0.  1.
         23    2    1    2    0    0  0.42087238312E+03  0.25169666557E+03 -0.76241388117E+03  0.91090665174E+03  0.89393666729E+02 0.  0.
         13    1    3    3    0    0  0.17320856856E+03  0.56713285970E+02 -0.30765420845E+03  0.35758735576E+03  0.00000000000E+00 0. -1.
        -13    1    3    3    0    0  0.24766381456E+03  0.19498337960E+03 -0.45475967273E+03  0.55331929598E+03  0.00000000000E+00 0.  1.
         22    1    1    2    0    0 -0.42087238312E+03 -0.25169666557E+03 -0.16759069477E+03  0.51823876283E+03  0.00000000000E+00 0. -1.
<mgrwt>
<rscale>  0 0.10851489E+04</rscale>
<asrwt>0</asrwt>
<pdfrwt beam="1">  1        2 0.18147308E+00 0.10851489E+04</pdfrwt>
<pdfrwt beam="2">  1       -2 0.38395448E-01 0.10851489E+04</pdfrwt>
<totfact> 0.12392786E+02</totfact>
</mgrwt>
</event>
<event>
 6    1  0.2436515E-005  0.9403719E+03  0.7818608E-02  0.9376476E-01
          2   -1    0    0  501    0  0.00000000000E+00  0.00000000000E+00  0.13153810522E+04  0.13153810522E+04  0.00000000000E+00 0.  1.
         -2   -1    0    0    0  501 -0.00000000000E+00 -0.00000000000E+00 -0.16806903856E+03  0.16806903856E+03  0.00000000000E+00 0. -1.
         23    2    1    2    0    0  0.32206306847E+02  0.57799503742E+02  0.13063477042E+04  0.13111991701E+04  0.91219024843E+02 0.  0.
         11    1    3    3    0    0  0.48351537863E+02  0.20235667266E+02  0.10742286822E+04  0.10755066783E+04  0.00000000000E+00 0.  1.
        -11    1    3    3    0    0 -0.16145231015E+02  0.37563836476E+02  0.23211902204E+03  0.23569249180E+03  0.00000000000E+00 0. -1.
         22    1    1    2    0    0 -0.32206306847E+02 -0.57799503742E+02 -0.15903569052E+03  0.17225092073E+03  0.00000000000E+00 0. -1.
<mgrwt>
<rscale>  0 0.94037190E+03</rscale>
<asrwt>0</asrwt>
<pdfrwt beam="1">  1        2 0.20236631E+00 0.94037190E+03</pdfrwt>
<pdfrwt beam="2">  1       -2 0.25856776E-01 0.94037190E+03</pdfrwt>
<totfact> 0.21843230E+02</totfact>
</mgrwt>
</event>
<event>
 6    1  0.2436515E-005  0.3520912E+04  0.7818608E-02  0.8108852E-01
         -2   -1    0    0    0  501 -0.00000000000E+00  0.00000000000E+00  0.22089298551E+04  0.22089298551E+04  0.00000000000E+00 0. -1.
          2   -1    0    0  501    0  0.00000000000E+00 -0.00000000000E+00 -0.14030349307E+04  0.14030349307E+04  0.00000000000E+00 0.  1.
         23    2    1    2    0    0 -0.36118656477E+03  0.17171877318E+04  0.53480164864E+03  0.18363857239E+04  0.84322492823E+02 0.  0.
         13    1    3    3    0    0 -0.14495832438E+03  0.89317077626E+03  0.27170771780E+03  0.94477089037E+03  0.00000000000E+00 0. -1.
        -13    1    3    3    0    0 -0.21622824039E+03  0.82401695556E+03  0.26309393084E+03  0.89161483356E+03  0.00000000000E+00 0.  1.
         22    1    1    2    0    0  0.36118656477E+03 -0.17171877318E+04  0.27109327582E+03  0.17755790619E+04  0.00000000000E+00 0. -1.
<mgrwt>
<rscale>  0 0.35209122E+04</rscale>
<asrwt>0</asrwt>
<pdfrwt beam="1">  1        2 0.21585153E+00 0.35209122E+04</pdfrwt>
<pdfrwt beam="2">  1       -2 0.33983536E+00 0.35209122E+04</pdfrwt>
<totfact> 0.21301964E-01</totfact>
</mgrwt>
</event>
<event>
 6    1  0.2436515E-005  0.3623950E+04  0.7818608E-02  0.8085028E-01
          2   -1    0    0  501    0  0.00000000000E+00  0.00000000000E+00  0.18471420984E+04  0.18471420984E+04  0.00000000000E+00 0.  1.
         -2   -1    0    0    0  501 -0.00000000000E+00 -0.00000000000E+00 -0.17774776099E+04  0.17774776099E+04  0.00000000000E+00 0. -1.
         23    2    1    2    0    0 -0.80720956180E+02 -0.17684582478E+04  0.41598354417E+03  0.18207634680E+04  0.90425939733E+02 0.  0.
         13    1    3    3    0    0 -0.62960308049E+02 -0.10174642020E+04  0.28208958731E+03  0.10577201605E+04  0.00000000000E+00 0. -1.
        -13    1    3    3    0    0 -0.17760648131E+02 -0.75099404582E+03  0.13389395686E+03  0.76304330753E+03  0.00000000000E+00 0.  1.
         22    1    1    2    0    0  0.80720956180E+02  0.17684582478E+04 -0.34631905566E+03  0.18038562402E+04  0.00000000000E+00 0.  1.
<mgrwt>
<rscale>  0 0.36239502E+04</rscale>
<asrwt>0</asrwt>
<pdfrwt beam="1">  1        2 0.28417571E+00 0.36239502E+04</pdfrwt>
<pdfrwt beam="2">  1       -2 0.27345809E+00 0.36239502E+04</pdfrwt>
<totfact> 0.30510407E-01</totfact>
</mgrwt>
</event>
<event>
 6    1  0.2436515E-005  0.5407963E+04  0.7818608E-02  0.7768482E-01
         -2   -1    0    0    0  501 -0.00000000000E+00  0.00000000000E+00  0.25335796695E+04  0.25335796695E+04  0.00000000000E+00 0. -1.
          2   -1    0    0  501    0  0.00000000000E+00 -0.00000000000E+00 -0.28858437916E+04  0.28858437916E+04  0.00000000000E+00 0.  1.
         23    2    1    2    0    0  0.11272699392E+04  0.21473296464E+04 -0.13727154787E+04  0.27882482300E+04  0.90654732307E+02 0.  0.
         11    1    3    3    0    0  0.30289060203E+03  0.64398674707E+03 -0.37170965989E+03  0.80288835990E+03  0.00000000000E+00 0. -1.
        -11    1    3    3    0    0  0.82437933713E+03  0.15033428993E+04 -0.10010058188E+04  0.19853598701E+04  0.00000000000E+00 0.  1.
         22    1    1    2    0    0 -0.11272699392E+04 -0.21473296464E+04  0.10204513566E+04  0.26311752312E+04  0.00000000000E+00 0. -1.
<mgrwt>
<rscale>  0 0.54079627E+04</rscale>
<asrwt>0</asrwt>
<pdfrwt beam="1">  1        2 0.44397597E+00 0.54079627E+04</pdfrwt>
<pdfrwt beam="2">  1       -2 0.38978149E+00 0.54079627E+04</pdfrwt>
<totfact> 0.12508399E-02</totfact>
</mgrwt>
</event>
<event>
 6    1  0.2436515E-005  0.2235413E+04  0.7818608E-02  0.8503832E-01
         -2   -1    0    0    0  501 -0.00000000000E+00  0.00000000000E+00  0.10734180120E+04  0.10734180120E+04  0.00000000000E+00 0. -1.
          2   -1    0    0  501    0  0.00000000000E+00 -0.00000000000E+00 -0.11638218951E+04  0.11638218951E+04  0.00000000000E+00 0.  1.
         23    2    1    2    0    0 -0.80392661954E+03  0.75977052654E+03  0.10079153959E+03  0.11146959426E+04  0.94015144497E+02 0.  0.
         13    1    3    3    0    0 -0.41625463133E+03  0.38419367056E+03  0.98310548313E+02  0.57492404586E+03  0.00000000000E+00 0.  1.
        -13    1    3    3    0    0 -0.38767198821E+03  0.37557685598E+03  0.24809912756E+01  0.53977189674E+03  0.00000000000E+00 0. -1.
         22    1    1    2    0    0  0.80392661954E+03 -0.75977052654E+03 -0.19119542264E+03  0.11225439645E+04  0.00000000000E+00 0.  1.
<mgrwt>
<rscale>  0 0.22354126E+04</rscale>
<asrwt>0</asrwt>
<pdfrwt beam="1">  1        2 0.17904952E+00 0.22354126E+04</pdfrwt>
<pdfrwt beam="2">  1       -2 0.16514123E+00 0.22354126E+04</pdfrwt>
<totfact> 0.41921871E+00</totfact>
</mgrwt>
</event>
<event>
 6    1  0.2436515E-005  0.9641974E+03  0.7818608E-02  0.9348708E-01
          2   -1    0    0  501    0  0.00000000000E+00  0.00000000000E+00  0.19484763170E+04  0.19484763170E+04  0.00000000000E+00 0.  1.
         -2   -1    0    0    0  501 -0.00000000000E+00 -0.00000000000E+00 -0.11928251353E+03  0.11928251353E+03  0.00000000000E+00 0. -1.
         23    2    1    2    0    0  0.63725825271E+02 -0.46382145767E+03  0.11261196101E+04  0.12230667880E+04  0.92496843833E+02 0.  0.
         11    1    3    3    0    0  0.88501917705E+01 -0.19949778993E+03  0.58881216076E+03  0.62175353215E+03  0.00000000000E+00 0.  1.
        -11    1    3    3    0    0  0.54875633501E+02 -0.26432366774E+03  0.53730744939E+03  0.60131325584E+03  0.00000000000E+00 0. -1.
         22    1    1    2    0    0 -0.63725825271E+02  0.46382145767E+03  0.70307419330E+03  0.84469204251E+03  0.00000000000E+00 0. -1.
<mgrwt>
<rscale>  0 0.96419739E+03</rscale>
<asrwt>0</asrwt>
<pdfrwt beam="1">  1        2 0.29976556E+00 0.96419739E+03</pdfrwt>
<pdfrwt beam="2">  1       -2 0.18351157E-01 0.96419739E+03</pdfrwt>
<totfact> 0.17801804E+02</totfact>
</mgrwt>
</event>
<event>
 6    1  0.2436515E-005  0.1616697E+04  0.7818608E-02  0.8810356E-01
         -2   -1    0    0    0  501 -0.00000000000E+00  0.00000000000E+00  0.50584447554E+03  0.50584447554E+03  0.00000000000E+00 0. -1.
          2   -1    0    0  501    0  0.00000000000E+00 -0.00000000000E+00 -0.12917546451E+04  0.12917546451E+04  0.00000000000E+00 0.  1.
         23    2    1    2    0    0  0.72543554103E+03 -0.41674026257E+02 -0.78166317523E+03  0.10709551324E+04  0.89185915316E+02 0.  0.
         13    1    3    3    0    0  0.57899113034E+03 -0.60791206989E+02 -0.65564820816E+03  0.87681290634E+03  0.00000000000E+00 0. -1.
        -13    1    3    3    0    0  0.14644441069E+03  0.19117180733E+02 -0.12601496707E+03  0.19414222608E+03  0.00000000000E+00 0.  1.
         22    1    1    2    0    0 -0.72543554103E+03  0.41674026257E+02 -0.42469943213E+01  0.72664398822E+03  0.00000000000E+00 0. -1.
<mgrwt>
<rscale>  0 0.16166966E+04</rscale>
<asrwt>0</asrwt>
<pdfrwt beam="1">  1        2 0.19873148E+00 0.16166966E+04</pdfrwt>
<pdfrwt beam="2">  1       -2 0.77822229E-01 0.16166966E+04</pdfrwt>
<totfact> 0.23544860E+01</totfact>
</mgrwt>
</event>
<event>
 6    1  0.2436515E-005  0.2831347E+04  0.7818608E-02  0.8293602E-01
          2   -1    0    0  501    0  0.00000000000E+00  0.00000000000E+00  0.10552869879E+04  0.10552869879E+04  0.00000000000E+00 0.  1.
         -2   -1    0    0    0  501 -0.00000000000E+00 -0.00000000000E+00 -0.18991339684E+04  0.18991339684E+04  0.00000000000E+00 0. -1.
         23    2    1    2    0    0  0.63464298328E+03  0.89749895081E+03 -0.13515881557E+04  0.17436042138E+04  0.71337430489E+02 0.  0.
         13    1    3    3    0    0  0.15970401568E+03  0.23214943195E+03 -0.39682054532E+03  0.48668806906E+03  0.00000000000E+00 0.  1.
        -13    1    3    3    0    0  0.47493896760E+03  0.66534951886E+03 -0.95476761035E+03  0.12569161448E+04  0.00000000000E+00 0. -1.
         22    1    1    2    0    0 -0.63464298328E+03 -0.89749895081E+03  0.50774117509E+03  0.12108167425E+04  0.00000000000E+00 0.  1.
<mgrwt>
<rscale>  0 0.28313469E+04</rscale>
<asrwt>0</asrwt>
<pdfrwt beam="1">  1        2 0.16235184E+00 0.28313469E+04</pdfrwt>
<pdfrwt beam="2">  1       -2 0.29217446E+00 0.28313469E+04</pdfrwt>
<totfact> 0.71546464E-01</totfact>
</mgrwt>
</event>
<event>
 6    1  0.2436515E-005  0.3394974E+03  0.7818608E-02  0.1067010E+00
         -2   -1    0    0    0  501 -0.00000000000E+00  0.00000000000E+00  0.29340408391E+03  0.29340408391E+03  0.00000000000E+00 0. -1.
          2   -1    0    0  501    0  0.00000000000E+00 -0.00000000000E+00 -0.98207981604E+02  0.98207981604E+02  0.00000000000E+00 0.  1.
         23    2    1    2    0    0 -0.10374707204E+03  0.92735014554E+02  0.16355006335E+02  0.16501247264E+03  0.87168755957E+02 0.  0.
         13    1    3    3    0    0 -0.49785867595E+02  0.95723065287E+02 -0.20650715494E+01  0.10791571878E+03  0.00000000000E+00 0. -1.
        -13    1    3    3    0    0 -0.53961204443E+02 -0.29880507329E+01  0.18420077885E+02  0.57096753860E+02  0.00000000000E+00 0.  1.
         22    1    1    2    0    0  0.10374707204E+03 -0.92735014554E+02  0.17884109597E+03  0.22659959287E+03  0.00000000000E+00 0. -1.
<mgrwt>
<rscale>  0 0.33949741E+03</rscale>
<asrwt>0</asrwt>
<pdfrwt beam="1">  1        2 0.15108920E-01 0.33949741E+03</pdfrwt>
<pdfrwt beam="2">  1       -2 0.45139089E-01 0.33949741E+03</pdfrwt>
<totfact> 0.18268782E+03</totfact>
</mgrwt>
</event>
<event>
 6    1  0.2436515E-005  0.2861357E+03  0.7818608E-02  0.1092384E+00
          2   -1    0    0  501    0  0.00000000000E+00  0.00000000000E+00  0.32386705925E+03  0.32386705925E+03  0.00000000000E+00 0.  1.
         -2   -1    0    0    0  501 -0.00000000000E+00 -0.00000000000E+00 -0.63200015501E+02  0.63200015501E+02  0.00000000000E+00 0. -1.
         23    2    1    2    0    0  0.11193003093E+02 -0.81182225466E+02  0.27748443626E+03  0.30340907011E+03  0.91343387349E+02 0.  0.
         11    1    3    3    0    0  0.17434926838E+02  0.97186188570E+01  0.13382533159E+02  0.24031654543E+02  0.00000000000E+00 0. -1.
        -11    1    3    3    0    0 -0.62419237452E+01 -0.90900844323E+02  0.26410190310E+03  0.27937741557E+03  0.00000000000E+00 0.  1.
         22    1    1    2    0    0 -0.11193003093E+02  0.81182225466E+02 -0.16817392505E+02  0.83658004641E+02  0.00000000000E+00 0. -1.
<mgrwt>
<rscale>  0 0.28613565E+03</rscale>
<asrwt>0</asrwt>
<pdfrwt beam="1">  1        2 0.49825700E-01 0.28613565E+03</pdfrwt>
<pdfrwt beam="2">  1       -2 0.97230795E-02 0.28613565E+03</pdfrwt>
<totfact> 0.69462471E+03</totfact>
</mgrwt>
</event>
<event>
 6    1  0.2436515E-005  0.6976368E+03  0.7818608E-02  0.9721282E-01
         -2   -1    0    0    0  501 -0.00000000000E+00  0.00000000000E+00  0.63674552912E+02  0.63674552912E+02  0.00000000000E+00 0. -1.
          2   -1    0    0  501    0  0.00000000000E+00 -0.00000000000E+00 -0.19108775424E+04  0.19108775424E+04  0.00000000000E+00 0.  1.
         23    2    1    2    0    0 -0.20031270356E+02  0.34844183982E+02 -0.19030906294E+04  0.19057131729E+04  0.91506199663E+02 0.  0.
         11    1    3    3    0    0  0.10765231618E+02 -0.13457910458E+02 -0.85475323634E+02  0.87195392746E+02  0.00000000000E+00 0. -1.
        -11    1    3    3    0    0 -0.30796501974E+02  0.48302094440E+02 -0.18176153058E+04  0.18185177801E+04  0.00000000000E+00 0.  1.
         22    1    1    2    0    0  0.20031270356E+02 -0.34844183982E+02  0.55887639908E+02  0.68838922449E+02  0.00000000000E+00 0. -1.
<mgrwt>
<rscale>  0 0.69763679E+03</rscale>
<asrwt>0</asrwt>
<pdfrwt beam="1">  1        2 0.29398113E+00 0.69763679E+03</pdfrwt>
<pdfrwt beam="2">  1       -2 0.97960862E-02 0.69763679E+03</pdfrwt>
<totfact> 0.54477224E+02</totfact>
</mgrwt>
</event>
<event>
 6    1  0.2436515E-005  0.1899090E+04  0.7818608E-02  0.8655310E-01
         -2   -1    0    0    0  501 -0.00000000000E+00  0.00000000000E+00  0.58312384842E+03  0.58312384842E+03  0.00000000000E+00 0. -1.
          2   -1    0    0  501    0  0.00000000000E+00 -0.00000000000E+00 -0.15462163449E+04  0.15462163449E+04  0.00000000000E+00 0.  1.
         23    2    1    2    0    0 -0.28215230302E+03  0.36183960770E+03 -0.14120191580E+04  0.14874110919E+04  0.89754275939E+02 0.  0.
         13    1    3    3    0    0 -0.20505281635E+03  0.20196219766E+03 -0.80126426349E+03  0.85138698999E+03  0.00000000000E+00 0.  1.
        -13    1    3    3    0    0 -0.77099486666E+02  0.15987741005E+03 -0.61075489452E+03  0.63602410196E+03  0.00000000000E+00 0. -1.
         22    1    1    2    0    0  0.28215230302E+03 -0.36183960770E+03  0.44892666151E+03  0.64192910139E+03  0.00000000000E+00 0. -1.
<mgrwt>
<rscale>  0 0.18990899E+04</rscale>
<asrwt>0</asrwt>
<pdfrwt beam="1">  1        2 0.23787943E+00 0.18990899E+04</pdfrwt>
<pdfrwt beam="2">  1       -2 0.89711363E-01 0.18990899E+04</pdfrwt>
<totfact> 0.11921607E+01</totfact>
</mgrwt>
</event>
<event>
 6    1  0.2436515E-005  0.2081376E+04  0.7818608E-02  0.8569492E-01
         -2   -1    0    0    0  501 -0.00000000000E+00  0.00000000000E+00  0.18823347454E+04  0.18823347454E+04  0.00000000000E+00 0. -1.
          2   -1    0    0  501    0  0.00000000000E+00 -0.00000000000E+00 -0.57536589364E+03  0.57536589364E+03  0.00000000000E+00 0.  1.
         23    2    1    2    0    0  0.64802641077E+03  0.42616436348E+03 -0.16122735515E+03  0.79723251356E+03  0.89616554676E+02 0.  0.
         13    1    3    3    0    0  0.19002558243E+03  0.85513341919E+02 -0.65746177815E+02  0.21850586610E+03  0.00000000000E+00 0. -1.
        -13    1    3    3    0    0  0.45800082834E+03  0.34065102157E+03 -0.95481177331E+02  0.57872664746E+03  0.00000000000E+00 0.  1.
         22    1    1    2    0    0 -0.64802641077E+03 -0.42616436348E+03  0.14681962069E+04  0.16604681255E+04  0.00000000000E+00 0.  1.
<mgrwt>
<rscale>  0 0.20813757E+04</rscale>
<asrwt>0</asrwt>
<pdfrwt beam="1">  1        2 0.88517831E-01 0.20813757E+04</pdfrwt>
<pdfrwt beam="2">  1       -2 0.28958996E+00 0.20813757E+04</pdfrwt>
<totfact> 0.17729430E+00</totfact>
</mgrwt>
</event>
<event>
 6    1  0.3296223E-005  0.2816404E+04  0.7818608E-02  0.8298194E-01
          2   -1    0    0  501    0  0.00000000000E+00  0.00000000000E+00  0.13769936637E+04  0.13769936637E+04  0.00000000000E+00 0.  1.
         -2   -1    0    0    0  501 -0.00000000000E+00 -0.00000000000E+00 -0.14401171423E+04  0.14401171423E+04  0.00000000000E+00 0. -1.
         23    2    1    2    0    0  0.11914338177E+03  0.10646758964E+04  0.88017724524E+03  0.13896843927E+04  0.93706021526E+02 0.  0.
         13    1    3    3    0    0  0.61291053806E+02  0.59332890205E+03  0.42986628337E+03  0.73524200157E+03  0.00000000000E+00 0. -1.
        -13    1    3    3    0    0  0.57852327961E+02  0.47134699439E+03  0.45031096187E+03  0.65444239117E+03  0.00000000000E+00 0.  1.
         22    1    1    2    0    0 -0.11914338177E+03 -0.10646758964E+04 -0.94330072382E+03  0.14274264133E+04  0.00000000000E+00 0. -1.
<mgrwt>
<rscale>  0 0.28164035E+04</rscale>
<asrwt>0</asrwt>
<pdfrwt beam="1">  1        2 0.21184518E+00 0.28164035E+04</pdfrwt>
<pdfrwt beam="2">  1       -2 0.22155648E+00 0.28164035E+04</pdfrwt>
<totfact> 0.12525273E+00</totfact>
</mgrwt>
</event>
<event>
 6    1  0.2436515E-005  0.2880646E+04  0.7818608E-02  0.8278659E-01
          2   -1    0    0  501    0  0.00000000000E+00  0.00000000000E+00  0.12378460305E+04  0.12378460305E+04  0.00000000000E+00 0.  1.
         -2   -1    0    0    0  501 -0.00000000000E+00 -0.00000000000E+00 -0.16759190164E+04  0.16759190164E+04  0.00000000000E+00 0. -1.
         23    2    1    2    0    0 -0.10003803025E+04  0.57029714869E+02  0.82523994257E+03  0.13013219648E+04  0.91677451676E+02 0.  0.
         11    1    3    3    0    0 -0.98258842900E+03  0.68387567228E+02  0.80499554638E+03  0.12720749624E+04  0.00000000000E+00 0.  1.
        -11    1    3    3    0    0 -0.17791873520E+02 -0.11357852359E+02  0.20244396186E+02  0.29247002419E+02  0.00000000000E+00 0. -1.
         22    1    1    2    0    0  0.10003803025E+04 -0.57029714869E+02 -0.12633129284E+04  0.16124430822E+04  0.00000000000E+00 0. -1.
<mgrwt>
<rscale>  0 0.28806456E+04</rscale>
<asrwt>0</asrwt>
<pdfrwt beam="1">  1        2 0.19043785E+00 0.28806456E+04</pdfrwt>
<pdfrwt beam="2">  1       -2 0.25783370E+00 0.28806456E+04</pdfrwt>
<totfact> 0.89419649E-01</totfact>
</mgrwt>
</event>
<event>
 6    1  0.2436515E-005  0.1982798E+04  0.7818608E-02  0.8614706E-01
          1   -1    0    0  501    0  0.00000000000E+00  0.00000000000E+00  0.25366104965E+04  0.25366104965E+04  0.00000000000E+00 0.  1.
         -1   -1    0    0    0  501 -0.00000000000E+00 -0.00000000000E+00 -0.38747459725E+03  0.38747459725E+03  0.00000000000E+00 0. -1.
         23    2    1    2    0    0  0.97492219616E+03 -0.12490775521E+03  0.93062287074E+03  0.13585662543E+04  0.11648220472E+03 0.  0.
         11    1    3    3    0    0  0.70729591989E+03 -0.52478667067E+02  0.71740378707E+03  0.10088060877E+04  0.00000000000E+00 0.  1.
        -11    1    3    3    0    0  0.26762627627E+03 -0.72429088140E+02  0.21321908367E+03  0.34976016668E+03  0.00000000000E+00 0. -1.
         22    1    1    2    0    0 -0.97492219616E+03  0.12490775521E+03  0.12185130285E+04  0.15655188394E+04  0.00000000000E+00 0. -1.
<mgrwt>
<rscale>  0 0.19827982E+04</rscale>
<asrwt>0</asrwt>
<pdfrwt beam="1">  1        1 0.39024776E+00 0.19827982E+04</pdfrwt>
<pdfrwt beam="2">  1       -1 0.59611478E-01 0.19827982E+04</pdfrwt>
<totfact> 0.33883706E+00</totfact>
</mgrwt>
</event>
<event>
 6    1  0.2436515E-005  0.4689193E+04  0.7818608E-02  0.7878327E-01
         -2   -1    0    0    0  501 -0.00000000000E+00  0.00000000000E+00  0.33474448592E+04  0.33474448592E+04  0.00000000000E+00 0. -1.
          2   -1    0    0  501    0  0.00000000000E+00 -0.00000000000E+00 -0.16421876451E+04  0.16421876451E+04  0.00000000000E+00 0.  1.
         23    2    1    2    0    0  0.19503718357E+04  0.20424090494E+03 -0.51279478031E+03  0.20289874235E+04  0.90370531663E+02 0.  0.
         11    1    3    3    0    0  0.14350214567E+04  0.18892445875E+03 -0.36759653101E+03  0.14933540243E+04  0.00000000000E+00 0. -1.
        -11    1    3    3    0    0  0.51535037900E+03  0.15316446191E+02 -0.14519824930E+03  0.53563339912E+03  0.00000000000E+00 0.  1.
         22    1    1    2    0    0 -0.19503718357E+04 -0.20424090494E+03  0.22180519944E+04  0.29606450809E+04  0.00000000000E+00 0. -1.
<mgrwt>
<rscale>  0 0.46891929E+04</rscale>
<asrwt>0</asrwt>
<pdfrwt beam="1">  1        2 0.25264425E+00 0.46891929E+04</pdfrwt>
<pdfrwt beam="2">  1       -2 0.51499151E+00 0.46891929E+04</pdfrwt>
<totfact> 0.10602581E-02</totfact>
</mgrwt>
</event>
<event>
 6    1  0.2436515E-005  0.2183258E+04  0.7818608E-02  0.8525429E-01
          2   -1    0    0  501    0  0.00000000000E+00  0.00000000000E+00  0.12042634990E+04  0.12042634990E+04  0.00000000000E+00 0.  1.
         -2   -1    0    0    0  501 -0.00000000000E+00 -0.00000000000E+00 -0.98952923154E+03  0.98952923154E+03  0.00000000000E+00 0. -1.
         23    2    1    2    0    0 -0.61877886080E+03  0.80962968533E+03 -0.28033408282E+03  0.10608848890E+04  0.92206527857E+02 0.  0.
         11    1    3    3    0    0 -0.55030582977E+03  0.67234529740E+03 -0.25418315919E+03  0.90525895943E+03  0.00000000000E+00 0.  1.
        -11    1    3    3    0    0 -0.68473031033E+02  0.13728438793E+03 -0.26150923625E+02  0.15562592957E+03  0.00000000000E+00 0. -1.
         22    1    1    2    0    0  0.61877886080E+03 -0.80962968533E+03  0.49506835026E+03  0.11329078415E+04  0.00000000000E+00 0.  1.
<mgrwt>
<rscale>  0 0.21832581E+04</rscale>
<asrwt>0</asrwt>
<pdfrwt beam="1">  1        2 0.18527131E+00 0.21832581E+04</pdfrwt>
<pdfrwt beam="2">  1       -2 0.15223527E+00 0.21832581E+04</pdfrwt>
<totfact> 0.49650777E+00</totfact>
</mgrwt>
</event>
<event>
 6    1  0.2436515E-005  0.1377676E+04  0.7818608E-02  0.8970138E-01
         -2   -1    0    0    0  501 -0.00000000000E+00  0.00000000000E+00  0.51165292209E+03  0.51165292209E+03  0.00000000000E+00 0. -1.
          2   -1    0    0  501    0  0.00000000000E+00 -0.00000000000E+00 -0.92738255146E+03  0.92738255146E+03  0.00000000000E+00 0.  1.
         23    2    1    2    0    0  0.22750000207E+03  0.25210264592E+03  0.41337881425E+03  0.54308189982E+03  0.93508880993E+02 0.  0.
         13    1    3    3    0    0  0.94201921609E+01  0.59449359058E+02  0.87374944864E+02  0.10610064704E+03  0.00000000000E+00 0. -1.
        -13    1    3    3    0    0  0.21807980991E+03  0.19265328686E+03  0.32600386938E+03  0.43698125278E+03  0.00000000000E+00 0.  1.
         22    1    1    2    0    0 -0.22750000207E+03 -0.25210264592E+03 -0.82910844361E+03  0.89595357374E+03  0.00000000000E+00 0.  1.
<mgrwt>
<rscale>  0 0.13776763E+04</rscale>
<asrwt>0</asrwt>
<pdfrwt beam="1">  1        2 0.14267424E+00 0.13776763E+04</pdfrwt>
<pdfrwt beam="2">  1       -2 0.78715836E-01 0.13776763E+04</pdfrwt>
<totfact> 0.39286825E+01</totfact>
</mgrwt>
</event>
<event>
 6    1  0.2436515E-005  0.3278122E+04  0.7818608E-02  0.8168485E-01
          2   -1    0    0  501    0  0.00000000000E+00  0.00000000000E+00  0.19199946126E+04  0.19199946126E+04  0.00000000000E+00 0.  1.
         -2   -1    0    0    0  501 -0.00000000000E+00 -0.00000000000E+00 -0.13992339853E+04  0.13992339853E+04  0.00000000000E+00 0. -1.
         23    2    1    2    0    0  0.74471254633E+03  0.12930760259E+04  0.94398617118E+03  0.17681766173E+04  0.93253808930E+02 0.  0.
         11    1    3    3    0    0  0.59030265324E+03  0.97625822393E+03  0.75756395151E+03  0.13694672259E+04  0.00000000000E+00 0. -1.
        -11    1    3    3    0    0  0.15440989309E+03  0.31681780201E+03  0.18642221967E+03  0.39870939134E+03  0.00000000000E+00 0.  1.
         22    1    1    2    0    0 -0.74471254633E+03 -0.12930760259E+04 -0.42322554389E+03  0.15510519806E+04  0.00000000000E+00 0. -1.
<mgrwt>
<rscale>  0 0.32781225E+04</rscale>
<asrwt>0</asrwt>
<pdfrwt beam="1">  1        2 0.29538379E+00 0.32781225E+04</pdfrwt>
<pdfrwt beam="2">  1       -2 0.21526677E+00 0.32781225E+04</pdfrwt>
<totfact> 0.65610647E-01</totfact>
</mgrwt>
</event>
<event>
 6    1  0.2436515E-005  0.7668717E+03  0.7818608E-02  0.9609247E-01
          2   -1    0    0  501    0  0.00000000000E+00  0.00000000000E+00  0.54071663674E+03  0.54071663674E+03  0.00000000000E+00 0.  1.
         -2   -1    0    0    0  501 -0.00000000000E+00 -0.00000000000E+00 -0.27190404250E+03  0.27190404250E+03  0.00000000000E+00 0. -1.
         23    2    1    2    0    0 -0.26987499847E+03  0.88331721636E+02  0.40079538707E+03  0.49948418272E+03  0.90622837291E+02 0.  0.
         13    1    3    3    0    0 -0.16179124933E+03  0.90226609439E+02  0.29421891401E+03  0.34768091517E+03  0.00000000000E+00 0. -1.
        -13    1    3    3    0    0 -0.10808374914E+03 -0.18948878028E+01  0.10657647306E+03  0.15180326755E+03  0.00000000000E+00 0.  1.
         22    1    1    2    0    0  0.26987499847E+03 -0.88331721636E+02 -0.13198279284E+03  0.31313649652E+03  0.00000000000E+00 0. -1.
<mgrwt>
<rscale>  0 0.76687167E+03</rscale>
<asrwt>0</asrwt>
<pdfrwt beam="1">  1        2 0.83187175E-01 0.76687167E+03</pdfrwt>
<pdfrwt beam="2">  1       -2 0.41831391E-01 0.76687167E+03</pdfrwt>
<totfact> 0.30635296E+02</totfact>
</mgrwt>
</event>
<event>
 6    1  0.2436515E-005  0.1531798E+04  0.7818608E-02  0.8863579E-01
         -2   -1    0    0    0  501 -0.00000000000E+00  0.00000000000E+00  0.29869056126E+03  0.29869056126E+03  0.00000000000E+00 0. -1.
          2   -1    0    0  501    0  0.00000000000E+00 -0.00000000000E+00 -0.19639096924E+04  0.19639096924E+04  0.00000000000E+00 0.  1.
         23    2    1    2    0    0  0.82493313288E+02  0.72184575864E+03 -0.11805917978E+04  0.13892560499E+04  0.91481873508E+02 0.  0.
         11    1    3    3    0    0  0.69101440826E+02  0.25095428846E+03 -0.45364937763E+03  0.52302086177E+03  0.00000000000E+00 0. -1.
        -11    1    3    3    0    0  0.13391872463E+02  0.47089147017E+03 -0.72694242016E+03  0.86623518813E+03  0.00000000000E+00 0.  1.
         22    1    1    2    0    0 -0.82493313288E+02 -0.72184575864E+03 -0.48462733334E+03  0.87334420375E+03  0.00000000000E+00 0. -1.
<mgrwt>
<rscale>  0 0.15317980E+04</rscale>
<asrwt>0</asrwt>
<pdfrwt beam="1">  1        2 0.30213995E+00 0.15317980E+04</pdfrwt>
<pdfrwt beam="2">  1       -2 0.45952395E-01 0.15317980E+04</pdfrwt>
<totfact> 0.30293359E+01</totfact>
</mgrwt>
</event>
<event>
 6    1  0.2436515E-005  0.9502664E+03  0.7818608E-02  0.9364839E-01
          2   -1    0    0  501    0  0.00000000000E+00  0.00000000000E+00  0.10775274983E+04  0.10775274983E+04  0.00000000000E+00 0.  1.
         -2   -1    0    0    0  501 -0.00000000000E+00 -0.00000000000E+00 -0.20950885430E+03  0.20950885430E+03  0.00000000000E+00 0. -1.
         23    2    1    2    0    0 -0.31360931797E+03  0.20359503347E+03  0.82541536384E+03  0.91071630072E+03  0.91059955850E+02 0.  0.
         13    1    3    3    0    0 -0.46063987008E+02  0.74875898645E+02  0.19244124727E+03  0.21157014143E+03  0.00000000000E+00 0. -1.
        -13    1    3    3    0    0 -0.26754533096E+03  0.12871913482E+03  0.63297411658E+03  0.69914615929E+03  0.00000000000E+00 0.  1.
         22    1    1    2    0    0  0.31360931797E+03 -0.20359503347E+03  0.42603280155E+02  0.37632005188E+03  0.00000000000E+00 0.  1.
<mgrwt>
<rscale>  0 0.95026639E+03</rscale>
<asrwt>0</asrwt>
<pdfrwt beam="1">  1        2 0.16577346E+00 0.95026639E+03</pdfrwt>
<pdfrwt beam="2">  1       -2 0.32232132E-01 0.95026639E+03</pdfrwt>
<totfact> 0.20143825E+02</totfact>
</mgrwt>
</event>
<event>
 6    1  0.2436515E-005  0.1398058E+04  0.7818608E-02  0.8955225E-01
          2   -1    0    0  501    0  0.00000000000E+00  0.00000000000E+00  0.90508543843E+03  0.90508543843E+03  0.00000000000E+00 0.  1.
         -2   -1    0    0    0  501 -0.00000000000E+00 -0.00000000000E+00 -0.53988455066E+03  0.53988455066E+03  0.00000000000E+00 0. -1.
         23    2    1    2    0    0  0.25056234635E+03 -0.16200589610E+03  0.83298191284E+03  0.89013083474E+03  0.97193806685E+02 0.  0.
         13    1    3    3    0    0  0.15680661242E+03 -0.44514193591E+02  0.40849515878E+03  0.43981600911E+03  0.00000000000E+00 0. -1.
        -13    1    3    3    0    0  0.93755733930E+02 -0.11749170251E+03  0.42448675406E+03  0.45031482563E+03  0.00000000000E+00 0.  1.
         22    1    1    2    0    0 -0.25056234635E+03  0.16200589610E+03 -0.46778102507E+03  0.55483915435E+03  0.00000000000E+00 0. -1.
<mgrwt>
<rscale>  0 0.13980581E+04</rscale>
<asrwt>0</asrwt>
<pdfrwt beam="1">  1        2 0.13924391E+00 0.13980581E+04</pdfrwt>
<pdfrwt beam="2">  1       -2 0.83059161E-01 0.13980581E+04</pdfrwt>
<totfact> 0.35971245E+01</totfact>
</mgrwt>
</event>
<event>
 6    1  0.2436515E-005  0.2272425E+04  0.7818608E-02  0.8488873E-01
         -1   -1    0    0    0  501 -0.00000000000E+00  0.00000000000E+00  0.76491979639E+03  0.76491979639E+03  0.00000000000E+00 0. -1.
          1   -1    0    0  501    0  0.00000000000E+00 -0.00000000000E+00 -0.16877316132E+04  0.16877316132E+04  0.00000000000E+00 0.  1.
         23    2    1    2    0    0 -0.19574956364E+03 -0.23286632640E+03 -0.16416453719E+04  0.16720962882E+04  0.91443164778E+02 0.  0.
         13    1    3    3    0    0 -0.46597398646E+02 -0.68160632516E+02 -0.68637347547E+03  0.69132173206E+03  0.00000000000E+00 0.  1.
        -13    1    3    3    0    0 -0.14915216500E+03 -0.16470569388E+03 -0.95527189641E+03  0.98077455615E+03  0.00000000000E+00 0. -1.
         22    1    1    2    0    0  0.19574956364E+03  0.23286632640E+03  0.71883355506E+03  0.78055512138E+03  0.00000000000E+00 0. -1.
<mgrwt>
<rscale>  0 0.22724254E+04</rscale>
<asrwt>0</asrwt>
<pdfrwt beam="1">  1        1 0.25965102E+00 0.22724254E+04</pdfrwt>
<pdfrwt beam="2">  1       -1 0.11767997E+00 0.22724254E+04</pdfrwt>
<totfact> 0.28581983E+00</totfact>
</mgrwt>
</event>
<event>
 6    1  0.2436515E-005  0.3063896E+04  0.7818608E-02  0.8225717E-01
         -2   -1    0    0    0  501 -0.00000000000E+00  0.00000000000E+00  0.15031982540E+04  0.15031982540E+04  0.00000000000E+00 0. -1.
          2   -1    0    0  501    0  0.00000000000E+00 -0.00000000000E+00 -0.15612471907E+04  0.15612471907E+04  0.00000000000E+00 0.  1.
         23    2    1    2    0    0  0.13535338911E+04  0.69462861956E+03 -0.19742024407E+03  0.15367061755E+04  0.89040459532E+02 0.  0.
         13    1    3    3    0    0  0.75007424803E+03  0.38715272182E+03 -0.15407492138E+03  0.85804294121E+03  0.00000000000E+00 0.  1.
        -13    1    3    3    0    0  0.60345964308E+03  0.30747589774E+03 -0.43345322691E+02  0.67866323424E+03  0.00000000000E+00 0. -1.
         22    1    1    2    0    0 -0.13535338911E+04 -0.69462861956E+03  0.13937130731E+03  0.15277392692E+04  0.00000000000E+00 0. -1.
<mgrwt>
<rscale>  0 0.30638956E+04</rscale>
<asrwt>0</asrwt>
<pdfrwt beam="1">  1        2 0.24019187E+00 0.30638956E+04</pdfrwt>
<pdfrwt beam="2">  1       -2 0.23126127E+00 0.30638956E+04</pdfrwt>
<totfact> 0.83826263E-01</totfact>
</mgrwt>
</event>
<event>
 6    1  0.2436515E-005  0.2094863E+04  0.7818608E-02  0.8563510E-01
         -2   -1    0    0    0  501 -0.00000000000E+00  0.00000000000E+00  0.64375533392E+03  0.64375533392E+03  0.00000000000E+00 0. -1.
          2   -1    0    0  501    0  0.00000000000E+00 -0.00000000000E+00 -0.17042385615E+04  0.17042385615E+04  0.00000000000E+00 0.  1.
         23    2    1    2    0    0 -0.35783389640E+03  0.83912499715E+03 -0.11036159801E+04  0.14347380207E+04  0.91263893286E+02 0.  0.
         11    1    3    3    0    0 -0.76698017944E+02  0.19890973661E+03 -0.20125862487E+03  0.29317691478E+03  0.00000000000E+00 0.  1.
        -11    1    3    3    0    0 -0.28113587846E+03  0.64021526054E+03 -0.90235735526E+03  0.11415611059E+04  0.00000000000E+00 0. -1.
         22    1    1    2    0    0  0.35783389640E+03 -0.83912499715E+03  0.43132752605E+02  0.91325587466E+03  0.00000000000E+00 0. -1.
<mgrwt>
<rscale>  0 0.20948629E+04</rscale>
<asrwt>0</asrwt>
<pdfrwt beam="1">  1        2 0.26219055E+00 0.20948629E+04</pdfrwt>
<pdfrwt beam="2">  1       -2 0.99039282E-01 0.20948629E+04</pdfrwt>
<totfact> 0.75996971E+00</totfact>
</mgrwt>
</event>
<event>
 6    1  0.2436515E-005  0.2073608E+04  0.7818608E-02  0.8572959E-01
         -2   -1    0    0    0  501 -0.00000000000E+00  0.00000000000E+00  0.37959782552E+03  0.37959782552E+03  0.00000000000E+00 0. -1.
          2   -1    0    0  501    0  0.00000000000E+00 -0.00000000000E+00 -0.28318469796E+04  0.28318469796E+04  0.00000000000E+00 0.  1.
         23    2    1    2    0    0 -0.52305555372E+03  0.19910946419E+03  0.11960442716E+03  0.57939949123E+03  0.90370683439E+02 0.  0.
         11    1    3    3    0    0 -0.14051987697E+03  0.88777422804E+02  0.60624881264E+02  0.17692552911E+03  0.00000000000E+00 0. -1.
        -11    1    3    3    0    0 -0.38253567675E+03  0.11033204139E+03  0.58979545900E+02  0.40247396211E+03  0.00000000000E+00 0.  1.
         22    1    1    2    0    0  0.52305555372E+03 -0.19910946419E+03 -0.25718535812E+04  0.26320453139E+04  0.00000000000E+00 0.  1.
<mgrwt>
<rscale>  0 0.20736084E+04</rscale>
<asrwt>0</asrwt>
<pdfrwt beam="1">  1        2 0.43566877E+00 0.20736084E+04</pdfrwt>
<pdfrwt beam="2">  1       -2 0.58399665E-01 0.20736084E+04</pdfrwt>
<totfact> 0.56080914E+00</totfact>
</mgrwt>
</event>
<event>
 6    1  0.2436515E-005  0.4143988E+04  0.7818608E-02  0.7976113E-01
          2   -1    0    0  501    0  0.00000000000E+00  0.00000000000E+00  0.34464263629E+04  0.34464263629E+04  0.00000000000E+00 0.  1.
         -2   -1    0    0    0  501 -0.00000000000E+00 -0.00000000000E+00 -0.12456842045E+04  0.12456842045E+04  0.00000000000E+00 0. -1.
         23    2    1    2    0    0  0.16738626838E+04  0.27429719143E+02  0.24813531372E+04  0.29946680219E+04  0.91402935491E+02 0.  0.
         13    1    3    3    0    0  0.99509188697E+03  0.47231990235E+02  0.15332769597E+04  0.18284903498E+04  0.00000000000E+00 0. -1.
        -13    1    3    3    0    0  0.67877079682E+03 -0.19802271093E+02  0.94807617749E+03  0.11661776721E+04  0.00000000000E+00 0.  1.
         22    1    1    2    0    0 -0.16738626838E+04 -0.27429719143E+02 -0.28061097871E+03  0.16974425454E+04  0.00000000000E+00 0. -1.
<mgrwt>
<rscale>  0 0.41439879E+04</rscale>
<asrwt>0</asrwt>
<pdfrwt beam="1">  1        2 0.53021944E+00 0.41439879E+04</pdfrwt>
<pdfrwt beam="2">  1       -2 0.19164373E+00 0.41439879E+04</pdfrwt>
<totfact> 0.10421395E-01</totfact>
</mgrwt>
</event>
<event>
 6    1  0.2436515E-005  0.1267902E+04  0.7818608E-02  0.9055413E-01
         -1   -1    0    0    0  501 -0.00000000000E+00  0.00000000000E+00  0.68976619111E+03  0.68976619111E+03  0.00000000000E+00 0. -1.
          1   -1    0    0  501    0  0.00000000000E+00 -0.00000000000E+00 -0.58265270263E+03  0.58265270263E+03  0.00000000000E+00 0.  1.
         23    2    1    2    0    0  0.28050051983E+03  0.56481548616E+03  0.44641405028E+02  0.63869984222E+03  0.90816068929E+02 0.  0.
         13    1    3    3    0    0  0.47004472174E+02  0.16657949579E+03 -0.12504825944E+02  0.17353535517E+03  0.00000000000E+00 0.  1.
        -13    1    3    3    0    0  0.23349604766E+03  0.39823599038E+03  0.57146230972E+02  0.46516448706E+03  0.00000000000E+00 0. -1.
         22    1    1    2    0    0 -0.28050051983E+03 -0.56481548616E+03  0.62472083453E+02  0.63371905151E+03  0.00000000000E+00 0.  1.
<mgrwt>
<rscale>  0 0.12679024E+04</rscale>
<asrwt>0</asrwt>
<pdfrwt beam="1">  1        1 0.89638877E-01 0.12679024E+04</pdfrwt>
<pdfrwt beam="2">  1       -1 0.10611788E+00 0.12679024E+04</pdfrwt>
<totfact> 0.29240361E+01</totfact>
</mgrwt>
</event>
<event>
 6    1  0.2436515E-005  0.3444252E+04  0.7818608E-02  0.8127130E-01
          2   -1    0    0  501    0  0.00000000000E+00  0.00000000000E+00  0.26453316068E+04  0.26453316068E+04  0.00000000000E+00 0.  1.
         -2   -1    0    0    0  501 -0.00000000000E+00 -0.00000000000E+00 -0.11211139839E+04  0.11211139839E+04  0.00000000000E+00 0. -1.
         23    2    1    2    0    0  0.18951768923E+03 -0.11232790543E+04 -0.64803634785E+03  0.13136186295E+04  0.89274896480E+02 0.  0.
         11    1    3    3    0    0  0.60536917372E+02 -0.21252325315E+03 -0.96788051598E+02  0.24124422983E+03  0.00000000000E+00 0. -1.
        -11    1    3    3    0    0  0.12898077185E+03 -0.91075580116E+03 -0.55124829625E+03  0.10723743996E+04  0.00000000000E+00 0.  1.
         22    1    1    2    0    0 -0.18951768923E+03  0.11232790543E+04  0.21722539708E+04  0.24528269613E+04  0.00000000000E+00 0.  1.
<mgrwt>
<rscale>  0 0.34442522E+04</rscale>
<asrwt>0</asrwt>
<pdfrwt beam="1">  1        2 0.40697409E+00 0.34442522E+04</pdfrwt>
<pdfrwt beam="2">  1       -2 0.17247908E+00 0.34442522E+04</pdfrwt>
<totfact> 0.48335410E-01</totfact>
</mgrwt>
</event>
<event>
 6    1  0.2436515E-005  0.2404960E+04  0.7818608E-02  0.8437649E-01
          2   -1    0    0  501    0  0.00000000000E+00  0.00000000000E+00  0.14542993659E+04  0.14542993659E+04  0.00000000000E+00 0.  1.
         -2   -1    0    0    0  501 -0.00000000000E+00 -0.00000000000E+00 -0.99426452487E+03  0.99426452487E+03  0.00000000000E+00 0. -1.
         23    2    1    2    0    0  0.34241356019E+03  0.81113074027E+03 -0.60070591657E+03  0.10700316718E+04  0.94551871305E+02 0.  0.
         11    1    3    3    0    0  0.27370478677E+03  0.57673361004E+03 -0.39512724860E+03  0.75077394057E+03  0.00000000000E+00 0.  1.
        -11    1    3    3    0    0  0.68708773418E+02  0.23439713022E+03 -0.20557866797E+03  0.31925773119E+03  0.00000000000E+00 0. -1.
         22    1    1    2    0    0 -0.34241356019E+03 -0.81113074027E+03  0.10607407576E+04  0.13785322190E+04  0.00000000000E+00 0.  1.
<mgrwt>
<rscale>  0 0.24049601E+04</rscale>
<asrwt>0</asrwt>
<pdfrwt beam="1">  1        2 0.22373836E+00 0.24049601E+04</pdfrwt>
<pdfrwt beam="2">  1       -2 0.15296377E+00 0.24049601E+04</pdfrwt>
<totfact> 0.34451810E+00</totfact>
</mgrwt>
</event>
<event>
 6    1  0.2436515E-005  0.2166665E+04  0.7818608E-02  0.8532432E-01
         -2   -1    0    0    0  501 -0.00000000000E+00  0.00000000000E+00  0.19517594591E+04  0.19517594591E+04  0.00000000000E+00 0. -1.
          2   -1    0    0  501    0  0.00000000000E+00 -0.00000000000E+00 -0.60130828992E+03  0.60130828992E+03  0.00000000000E+00 0.  1.
         23    2    1    2    0    0  0.64424075936E+03 -0.75702010301E+03  0.17463605253E+03  0.10133707720E+04  0.91087751199E+02 0.  0.
         11    1    3    3    0    0  0.48498589584E+03 -0.51545919750E+03  0.10202641502E+03  0.71506565630E+03  0.00000000000E+00 0. -1.
        -11    1    3    3    0    0  0.15925486352E+03 -0.24156090550E+03  0.72609637512E+02  0.29830511575E+03  0.00000000000E+00 0.  1.
         22    1    1    2    0    0 -0.64424075936E+03  0.75702010301E+03  0.11758151167E+04  0.15396969770E+04  0.00000000000E+00 0. -1.
<mgrwt>
<rscale>  0 0.21666648E+04</rscale>
<asrwt>0</asrwt>
<pdfrwt beam="1">  1        2 0.92508969E-01 0.21666648E+04</pdfrwt>
<pdfrwt beam="2">  1       -2 0.30027068E+00 0.21666648E+04</pdfrwt>
<totfact> 0.14364002E+00</totfact>
</mgrwt>
</event>
<event>
 6    1  0.2436515E-005  0.3440192E+04  0.7818608E-02  0.8128112E-01
          2   -1    0    0  501    0  0.00000000000E+00  0.00000000000E+00  0.29578098463E+04  0.29578098463E+04  0.00000000000E+00 0.  1.
         -2   -1    0    0    0  501 -0.00000000000E+00 -0.00000000000E+00 -0.10003109217E+04  0.10003109217E+04  0.00000000000E+00 0. -1.
         23    2    1    2    0    0 -0.74934139236E+03  0.13476875117E+04  0.10560241368E+03  0.15482878198E+04  0.90934875322E+02 0.  0.
         11    1    3    3    0    0 -0.62231498101E+03  0.11112194409E+04  0.52719363803E+02  0.12747014994E+04  0.00000000000E+00 0.  1.
        -11    1    3    3    0    0 -0.12702641135E+03  0.23646807083E+03  0.52883049872E+02  0.27358632032E+03  0.00000000000E+00 0. -1.
         22    1    1    2    0    0  0.74934139236E+03 -0.13476875117E+04  0.18518965109E+04  0.24098329482E+04  0.00000000000E+00 0.  1.
<mgrwt>
<rscale>  0 0.34401916E+04</rscale>
<asrwt>0</asrwt>
<pdfrwt beam="1">  1        2 0.45504766E+00 0.34401916E+04</pdfrwt>
<pdfrwt beam="2">  1       -2 0.15389399E+00 0.34401916E+04</pdfrwt>
<totfact> 0.42723162E-01</totfact>
</mgrwt>
</event>
<event>
 6    1  0.2436515E-005  0.2104629E+04  0.7818608E-02  0.8559207E-01
          2   -1    0    0  501    0  0.00000000000E+00  0.00000000000E+00  0.52419800123E+03  0.52419800123E+03  0.00000000000E+00 0.  1.
         -2   -1    0    0    0  501 -0.00000000000E+00 -0.00000000000E+00 -0.21124944885E+04  0.21124944885E+04  0.00000000000E+00 0. -1.
         23    2    1    2    0    0  0.36496552691E+03  0.36492205145E+03 -0.19417447667E+04  0.20111578179E+04  0.89527036253E+02 0.  0.
         13    1    3    3    0    0  0.28727195226E+03  0.24699841253E+03 -0.15150910071E+04  0.15617407435E+04  0.00000000000E+00 0.  1.
        -13    1    3    3    0    0  0.77693574647E+02  0.11792363891E+03 -0.42665375961E+03  0.44941707438E+03  0.00000000000E+00 0. -1.
         22    1    1    2    0    0 -0.36496552691E+03 -0.36492205145E+03  0.35344827938E+03  0.62553467183E+03  0.00000000000E+00 0.  1.
<mgrwt>
<rscale>  0 0.21046286E+04</rscale>
<asrwt>0</asrwt>
<pdfrwt beam="1">  1        2 0.80645847E-01 0.21046286E+04</pdfrwt>
<pdfrwt beam="2">  1       -2 0.32499915E+00 0.21046286E+04</pdfrwt>
<totfact> 0.11984205E+00</totfact>
</mgrwt>
</event>
<event>
 6    1  0.2436515E-005  0.4789442E+04  0.7818608E-02  0.7861835E-01
          2   -1    0    0  501    0  0.00000000000E+00  0.00000000000E+00  0.26896947190E+04  0.26896947190E+04  0.00000000000E+00 0.  1.
         -2   -1    0    0    0  501 -0.00000000000E+00 -0.00000000000E+00 -0.21320961262E+04  0.21320961262E+04  0.00000000000E+00 0. -1.
         23    2    1    2    0    0  0.14207055222E+04 -0.18786992341E+04 -0.15122071873E+03  0.23620469948E+04  0.92104868734E+02 0.  0.
         13    1    3    3    0    0  0.12164046890E+04 -0.15923204034E+04 -0.97140765332E+02  0.20061308439E+04  0.00000000000E+00 0.  1.
        -13    1    3    3    0    0  0.20430083316E+03 -0.28637883066E+03 -0.54079953398E+02  0.35591615085E+03  0.00000000000E+00 0. -1.
         22    1    1    2    0    0 -0.14207055222E+04  0.18786992341E+04  0.70881931153E+03  0.24597438504E+04  0.00000000000E+00 0. -1.
<mgrwt>
<rscale>  0 0.47894416E+04</rscale>
<asrwt>0</asrwt>
<pdfrwt beam="1">  1        2 0.41379919E+00 0.47894416E+04</pdfrwt>
<pdfrwt beam="2">  1       -2 0.32801479E+00 0.47894416E+04</pdfrwt>
<totfact> 0.42578253E-02</totfact>
</mgrwt>
</event>
<event>
 6    1  0.2436515E-005  0.2409586E+04  0.7818608E-02  0.8435923E-01
         -2   -1    0    0    0  501 -0.00000000000E+00  0.00000000000E+00  0.16275345209E+04  0.16275345209E+04  0.00000000000E+00 0. -1.
          2   -1    0    0  501    0  0.00000000000E+00 -0.00000000000E+00 -0.89185600429E+03  0.89185600429E+03  0.00000000000E+00 0.  1.
         23    2    1    2    0    0  0.10900854686E+04  0.37918915562E+03  0.13336394501E+02  0.11578293309E+04  0.91214886502E+02 0.  0.
         11    1    3    3    0    0  0.67546712365E+03  0.28148630605E+03  0.66307142511E+01  0.73180211943E+03  0.00000000000E+00 0. -1.
        -11    1    3    3    0    0  0.41461834491E+03  0.97702849570E+02  0.67056802501E+01  0.42602721146E+03  0.00000000000E+00 0.  1.
         22    1    1    2    0    0 -0.10900854686E+04 -0.37918915562E+03  0.72234212215E+03  0.13615611943E+04  0.00000000000E+00 0. -1.
<mgrwt>
<rscale>  0 0.24095862E+04</rscale>
<asrwt>0</asrwt>
<pdfrwt beam="1">  1        2 0.13720862E+00 0.24095862E+04</pdfrwt>
<pdfrwt beam="2">  1       -2 0.25038993E+00 0.24095862E+04</pdfrwt>
<totfact> 0.17050518E+00</totfact>
</mgrwt>
</event>
<event>
 6    1  0.2436515E-005  0.2215752E+04  0.7818608E-02  0.8511900E-01
          2   -1    0    0  501    0  0.00000000000E+00  0.00000000000E+00  0.28249507552E+04  0.28249507552E+04  0.00000000000E+00 0. -1.
         -2   -1    0    0    0  501 -0.00000000000E+00 -0.00000000000E+00 -0.43448158235E+03  0.43448158235E+03  0.00000000000E+00 0.  1.
         23    2    1    2    0    0  0.71594251006E+03 -0.24929368375E+02  0.24367884957E+04  0.25415600434E+04  0.91619485561E+02 0.  0.
         11    1    3    3    0    0  0.48120893604E+03 -0.10950897610E+02  0.14802495125E+04  0.15565412238E+04  0.00000000000E+00 0.  1.
        -11    1    3    3    0    0  0.23473357401E+03 -0.13978470765E+02  0.95653898327E+03  0.98501881958E+03  0.00000000000E+00 0. -1.
         22    1    1    2    0    0 -0.71594251006E+03  0.24929368375E+02 -0.46319322836E+02  0.71787229420E+03  0.00000000000E+00 0.  1.
<mgrwt>
<rscale>  0 0.22157519E+04</rscale>
<asrwt>0</asrwt>
<pdfrwt beam="1">  1        2 0.43460780E+00 0.22157519E+04</pdfrwt>
<pdfrwt beam="2">  1       -2 0.66843322E-01 0.22157519E+04</pdfrwt>
<totfact> 0.41925460E+00</totfact>
</mgrwt>
</event>
<event>
 6    1  0.2436515E-005  0.1432013E+04  0.7818608E-02  0.8930967E-01
          2   -1    0    0  501    0  0.00000000000E+00  0.00000000000E+00  0.23492885188E+04  0.23492885188E+04  0.00000000000E+00 0.  1.
         -2   -1    0    0    0  501 -0.00000000000E+00 -0.00000000000E+00 -0.21822145892E+03  0.21822145892E+03  0.00000000000E+00 0. -1.
         23    2    1    2    0    0 -0.65707233176E+03  0.18987737221E+03  0.14304466754E+04  0.15883948727E+04  0.94990078029E+02 0.  0.
         11    1    3    3    0    0 -0.39048178822E+03  0.10442820833E+03  0.94858374428E+03  0.10311122138E+04  0.00000000000E+00 0. -1.
        -11    1    3    3    0    0 -0.26659054354E+03  0.85449163886E+02  0.48186293114E+03  0.55728265891E+03  0.00000000000E+00 0.  1.
         22    1    1    2    0    0  0.65707233176E+03 -0.18987737221E+03  0.70062038447E+03  0.97911510497E+03  0.00000000000E+00 0.  1.
<mgrwt>
<rscale>  0 0.14320128E+04</rscale>
<asrwt>0</asrwt>
<pdfrwt beam="1">  1        2 0.36142898E+00 0.14320128E+04</pdfrwt>
<pdfrwt beam="2">  1       -2 0.33572534E-01 0.14320128E+04</pdfrwt>
<totfact> 0.34310179E+01</totfact>
</mgrwt>
</event>
<event>
 6    1  0.2436515E-005  0.2003087E+04  0.7818608E-02  0.8605179E-01
         -2   -1    0    0    0  501 -0.00000000000E+00  0.00000000000E+00  0.55048692904E+03  0.55048692904E+03  0.00000000000E+00 0. -1.
          2   -1    0    0  501    0  0.00000000000E+00 -0.00000000000E+00 -0.18221862392E+04  0.18221862392E+04  0.00000000000E+00 0.  1.
         23    2    1    2    0    0  0.14657646843E+03  0.70569539518E+03  0.18017915869E+03  0.75173463141E+03  0.11467246824E+03 0.  0.
         11    1    3    3    0    0  0.13999174220E+03  0.51111714244E+03  0.17092674245E+03  0.55682526206E+03  0.00000000000E+00 0.  1.
        -11    1    3    3    0    0  0.65847262310E+01  0.19457825274E+03  0.92524162426E+01  0.19490936936E+03  0.00000000000E+00 0. -1.
         22    1    1    2    0    0 -0.14657646843E+03 -0.70569539518E+03 -0.14518784689E+04  0.16209385369E+04  0.00000000000E+00 0.  1.
<mgrwt>
<rscale>  0 0.20030873E+04</rscale>
<asrwt>0</asrwt>
<pdfrwt beam="1">  1        2 0.28033635E+00 0.20030873E+04</pdfrwt>
<pdfrwt beam="2">  1       -2 0.84690296E-01 0.20030873E+04</pdfrwt>
<totfact> 0.94647355E+00</totfact>
</mgrwt>
</event>
<event>
 6    1  0.2436515E-005  0.2349226E+04  0.7818608E-02  0.8458761E-01
          2   -1    0    0  501    0  0.00000000000E+00  0.00000000000E+00  0.16108409888E+04  0.16108409888E+04  0.00000000000E+00 0.  1.
         -2   -1    0    0    0  501 -0.00000000000E+00 -0.00000000000E+00 -0.85651866961E+03  0.85651866961E+03  0.00000000000E+00 0. -1.
         23    2    1    2    0    0 -0.56857510513E+03  0.47478178524E+03 -0.57720009105E+03  0.94366437300E+03  0.92989838022E+02 0.  0.
         11    1    3    3    0    0 -0.31936431177E+03  0.32461842675E+03 -0.34100650476E+03  0.56890783340E+03  0.00000000000E+00 0.  1.
        -11    1    3    3    0    0 -0.24921079336E+03  0.15016335850E+03 -0.23619358630E+03  0.37475653960E+03  0.00000000000E+00 0. -1.
         22    1    1    2    0    0  0.56857510513E+03 -0.47478178524E+03  0.13315224102E+04  0.15236952854E+04  0.00000000000E+00 0.  1.
<mgrwt>
<rscale>  0 0.23492257E+04</rscale>
<asrwt>0</asrwt>
<pdfrwt beam="1">  1        2 0.24782169E+00 0.23492257E+04</pdfrwt>
<pdfrwt beam="2">  1       -2 0.13177210E+00 0.23492257E+04</pdfrwt>
<totfact> 0.41676431E+00</totfact>
</mgrwt>
</event>
<event>
 6    1  0.2436515E-005  0.1630114E+04  0.7818608E-02  0.8802258E-01
         -2   -1    0    0    0  501 -0.00000000000E+00  0.00000000000E+00  0.22330770087E+03  0.22330770087E+03  0.00000000000E+00 0. -1.
          2   -1    0    0  501    0  0.00000000000E+00 -0.00000000000E+00 -0.29748992188E+04  0.29748992188E+04  0.00000000000E+00 0.  1.
         23    2    1    2    0    0 -0.41324010087E+03  0.50693763492E+03 -0.43412768387E+03  0.79022191788E+03  0.90723133365E+02 0.  0.
         13    1    3    3    0    0 -0.21818466254E+03  0.28739959798E+03 -0.29085109765E+03  0.46346244388E+03  0.00000000000E+00 0.  1.
        -13    1    3    3    0    0 -0.19505543833E+03  0.21953803694E+03 -0.14327658622E+03  0.32675947399E+03  0.00000000000E+00 0. -1.
         22    1    1    2    0    0  0.41324010087E+03 -0.50693763492E+03 -0.23174638341E+04  0.24079850018E+04  0.00000000000E+00 0.  1.
<mgrwt>
<rscale>  0 0.16301140E+04</rscale>
<asrwt>0</asrwt>
<pdfrwt beam="1">  1        2 0.45767672E+00 0.16301140E+04</pdfrwt>
<pdfrwt beam="2">  1       -2 0.34355037E-01 0.16301140E+04</pdfrwt>
<totfact> 0.13784709E+01</totfact>
</mgrwt>
</event>
<event>
 6    1  0.2436515E-005  0.1800304E+04  0.7818608E-02  0.8706138E-01
          2   -1    0    0  501    0  0.00000000000E+00  0.00000000000E+00  0.13833812410E+04  0.13833812410E+04  0.00000000000E+00 0.  1.
         -2   -1    0    0    0  501 -0.00000000000E+00 -0.00000000000E+00 -0.58571949476E+03  0.58571949476E+03  0.00000000000E+00 0. -1.
         23    2    1    2    0    0  0.47827292805E+03  0.23489422718E+03 -0.39131400980E+03  0.66618721594E+03  0.82209857919E+02 0.  0.
         11    1    3    3    0    0  0.31989847912E+03  0.15657764167E+03 -0.21213977239E+03  0.41455382985E+03  0.00000000000E+00 0.  1.
        -11    1    3    3    0    0  0.15837444894E+03  0.78316585511E+02 -0.17917423742E+03  0.25163338609E+03  0.00000000000E+00 0. -1.
         22    1    1    2    0    0 -0.47827292805E+03 -0.23489422718E+03  0.11889757561E+04  0.13029135199E+04  0.00000000000E+00 0.  1.
<mgrwt>
<rscale>  0 0.18003037E+04</rscale>
<asrwt>0</asrwt>
<pdfrwt beam="1">  1        2 0.21282788E+00 0.18003037E+04</pdfrwt>
<pdfrwt beam="2">  1       -2 0.90110692E-01 0.18003037E+04</pdfrwt>
<totfact> 0.14717066E+01</totfact>
</mgrwt>
</event>
<event>
 6    1  0.2436515E-005  0.1778928E+04  0.7818608E-02  0.8717586E-01
          2   -1    0    0  501    0  0.00000000000E+00  0.00000000000E+00  0.14997689952E+04  0.14997689952E+04  0.00000000000E+00 0.  1.
         -2   -1    0    0    0  501 -0.00000000000E+00 -0.00000000000E+00 -0.52751198556E+03  0.52751198556E+03  0.00000000000E+00 0. -1.
         23    2    1    2    0    0  0.18790453339E+03  0.22254166743E+02  0.14751180691E+04  0.14899983672E+04  0.91205563555E+02 0.  0.
         13    1    3    3    0    0  0.77115515085E+02  0.54543051620E+02  0.69631630436E+03  0.70269349141E+03  0.00000000000E+00 0. -1.
        -13    1    3    3    0    0  0.11078901831E+03 -0.32288884877E+02  0.77880176476E+03  0.78730487580E+03  0.00000000000E+00 0.  1.
         22    1    1    2    0    0 -0.18790453339E+03 -0.22254166743E+02 -0.50286105952E+03  0.53728261352E+03  0.00000000000E+00 0. -1.
<mgrwt>
<rscale>  0 0.17789279E+04</rscale>
<asrwt>0</asrwt>
<pdfrwt beam="1">  1        2 0.23073369E+00 0.17789279E+04</pdfrwt>
<pdfrwt beam="2">  1       -2 0.81155691E-01 0.17789279E+04</pdfrwt>
<totfact> 0.16069765E+01</totfact>
</mgrwt>
</event>
<event>
 6    1  0.2436515E-005  0.2913233E+04  0.7818608E-02  0.8268951E-01
          2   -1    0    0  501    0  0.00000000000E+00  0.00000000000E+00  0.30349470115E+04  0.30349470115E+04  0.00000000000E+00 0.  1.
         -2   -1    0    0    0  501 -0.00000000000E+00 -0.00000000000E+00 -0.69909983611E+03  0.69909983611E+03  0.00000000000E+00 0. -1.
         23    2    1    2    0    0 -0.67389071782E+03 -0.36154089287E+03 -0.41776142486E+03  0.87621535501E+03  0.91587245140E+02 0.  0.
         13    1    3    3    0    0 -0.30712644824E+03 -0.11518783646E+03 -0.19156539963E+03  0.37985812511E+03  0.00000000000E+00 0. -1.
        -13    1    3    3    0    0 -0.36676426958E+03 -0.24635305641E+03 -0.22619602523E+03  0.49635722990E+03  0.00000000000E+00 0.  1.
         22    1    1    2    0    0  0.67389071782E+03  0.36154089287E+03  0.27536086003E+04  0.28578314927E+04  0.00000000000E+00 0.  1.
<mgrwt>
<rscale>  0 0.29132325E+04</rscale>
<asrwt>0</asrwt>
<pdfrwt beam="1">  1        2 0.46691492E+00 0.29132325E+04</pdfrwt>
<pdfrwt beam="2">  1       -2 0.10755382E+00 0.29132325E+04</pdfrwt>
<totfact> 0.98940785E-01</totfact>
</mgrwt>
</event>
<event>
 6    1  0.2436515E-005  0.2765848E+04  0.7818608E-02  0.8313950E-01
         -2   -1    0    0    0  501 -0.00000000000E+00  0.00000000000E+00  0.78558585386E+03  0.78558585386E+03  0.00000000000E+00 0. -1.
          2   -1    0    0  501    0  0.00000000000E+00 -0.00000000000E+00 -0.24344616877E+04  0.24344616877E+04  0.00000000000E+00 0.  1.
         23    2    1    2    0    0 -0.46760299379E+03  0.12701509309E+04 -0.11481671357E+04  0.17769102829E+04  0.84772843223E+02 0.  0.
         13    1    3    3    0    0 -0.31558534872E+03  0.93337274028E+03 -0.86997915584E+03  0.13143981574E+04  0.00000000000E+00 0.  1.
        -13    1    3    3    0    0 -0.15201764507E+03  0.33677819059E+03 -0.27818797982E+03  0.46251212545E+03  0.00000000000E+00 0. -1.
         22    1    1    2    0    0  0.46760299379E+03 -0.12701509309E+04 -0.50070869817E+03  0.14431372587E+04  0.00000000000E+00 0. -1.
<mgrwt>
<rscale>  0 0.27658479E+04</rscale>
<asrwt>0</asrwt>
<pdfrwt beam="1">  1        2 0.37453257E+00 0.27658479E+04</pdfrwt>
<pdfrwt beam="2">  1       -2 0.12085936E+00 0.27658479E+04</pdfrwt>
<totfact> 0.17286020E+00</totfact>
</mgrwt>
</event>
<event>
 6    1  0.2436515E-005  0.1787938E+04  0.7818608E-02  0.8712740E-01
         -2   -1    0    0    0  501 -0.00000000000E+00  0.00000000000E+00  0.71156299675E+03  0.71156299675E+03  0.00000000000E+00 0. -1.
          2   -1    0    0  501    0  0.00000000000E+00 -0.00000000000E+00 -0.11231335681E+04  0.11231335681E+04  0.00000000000E+00 0.  1.
         23    2    1    2    0    0  0.69627174568E+03  0.25304657332E+03  0.30297828539E+03  0.80542158664E+03  0.89895376459E+02 0.  0.
         13    1    3    3    0    0  0.35144027693E+03  0.10063708970E+03  0.10920457503E+03  0.38152815266E+03  0.00000000000E+00 0.  1.
        -13    1    3    3    0    0  0.34483146875E+03  0.15240948362E+03  0.19377371037E+03  0.42389343398E+03  0.00000000000E+00 0. -1.
         22    1    1    2    0    0 -0.69627174568E+03 -0.25304657332E+03 -0.71454885674E+03  0.10292749782E+04  0.00000000000E+00 0.  1.
<mgrwt>
<rscale>  0 0.17879377E+04</rscale>
<asrwt>0</asrwt>
<pdfrwt beam="1">  1        2 0.17278978E+00 0.17879377E+04</pdfrwt>
<pdfrwt beam="2">  1       -2 0.10947123E+00 0.17879377E+04</pdfrwt>
<totfact> 0.13245937E+01</totfact>
</mgrwt>
</event>
<event>
 6    1  0.2436515E-005  0.3047328E+04  0.7818608E-02  0.8230344E-01
          2   -1    0    0  501    0  0.00000000000E+00  0.00000000000E+00  0.15375563069E+04  0.15375563069E+04  0.00000000000E+00 0.  1.
         -2   -1    0    0    0  501 -0.00000000000E+00 -0.00000000000E+00 -0.15098967459E+04  0.15098967459E+04  0.00000000000E+00 0. -1.
         23    2    1    2    0    0 -0.89962917020E+03  0.56631292608E+03 -0.10759581813E+04  0.15151296224E+04  0.88818864975E+02 0.  0.
         13    1    3    3    0    0 -0.38650467942E+03  0.24192542613E+03 -0.52446609727E+03  0.69496652165E+03  0.00000000000E+00 0.  1.
        -13    1    3    3    0    0 -0.51312449078E+03  0.32438749994E+03 -0.55149208404E+03  0.82016310080E+03  0.00000000000E+00 0. -1.
         22    1    1    2    0    0  0.89962917020E+03 -0.56631292608E+03  0.11036177423E+04  0.15323234303E+04  0.00000000000E+00 0.  1.
<mgrwt>
<rscale>  0 0.30473275E+04</rscale>
<asrwt>0</asrwt>
<pdfrwt beam="1">  1        2 0.23654712E+00 0.30473275E+04</pdfrwt>
<pdfrwt beam="2">  1       -2 0.23229181E+00 0.30473275E+04</pdfrwt>
<totfact> 0.85280740E-01</totfact>
</mgrwt>
</event>
<event>
 6    1  0.2436515E-005  0.1950974E+04  0.7818608E-02  0.8629891E-01
         -2   -1    0    0    0  501 -0.00000000000E+00  0.00000000000E+00  0.25117622715E+03  0.25117622715E+03  0.00000000000E+00 0. -1.
          2   -1    0    0  501    0  0.00000000000E+00 -0.00000000000E+00 -0.37884737227E+04  0.37884737227E+04  0.00000000000E+00 0.  1.
         23    2    1    2    0    0  0.83461243753E+03 -0.43834483029E+03 -0.12725425568E+04  0.15865215301E+04  0.94667288660E+02 0.  0.
         11    1    3    3    0    0  0.36773294918E+03 -0.24256822638E+03 -0.62184703714E+03  0.76207650795E+03  0.00000000000E+00 0.  1.
        -11    1    3    3    0    0  0.46687948835E+03 -0.19577660390E+03 -0.65069551963E+03  0.82444502214E+03  0.00000000000E+00 0. -1.
         22    1    1    2    0    0 -0.83461243753E+03  0.43834483029E+03 -0.22647549388E+04  0.24531284198E+04  0.00000000000E+00 0.  1.
<mgrwt>
<rscale>  0 0.19509736E+04</rscale>
<asrwt>0</asrwt>
<pdfrwt beam="1">  1        2 0.58284207E+00 0.19509736E+04</pdfrwt>
<pdfrwt beam="2">  1       -2 0.38642499E-01 0.19509736E+04</pdfrwt>
<totfact> 0.29842431E+00</totfact>
</mgrwt>
</event>
<event>
 6    1  0.2436515E-005  0.2088486E+04  0.7818608E-02  0.8566332E-01
         -2   -1    0    0    0  501 -0.00000000000E+00  0.00000000000E+00  0.46407462348E+03  0.46407462348E+03  0.00000000000E+00 0. -1.
          2   -1    0    0  501    0  0.00000000000E+00 -0.00000000000E+00 -0.23497165661E+04  0.23497165661E+04  0.00000000000E+00 0.  1.
         23    2    1    2    0    0 -0.36328806168E+03  0.92080384640E+03 -0.13841866768E+04  0.17041447040E+04  0.90986134522E+02 0.  0.
         13    1    3    3    0    0 -0.84593231080E+02  0.28417997011E+03 -0.47175227348E+03  0.55719339344E+03  0.00000000000E+00 0.  1.
        -13    1    3    3    0    0 -0.27869483060E+03  0.63662387629E+03 -0.91243440328E+03  0.11469513105E+04  0.00000000000E+00 0. -1.
         22    1    1    2    0    0  0.36328806168E+03 -0.92080384640E+03 -0.50145526581E+03  0.11096464856E+04  0.00000000000E+00 0. -1.
<mgrwt>
<rscale>  0 0.20884864E+04</rscale>
<asrwt>0</asrwt>
<pdfrwt beam="1">  1        2 0.36149486E+00 0.20884864E+04</pdfrwt>
<pdfrwt beam="2">  1       -2 0.71396095E-01 0.20884864E+04</pdfrwt>
<totfact> 0.69756428E+00</totfact>
</mgrwt>
</event>
<event>
 6    1  0.2436515E-005  0.2677283E+04  0.7818608E-02  0.8342414E-01
         -2   -1    0    0    0  501 -0.00000000000E+00  0.00000000000E+00  0.20272948509E+04  0.20272948509E+04  0.00000000000E+00 0. -1.
          2   -1    0    0  501    0  0.00000000000E+00 -0.00000000000E+00 -0.88391744351E+03  0.88391744351E+03  0.00000000000E+00 0.  1.
         23    2    1    2    0    0 -0.62770788736E+03 -0.13847978747E+02 -0.71130935313E+03  0.95313366013E+03  0.91070411476E+02 0.  0.
         11    1    3    3    0    0 -0.21926466268E+03 -0.45077540544E+02 -0.22679479291E+03  0.31866103472E+03  0.00000000000E+00 0.  1.
        -11    1    3    3    0    0 -0.40844322469E+03  0.31229561797E+02 -0.48451456022E+03  0.63447262541E+03  0.00000000000E+00 0. -1.
         22    1    1    2    0    0  0.62770788736E+03  0.13847978747E+02  0.18546867605E+04  0.19580786343E+04  0.00000000000E+00 0. -1.
<mgrwt>
<rscale>  0 0.26772832E+04</rscale>
<asrwt>0</asrwt>
<pdfrwt beam="1">  1        2 0.13598730E+00 0.26772832E+04</pdfrwt>
<pdfrwt beam="2">  1       -2 0.31189152E+00 0.26772832E+04</pdfrwt>
<totfact> 0.71010525E-01</totfact>
</mgrwt>
</event>
<event>
 6    1  0.2436515E-005  0.2268595E+04  0.7818608E-02  0.8490408E-01
          2   -1    0    0  501    0  0.00000000000E+00  0.00000000000E+00  0.39509986340E+04  0.39509986340E+04  0.00000000000E+00 0.  1.
         -2   -1    0    0    0  501 -0.00000000000E+00 -0.00000000000E+00 -0.32564699536E+03  0.32564699536E+03  0.00000000000E+00 0. -1.
         23    2    1    2    0    0  0.49112213947E+03 -0.86627211636E+03  0.79894701799E+03  0.12799488787E+04  0.91238474362E+02 0.  0.
         13    1    3    3    0    0  0.33653499914E+02 -0.11989859074E+03  0.10276927581E+03  0.16146130858E+03  0.00000000000E+00 0.  1.
        -13    1    3    3    0    0  0.45746863955E+03 -0.74637352562E+03  0.69617774218E+03  0.11184875702E+04  0.00000000000E+00 0. -1.
         22    1    1    2    0    0 -0.49112213947E+03  0.86627211636E+03  0.28264046207E+04  0.29966967507E+04  0.00000000000E+00 0.  1.
<mgrwt>
<rscale>  0 0.22685950E+04</rscale>
<asrwt>0</asrwt>
<pdfrwt beam="1">  1        2 0.60784591E+00 0.22685950E+04</pdfrwt>
<pdfrwt beam="2">  1       -2 0.50099541E-01 0.22685950E+04</pdfrwt>
<totfact> 0.12907978E+00</totfact>
</mgrwt>
</event>
<event>
 6    1  0.2436515E-005  0.2326240E+04  0.7818608E-02  0.8467646E-01
         -2   -1    0    0    0  501 -0.00000000000E+00  0.00000000000E+00  0.59616535701E+03  0.59616535701E+03  0.00000000000E+00 0. -1.
          2   -1    0    0  501    0  0.00000000000E+00 -0.00000000000E+00 -0.22692494199E+04  0.22692494199E+04  0.00000000000E+00 0.  1.
         23    2    1    2    0    0 -0.52486782482E+03 -0.10149656888E+04 -0.58244376000E+03  0.12858142409E+04  0.91847403595E+02 0.  0.
         11    1    3    3    0    0 -0.22768483950E+03 -0.47452966885E+03 -0.22008852668E+03  0.57048904664E+03  0.00000000000E+00 0.  1.
        -11    1    3    3    0    0 -0.29718298532E+03 -0.54043601998E+03 -0.36235523332E+03  0.71532519428E+03  0.00000000000E+00 0. -1.
         22    1    1    2    0    0  0.52486782482E+03  0.10149656888E+04 -0.10906403029E+04  0.15796005360E+04  0.00000000000E+00 0.  1.
<mgrwt>
<rscale>  0 0.23262398E+04</rscale>
<asrwt>0</asrwt>
<pdfrwt beam="1">  1        2 0.34911530E+00 0.23262398E+04</pdfrwt>
<pdfrwt beam="2">  1       -2 0.91717746E-01 0.23262398E+04</pdfrwt>
<totfact> 0.43181936E+00</totfact>
</mgrwt>
</event>
<event>
 6    1  0.2436515E-005  0.5422171E+04  0.7818608E-02  0.7766490E-01
          2   -1    0    0  501    0  0.00000000000E+00  0.00000000000E+00  0.21822945070E+04  0.21822945070E+04  0.00000000000E+00 0.  1.
         -2   -1    0    0    0  501 -0.00000000000E+00 -0.00000000000E+00 -0.33680078158E+04  0.33680078158E+04  0.00000000000E+00 0. -1.
         23    2    1    2    0    0 -0.16405025045E+04 -0.13445960792E+04 -0.23200915943E+04  0.31448915100E+04  0.91271682253E+02 0.  0.
         11    1    3    3    0    0 -0.15161896303E+03 -0.15940849177E+03 -0.23197827249E+03  0.31970814207E+03  0.00000000000E+00 0.  1.
        -11    1    3    3    0    0 -0.14888835415E+04 -0.11851875875E+04 -0.20881133218E+04  0.28251833679E+04  0.00000000000E+00 0. -1.
         22    1    1    2    0    0  0.16405025045E+04  0.13445960792E+04  0.11343782856E+04  0.24054108128E+04  0.00000000000E+00 0.  1.
<mgrwt>
<rscale>  0 0.54221711E+04</rscale>
<asrwt>0</asrwt>
<pdfrwt beam="1">  1        2 0.33573762E+00 0.54221711E+04</pdfrwt>
<pdfrwt beam="2">  1       -2 0.51815504E+00 0.54221711E+04</pdfrwt>
<totfact> 0.48175706E-03</totfact>
</mgrwt>
</event>
<event>
 6    1  0.2436515E-005  0.3340150E+04  0.7818608E-02  0.8152754E-01
          2   -1    0    0  501    0  0.00000000000E+00  0.00000000000E+00  0.17226055925E+04  0.17226055925E+04  0.00000000000E+00 0.  1.
         -2   -1    0    0    0  501 -0.00000000000E+00 -0.00000000000E+00 -0.16191458826E+04  0.16191458826E+04  0.00000000000E+00 0. -1.
         23    2    1    2    0    0  0.46258881232E+03 -0.12383951303E+04  0.10708373719E+04  0.17036335158E+04  0.89797387760E+02 0.  0.
         11    1    3    3    0    0  0.13030724092E+03 -0.45540460858E+03  0.35557560354E+03  0.59228991582E+03  0.00000000000E+00 0. -1.
        -11    1    3    3    0    0  0.33228157140E+03 -0.78299052176E+03  0.71526176834E+03  0.11113435999E+04  0.00000000000E+00 0.  1.
         22    1    1    2    0    0 -0.46258881232E+03  0.12383951303E+04 -0.96737766198E+03  0.16381179594E+04  0.00000000000E+00 0. -1.
<mgrwt>
<rscale>  0 0.33401495E+04</rscale>
<asrwt>0</asrwt>
<pdfrwt beam="1">  1        2 0.26501625E+00 0.33401495E+04</pdfrwt>
<pdfrwt beam="2">  1       -2 0.24909937E+00 0.33401495E+04</pdfrwt>
<totfact> 0.51623377E-01</totfact>
</mgrwt>
</event>
<event>
 6    1  0.2436515E-005  0.4322847E+04  0.7818608E-02  0.7942407E-01
          2   -1    0    0  501    0  0.00000000000E+00  0.00000000000E+00  0.19184039862E+04  0.19184039862E+04  0.00000000000E+00 0.  1.
         -2   -1    0    0    0  501 -0.00000000000E+00 -0.00000000000E+00 -0.24352284129E+04  0.24352284129E+04  0.00000000000E+00 0. -1.
         23    2    1    2    0    0 -0.20436549277E+04 -0.65242229641E+03 -0.51633224931E+03  0.22083630551E+04  0.89933724192E+02 0.  0.
         13    1    3    3    0    0 -0.14276317659E+04 -0.49878958797E+03 -0.36561323309E+03  0.15558266447E+04  0.00000000000E+00 0.  1.
        -13    1    3    3    0    0 -0.61602316186E+03 -0.15363270845E+03 -0.15071901623E+03  0.65253641041E+03  0.00000000000E+00 0. -1.
         22    1    1    2    0    0  0.20436549277E+04  0.65242229641E+03 -0.49217740018E+00  0.21452693441E+04  0.00000000000E+00 0.  1.
<mgrwt>
<rscale>  0 0.43228472E+04</rscale>
<asrwt>0</asrwt>
<pdfrwt beam="1">  1        2 0.29513908E+00 0.43228472E+04</pdfrwt>
<pdfrwt beam="2">  1       -2 0.37465052E+00 0.43228472E+04</pdfrwt>
<totfact> 0.61780739E-02</totfact>
</mgrwt>
</event>
<event>
 6    1  0.2436515E-005  0.2367212E+04  0.7818608E-02  0.8451882E-01
          2   -1    0    0  501    0  0.00000000000E+00  0.00000000000E+00  0.11449396261E+04  0.11449396261E+04  0.00000000000E+00 0.  1.
         -2   -1    0    0    0  501 -0.00000000000E+00 -0.00000000000E+00 -0.12235782118E+04  0.12235782118E+04  0.00000000000E+00 0. -1.
         23    2    1    2    0    0 -0.67023806426E+02 -0.29435081308E+03  0.11039565225E+04  0.11479991851E+04  0.89708046322E+02 0.  0.
         11    1    3    3    0    0 -0.37703724286E+02 -0.15911300373E+03  0.43131936516E+03  0.46127531209E+03  0.00000000000E+00 0.  1.
        -11    1    3    3    0    0 -0.29320082140E+02 -0.13523780935E+03  0.67263715735E+03  0.68672387299E+03  0.00000000000E+00 0. -1.
         22    1    1    2    0    0  0.67023806426E+02  0.29435081308E+03 -0.11825951082E+04  0.12205186528E+04  0.00000000000E+00 0. -1.
<mgrwt>
<rscale>  0 0.23672120E+04</rscale>
<asrwt>0</asrwt>
<pdfrwt beam="1">  1        2 0.17614456E+00 0.23672120E+04</pdfrwt>
<pdfrwt beam="2">  1       -2 0.18824280E+00 0.23672120E+04</pdfrwt>
<totfact> 0.29362888E+00</totfact>
</mgrwt>
</event>
<event>
 6    1  0.2436515E-005  0.5675759E+04  0.7818608E-02  0.7731957E-01
          2   -1    0    0  501    0  0.00000000000E+00  0.00000000000E+00  0.38058284186E+04  0.38058284186E+04  0.00000000000E+00 0.  1.
         -2   -1    0    0    0  501 -0.00000000000E+00 -0.00000000000E+00 -0.21161122304E+04  0.21161122304E+04  0.00000000000E+00 0. -1.
         23    2    1    2    0    0 -0.15977098055E+04 -0.40403200810E+03 -0.15645957059E+04  0.22741379692E+04  0.88460690674E+02 0.  0.
         13    1    3    3    0    0 -0.97693100559E+03 -0.21139963594E+03 -0.98368109102E+03  0.14023952669E+04  0.00000000000E+00 0. -1.
        -13    1    3    3    0    0 -0.62077879996E+03 -0.19263237216E+03 -0.58091461489E+03  0.87174270233E+03  0.00000000000E+00 0.  1.
         22    1    1    2    0    0  0.15977098055E+04  0.40403200810E+03  0.32543118941E+04  0.36478026797E+04  0.00000000000E+00 0.  1.
<mgrwt>
<rscale>  0 0.56757590E+04</rscale>
<asrwt>0</asrwt>
<pdfrwt beam="1">  1        2 0.58551207E+00 0.56757590E+04</pdfrwt>
<pdfrwt beam="2">  1       -2 0.32555573E+00 0.56757590E+04</pdfrwt>
<totfact> 0.73937478E-03</totfact>
</mgrwt>
</event>
<event>
 6    1  0.2436515E-005  0.2253717E+04  0.7818608E-02  0.8496397E-01
         -2   -1    0    0    0  501 -0.00000000000E+00  0.00000000000E+00  0.56248133043E+03  0.56248133043E+03  0.00000000000E+00 0. -1.
          2   -1    0    0  501    0  0.00000000000E+00 -0.00000000000E+00 -0.22575154719E+04  0.22575154719E+04  0.00000000000E+00 0.  1.
         23    2    1    2    0    0 -0.46889005135E+03 -0.79342223148E+03 -0.16560350808E+04  0.18975556690E+04  0.94279427218E+02 0.  0.
         13    1    3    3    0    0 -0.39233038842E+03 -0.63696954928E+03 -0.12682952185E+04  0.14724897629E+04  0.00000000000E+00 0.  1.
        -13    1    3    3    0    0 -0.76559662934E+02 -0.15645268221E+03 -0.38773986228E+03  0.42506590614E+03  0.00000000000E+00 0. -1.
         22    1    1    2    0    0  0.46889005135E+03  0.79342223148E+03 -0.38999060629E+02  0.92244113330E+03  0.00000000000E+00 0. -1.
<mgrwt>
<rscale>  0 0.22537172E+04</rscale>
<asrwt>0</asrwt>
<pdfrwt beam="1">  1        2 0.34731007E+00 0.22537172E+04</pdfrwt>
<pdfrwt beam="2">  1       -2 0.86535590E-01 0.22537172E+04</pdfrwt>
<totfact> 0.50433298E+00</totfact>
</mgrwt>
</event>
<event>
 6    1  0.2436515E-005  0.3315629E+04  0.7818608E-02  0.8158930E-01
          2   -1    0    0  501    0  0.00000000000E+00  0.00000000000E+00  0.31277915239E+04  0.31277915239E+04  0.00000000000E+00 0.  1.
         -2   -1    0    0    0  501 -0.00000000000E+00 -0.00000000000E+00 -0.87868695418E+03  0.87868695418E+03  0.00000000000E+00 0. -1.
         23    2    1    2    0    0 -0.90925964714E+03 -0.12292521314E+04  0.18956615254E+04  0.24371678352E+04  0.91872354363E+02 0.  0.
         11    1    3    3    0    0 -0.70751728981E+03 -0.10114827763E+04  0.15528510293E+04  0.19836896031E+04  0.00000000000E+00 0. -1.
        -11    1    3    3    0    0 -0.20174235733E+03 -0.21776935506E+03  0.34281049610E+03  0.45347823209E+03  0.00000000000E+00 0.  1.
         22    1    1    2    0    0  0.90925964714E+03  0.12292521314E+04  0.35344304430E+03  0.15693106429E+04  0.00000000000E+00 0. -1.
<mgrwt>
<rscale>  0 0.33156294E+04</rscale>
<asrwt>0</asrwt>
<pdfrwt beam="1">  1        2 0.48119869E+00 0.33156294E+04</pdfrwt>
<pdfrwt beam="2">  1       -2 0.13518261E+00 0.33156294E+04</pdfrwt>
<totfact> 0.47323536E-01</totfact>
</mgrwt>
</event>
<event>
 6    1  0.2436515E-005  0.2106815E+04  0.7818608E-02  0.8558247E-01
         -2   -1    0    0    0  501 -0.00000000000E+00  0.00000000000E+00  0.86508442292E+03  0.86508442292E+03  0.00000000000E+00 0. -1.
          2   -1    0    0  501    0  0.00000000000E+00 -0.00000000000E+00 -0.12827277296E+04  0.12827277296E+04  0.00000000000E+00 0.  1.
         23    2    1    2    0    0  0.80921035016E+03  0.66188423101E+03 -0.94237175116E+02  0.10535070525E+04  0.89912948806E+02 0.  0.
         11    1    3    3    0    0 -0.99287848532E+00  0.59649478789E+01  0.26143377176E+01  0.65879566321E+01  0.00000000000E+00 0.  1.
        -11    1    3    3    0    0  0.81020322865E+03  0.65591928313E+03 -0.96851512834E+02  0.10469190958E+04  0.00000000000E+00 0. -1.
         22    1    1    2    0    0 -0.80921035016E+03 -0.66188423101E+03 -0.32340613157E+03  0.10943051001E+04  0.00000000000E+00 0.  1.
<mgrwt>
<rscale>  0 0.21068154E+04</rscale>
<asrwt>0</asrwt>
<pdfrwt beam="1">  1        2 0.19734273E+00 0.21068154E+04</pdfrwt>
<pdfrwt beam="2">  1       -2 0.13308991E+00 0.21068154E+04</pdfrwt>
<totfact> 0.63771261E+00</totfact>
</mgrwt>
</event>
<event>
 6    1  0.2436515E-005  0.1758414E+04  0.7818608E-02  0.8728732E-01
          2   -1    0    0  501    0  0.00000000000E+00  0.00000000000E+00  0.15826923256E+04  0.15826923256E+04  0.00000000000E+00 0.  1.
         -2   -1    0    0    0  501 -0.00000000000E+00 -0.00000000000E+00 -0.48841142262E+03  0.48841142262E+03  0.00000000000E+00 0. -1.
         23    2    1    2    0    0  0.52151133248E+03 -0.51630361470E+03 -0.16652090684E+02  0.73967008149E+03  0.91055174898E+02 0.  0.
         13    1    3    3    0    0  0.32876139723E+03 -0.38393366062E+03 -0.19340235165E+02  0.50582917745E+03  0.00000000000E+00 0.  1.
        -13    1    3    3    0    0  0.19274993525E+03 -0.13236995408E+03  0.26881444813E+01  0.23384090404E+03  0.00000000000E+00 0. -1.
         22    1    1    2    0    0 -0.52151133248E+03  0.51630361470E+03  0.11109329936E+04  0.13314336667E+04  0.00000000000E+00 0.  1.
<mgrwt>
<rscale>  0 0.17584141E+04</rscale>
<asrwt>0</asrwt>
<pdfrwt beam="1">  1        2 0.24349112E+00 0.17584141E+04</pdfrwt>
<pdfrwt beam="2">  1       -2 0.75140220E-01 0.17584141E+04</pdfrwt>
<totfact> 0.17175473E+01</totfact>
</mgrwt>
</event>
<event>
 6    1  0.2436515E-005  0.4875569E+04  0.7818608E-02  0.7847994E-01
         -2   -1    0    0    0  501 -0.00000000000E+00  0.00000000000E+00  0.25211797928E+04  0.25211797928E+04  0.00000000000E+00 0. -1.
          2   -1    0    0  501    0  0.00000000000E+00 -0.00000000000E+00 -0.23571475310E+04  0.23571475310E+04  0.00000000000E+00 0.  1.
         23    2    1    2    0    0  0.72611095865E+02 -0.21714110080E+04 -0.10223579251E+04  0.24028839671E+04  0.91309884817E+02 0.  0.
         13    1    3    3    0    0 -0.12863951980E+01 -0.12378113588E+04 -0.56542697956E+03  0.13608402860E+04  0.00000000000E+00 0.  1.
        -13    1    3    3    0    0  0.73897491063E+02 -0.93359964922E+03 -0.45693094555E+03  0.10420436810E+04  0.00000000000E+00 0. -1.
         22    1    1    2    0    0 -0.72611095865E+02  0.21714110080E+04  0.11863901869E+04  0.24754433568E+04  0.00000000000E+00 0. -1.
<mgrwt>
<rscale>  0 0.48755688E+04</rscale>
<asrwt>0</asrwt>
<pdfrwt beam="1">  1        2 0.36263808E+00 0.48755688E+04</pdfrwt>
<pdfrwt beam="2">  1       -2 0.38787381E+00 0.48755688E+04</pdfrwt>
<totfact> 0.27547093E-02</totfact>
</mgrwt>
</event>
<event>
 6    1  0.2436515E-005  0.2325397E+04  0.7818608E-02  0.8467974E-01
          2   -1    0    0  501    0  0.00000000000E+00  0.00000000000E+00  0.21682768902E+04  0.21682768902E+04  0.00000000000E+00 0.  1.
         -2   -1    0    0    0  501 -0.00000000000E+00 -0.00000000000E+00 -0.62347563952E+03  0.62347563952E+03  0.00000000000E+00 0. -1.
         23    2    1    2    0    0 -0.13175461084E+03  0.44441379810E+03  0.20513843030E+04  0.21051017521E+04  0.91722007988E+02 0.  0.
         13    1    3    3    0    0 -0.23226223879E+02  0.15010164521E+03  0.51068198162E+03  0.53279081047E+03  0.00000000000E+00 0.  1.
        -13    1    3    3    0    0 -0.10852838696E+03  0.29431215289E+03  0.15407023214E+04  0.15723109416E+04  0.00000000000E+00 0. -1.
         22    1    1    2    0    0  0.13175461084E+03 -0.44441379810E+03 -0.50658305234E+03  0.68665077757E+03  0.00000000000E+00 0. -1.
<mgrwt>
<rscale>  0 0.23253970E+04</rscale>
<asrwt>0</asrwt>
<pdfrwt beam="1">  1        2 0.33358106E+00 0.23253970E+04</pdfrwt>
<pdfrwt beam="2">  1       -2 0.95919330E-01 0.23253970E+04</pdfrwt>
<totfact> 0.44350909E+00</totfact>
</mgrwt>
</event>
<event>
 6    1  0.2436515E-005  0.4399035E+04  0.7818608E-02  0.7928555E-01
          2   -1    0    0  501    0  0.00000000000E+00  0.00000000000E+00  0.34979642006E+04  0.34979642006E+04  0.00000000000E+00 0.  1.
         -2   -1    0    0    0  501 -0.00000000000E+00 -0.00000000000E+00 -0.13830550658E+04  0.13830550658E+04  0.00000000000E+00 0. -1.
         23    2    1    2    0    0 -0.58974932704E+03  0.43119588916E+03  0.33586569226E+04  0.34385759492E+04  0.97437521780E+02 0.  0.
         11    1    3    3    0    0 -0.29468904689E+03  0.15554400885E+03  0.15024892164E+04  0.15389962373E+04  0.00000000000E+00 0. -1.
        -11    1    3    3    0    0 -0.29506028016E+03  0.27565188031E+03  0.18561677063E+04  0.18995797119E+04  0.00000000000E+00 0.  1.
         22    1    1    2    0    0  0.58974932704E+03 -0.43119588916E+03 -0.12437477878E+04  0.14424433172E+04  0.00000000000E+00 0. -1.
<mgrwt>
<rscale>  0 0.43990349E+04</rscale>
<asrwt>0</asrwt>
<pdfrwt beam="1">  1        2 0.53814833E+00 0.43990349E+04</pdfrwt>
<pdfrwt beam="2">  1       -2 0.21277770E+00 0.43990349E+04</pdfrwt>
<totfact> 0.68344261E-02</totfact>
</mgrwt>
</event>
<event>
 6    1  0.2436515E-005  0.4059897E+03  0.7818608E-02  0.1041725E+00
         -2   -1    0    0    0  501 -0.00000000000E+00  0.00000000000E+00  0.33420515489E+02  0.33420515489E+02  0.00000000000E+00 0. -1.
          2   -1    0    0  501    0  0.00000000000E+00 -0.00000000000E+00 -0.12329824517E+04  0.12329824517E+04  0.00000000000E+00 0.  1.
         23    2    1    2    0    0 -0.72350276631E+01  0.15820906381E+03 -0.28858953101E+03  0.34176618632E+03  0.91857254513E+02 0.  0.
         13    1    3    3    0    0  0.38010729199E+02  0.73808869504E+02 -0.17121989437E+03  0.19028614500E+03  0.00000000000E+00 0. -1.
        -13    1    3    3    0    0 -0.45245756862E+02  0.84400194305E+02 -0.11736963664E+03  0.15148004132E+03  0.00000000000E+00 0.  1.
         22    1    1    2    0    0  0.72350276631E+01 -0.15820906381E+03 -0.91097240521E+03  0.92463678088E+03  0.00000000000E+00 0.  1.
<mgrwt>
<rscale>  0 0.40598970E+03</rscale>
<asrwt>0</asrwt>
<pdfrwt beam="1">  1        2 0.18968966E+00 0.40598970E+03</pdfrwt>
<pdfrwt beam="2">  1       -2 0.51416165E-02 0.40598970E+03</pdfrwt>
<totfact> 0.36004551E+03</totfact>
</mgrwt>
</event>
<event>
 6    1  0.2436515E-005  0.3112175E+04  0.7818608E-02  0.8212404E-01
          2   -1    0    0  501    0  0.00000000000E+00  0.00000000000E+00  0.41060130728E+04  0.41060130728E+04  0.00000000000E+00 0. -1.
         -2   -1    0    0    0  501 -0.00000000000E+00 -0.00000000000E+00 -0.58972267081E+03  0.58972267081E+03  0.00000000000E+00 0.  1.
         23    2    1    2    0    0  0.38550171634E+03 -0.63409913602E+03 -0.30171281503E+03  0.80628310182E+03  0.91479669439E+02 0.  0.
         13    1    3    3    0    0  0.26449634230E+03 -0.40991956034E+03 -0.24225909926E+03  0.54468507618E+03  0.00000000000E+00 0. -1.
        -13    1    3    3    0    0  0.12100537404E+03 -0.22417957568E+03 -0.59453715772E+02  0.26159802564E+03  0.00000000000E+00 0.  1.
         22    1    1    2    0    0 -0.38550171634E+03  0.63409913602E+03  0.38180032170E+04  0.38894526418E+04  0.00000000000E+00 0. -1.
<mgrwt>
<rscale>  0 0.31121754E+04</rscale>
<asrwt>0</asrwt>
<pdfrwt beam="1">  1        2 0.63169430E+00 0.31121754E+04</pdfrwt>
<pdfrwt beam="2">  1       -2 0.90726568E-01 0.31121754E+04</pdfrwt>
<totfact> 0.24579849E-01</totfact>
</mgrwt>
</event>
<event>
 6    1  0.2436515E-005  0.2959675E+04  0.7818608E-02  0.8255341E-01
         -2   -1    0    0    0  501 -0.00000000000E+00  0.00000000000E+00  0.15012660661E+04  0.15012660661E+04  0.00000000000E+00 0. -1.
          2   -1    0    0  501    0  0.00000000000E+00 -0.00000000000E+00 -0.14587144101E+04  0.14587144101E+04  0.00000000000E+00 0.  1.
         23    2    1    2    0    0 -0.12111147613E+04 -0.76985085514E+03 -0.33421299918E+03  0.14762618676E+04  0.90451471275E+02 0.  0.
         13    1    3    3    0    0 -0.41780694809E+03 -0.31651870874E+03 -0.11482254330E+03  0.53659198215E+03  0.00000000000E+00 0. -1.
        -13    1    3    3    0    0 -0.79330781325E+03 -0.45333214640E+03 -0.21939045588E+03  0.93966988547E+03  0.00000000000E+00 0.  1.
         22    1    1    2    0    0  0.12111147613E+04  0.76985085514E+03  0.37676465519E+03  0.14837186087E+04  0.00000000000E+00 0. -1.
<mgrwt>
<rscale>  0 0.29596746E+04</rscale>
<asrwt>0</asrwt>
<pdfrwt beam="1">  1        2 0.22441760E+00 0.29596746E+04</pdfrwt>
<pdfrwt beam="2">  1       -2 0.23096401E+00 0.29596746E+04</pdfrwt>
<totfact> 0.97018381E-01</totfact>
</mgrwt>
</event>
<event>
 6    1  0.2436515E-005  0.2774791E+04  0.7818608E-02  0.8311138E-01
          2   -1    0    0  501    0  0.00000000000E+00  0.00000000000E+00  0.28944210609E+04  0.28944210609E+04  0.00000000000E+00 0.  1.
         -2   -1    0    0    0  501 -0.00000000000E+00 -0.00000000000E+00 -0.66502648872E+03  0.66502648872E+03  0.00000000000E+00 0. -1.
         23    2    1    2    0    0 -0.11802364710E+04 -0.70951368310E+03  0.13117293691E+04  0.19046130507E+04  0.10270901246E+03 0.  0.
         13    1    3    3    0    0 -0.45447389233E+03 -0.26664441083E+03  0.57115886930E+03  0.77708957954E+03  0.00000000000E+00 0. -1.
        -13    1    3    3    0    0 -0.72576257862E+03 -0.44286927227E+03  0.74057049983E+03  0.11275234712E+04  0.00000000000E+00 0.  1.
         22    1    1    2    0    0  0.11802364710E+04  0.70951368310E+03  0.91766520303E+03  0.16548344989E+04  0.00000000000E+00 0. -1.
<mgrwt>
<rscale>  0 0.27747913E+04</rscale>
<asrwt>0</asrwt>
<pdfrwt beam="1">  1        2 0.44529554E+00 0.27747913E+04</pdfrwt>
<pdfrwt beam="2">  1       -2 0.10231177E+00 0.27747913E+04</pdfrwt>
<totfact> 0.13806536E+00</totfact>
</mgrwt>
</event>
<event>
 6    1  0.2436515E-005  0.7003802E+04  0.7818608E-02  0.7577043E-01
         -2   -1    0    0    0  501 -0.00000000000E+00  0.00000000000E+00  0.42308084922E+04  0.42308084922E+04  0.00000000000E+00 0. -1.
          2   -1    0    0  501    0  0.00000000000E+00 -0.00000000000E+00 -0.28985739856E+04  0.28985739856E+04  0.00000000000E+00 0.  1.
         23    2    1    2    0    0  0.25251012364E+04 -0.24237557661E+04  0.57305020506E+03  0.35478899018E+04  0.91694871432E+02 0.  0.
         13    1    3    3    0    0  0.40551213792E+03 -0.38984826986E+03  0.12636176541E+03  0.57653192736E+03  0.00000000000E+00 0. -1.
        -13    1    3    3    0    0  0.21195890985E+04 -0.20339074963E+04  0.44668843965E+03  0.29713579744E+04  0.00000000000E+00 0.  1.
         22    1    1    2    0    0 -0.25251012364E+04  0.24237557661E+04  0.75918430155E+03  0.35814925760E+04  0.00000000000E+00 0.  1.
<mgrwt>
<rscale>  0 0.70038022E+04</rscale>
<asrwt>0</asrwt>
<pdfrwt beam="1">  1        2 0.44593446E+00 0.70038022E+04</pdfrwt>
<pdfrwt beam="2">  1       -2 0.65089362E+00 0.70038022E+04</pdfrwt>
<totfact> 0.43129755E-04</totfact>
</mgrwt>
</event>
<event>
 6    1  0.2436515E-005  0.3498201E+04  0.7818608E-02  0.8114216E-01
         -2   -1    0    0    0  501 -0.00000000000E+00  0.00000000000E+00  0.12959549730E+04  0.12959549730E+04  0.00000000000E+00 0. -1.
          2   -1    0    0  501    0  0.00000000000E+00 -0.00000000000E+00 -0.23606939297E+04  0.23606939297E+04  0.00000000000E+00 0.  1.
         23    2    1    2    0    0  0.24658548864E+03  0.92463441392E+03 -0.20616224254E+04  0.22747915103E+04  0.92931092364E+02 0.  0.
         11    1    3    3    0    0  0.16576231089E+03  0.71799634941E+03 -0.16531779493E+04  0.18099705062E+04  0.00000000000E+00 0.  1.
        -11    1    3    3    0    0  0.80823177757E+02  0.20663806451E+03 -0.40844447615E+03  0.46482100411E+03  0.00000000000E+00 0. -1.
         22    1    1    2    0    0 -0.24658548864E+03 -0.92463441392E+03  0.99688346870E+03  0.13818573923E+04  0.00000000000E+00 0. -1.
<mgrwt>
<rscale>  0 0.34982013E+04</rscale>
<asrwt>0</asrwt>
<pdfrwt beam="1">  1        2 0.36318368E+00 0.34982013E+04</pdfrwt>
<pdfrwt beam="2">  1       -2 0.19937769E+00 0.34982013E+04</pdfrwt>
<totfact> 0.46195448E-01</totfact>
</mgrwt>
</event>
<event>
 6    1  0.2436515E-005  0.2635016E+04  0.7818608E-02  0.8356403E-01
         -2   -1    0    0    0  501 -0.00000000000E+00  0.00000000000E+00  0.87439963276E+03  0.87439963276E+03  0.00000000000E+00 0. -1.
          2   -1    0    0  501    0  0.00000000000E+00 -0.00000000000E+00 -0.19851653357E+04  0.19851653357E+04  0.00000000000E+00 0.  1.
         23    2    1    2    0    0 -0.65816700368E+03 -0.63405935547E+03 -0.15835309831E+04  0.18306227537E+04  0.91619982130E+02 0.  0.
         11    1    3    3    0    0 -0.17980989299E+03 -0.19459630061E+03 -0.53864363060E+03  0.60028016677E+03  0.00000000000E+00 0. -1.
        -11    1    3    3    0    0 -0.47835711069E+03 -0.43946305486E+03 -0.10448873525E+04  0.12303425870E+04  0.00000000000E+00 0.  1.
         22    1    1    2    0    0  0.65816700368E+03  0.63405935547E+03  0.47276528020E+03  0.10289422147E+04  0.00000000000E+00 0. -1.
<mgrwt>
<rscale>  0 0.26350164E+04</rscale>
<asrwt>0</asrwt>
<pdfrwt beam="1">  1        2 0.30541005E+00 0.26350164E+04</pdfrwt>
<pdfrwt beam="2">  1       -2 0.13452302E+00 0.26350164E+04</pdfrwt>
<totfact> 0.23910952E+00</totfact>
</mgrwt>
</event>
<event>
 6    1  0.2436515E-005  0.1712942E+04  0.7818608E-02  0.8754017E-01
         -1   -1    0    0    0  501 -0.00000000000E+00  0.00000000000E+00  0.29173615081E+03  0.29173615081E+03  0.00000000000E+00 0. -1.
          1   -1    0    0  501    0  0.00000000000E+00 -0.00000000000E+00 -0.25144048664E+04  0.25144048664E+04  0.00000000000E+00 0.  1.
         23    2    1    2    0    0  0.17749968845E+03 -0.24234313710E+03 -0.24241621776E+04  0.24444284922E+04  0.91826221388E+02 0.  0.
         11    1    3    3    0    0  0.68065778572E+02 -0.14681957256E+03 -0.10179066789E+04  0.10306905181E+04  0.00000000000E+00 0.  1.
        -11    1    3    3    0    0  0.10943390988E+03 -0.95523564545E+02 -0.14062554986E+04  0.14137379741E+04  0.00000000000E+00 0. -1.
         22    1    1    2    0    0 -0.17749968845E+03  0.24234313710E+03  0.20149346199E+03  0.36171252497E+03  0.00000000000E+00 0. -1.
<mgrwt>
<rscale>  0 0.17129423E+04</rscale>
<asrwt>0</asrwt>
<pdfrwt beam="1">  1        1 0.38683151E+00 0.17129423E+04</pdfrwt>
<pdfrwt beam="2">  1       -1 0.44882486E-01 0.17129423E+04</pdfrwt>
<totfact> 0.62028586E+00</totfact>
</mgrwt>
</event>
<event>
 6    1  0.2436515E-005  0.1475137E+04  0.7818608E-02  0.8901157E-01
          2   -1    0    0  501    0  0.00000000000E+00  0.00000000000E+00  0.62148373258E+03  0.62148373258E+03  0.00000000000E+00 0.  1.
         -2   -1    0    0    0  501 -0.00000000000E+00 -0.00000000000E+00 -0.87533688999E+03  0.87533688999E+03  0.00000000000E+00 0. -1.
         23    2    1    2    0    0 -0.45878148200E+03 -0.52928293880E+03  0.97298590003E+02  0.71328477319E+03  0.93205549830E+02 0.  0.
         13    1    3    3    0    0 -0.22881500235E+03 -0.30607498607E+03  0.15170829585E+02  0.38245046276E+03  0.00000000000E+00 0. -1.
        -13    1    3    3    0    0 -0.22996647966E+03 -0.22320795274E+03  0.82127760418E+02  0.33083431044E+03  0.00000000000E+00 0.  1.
         22    1    1    2    0    0  0.45878148200E+03  0.52928293880E+03 -0.35115174741E+03  0.78353584937E+03  0.00000000000E+00 0. -1.
<mgrwt>
<rscale>  0 0.14751375E+04</rscale>
<asrwt>0</asrwt>
<pdfrwt beam="1">  1        2 0.95612882E-01 0.14751375E+04</pdfrwt>
<pdfrwt beam="2">  1       -2 0.13466721E+00 0.14751375E+04</pdfrwt>
<totfact> 0.18251918E+01</totfact>
</mgrwt>
</event>
<event>
 6    1  0.2436515E-005  0.2120616E+04  0.7818608E-02  0.8552216E-01
          2   -1    0    0  501    0  0.00000000000E+00  0.00000000000E+00  0.75507937317E+03  0.75507937317E+03  0.00000000000E+00 0.  1.
         -2   -1    0    0    0  501 -0.00000000000E+00 -0.00000000000E+00 -0.14889204796E+04  0.14889204796E+04  0.00000000000E+00 0. -1.
         23    2    1    2    0    0  0.41759407393E+03 -0.10673864767E+03 -0.13905680669E+04  0.14584629345E+04  0.87502189093E+02 0.  0.
         13    1    3    3    0    0  0.29514055539E+03 -0.10340898321E+03 -0.10875351047E+04  0.11316068086E+04  0.00000000000E+00 0. -1.
        -13    1    3    3    0    0  0.12245351854E+03 -0.33296644644E+01 -0.30303296215E+03  0.32685612587E+03  0.00000000000E+00 0.  1.
         22    1    1    2    0    0 -0.41759407393E+03  0.10673864767E+03  0.65672696044E+03  0.78553691833E+03  0.00000000000E+00 0.  1.
<mgrwt>
<rscale>  0 0.21206161E+04</rscale>
<asrwt>0</asrwt>
<pdfrwt beam="1">  1        2 0.11616606E+00 0.21206161E+04</pdfrwt>
<pdfrwt beam="2">  1       -2 0.22906469E+00 0.21206161E+04</pdfrwt>
<totfact> 0.29624769E+00</totfact>
</mgrwt>
</event>
<event>
 6    1  0.3212993E-005  0.2689619E+04  0.7818608E-02  0.8338381E-01
          2   -1    0    0  501    0  0.00000000000E+00  0.00000000000E+00  0.16422694572E+04  0.16422694572E+04  0.00000000000E+00 0.  1.
         -2   -1    0    0    0  501 -0.00000000000E+00 -0.00000000000E+00 -0.11012275638E+04  0.11012275638E+04  0.00000000000E+00 0. -1.
         23    2    1    2    0    0 -0.31519317497E+03 -0.57760331811E+03 -0.92379902431E+03  0.11376541753E+04  0.88769672314E+02 0.  0.
         13    1    3    3    0    0 -0.18527049996E+03 -0.32885507079E+03 -0.60338293194E+03  0.71171748489E+03  0.00000000000E+00 0. -1.
        -13    1    3    3    0    0 -0.12992267501E+03 -0.24874824732E+03 -0.32041609237E+03  0.42593669046E+03  0.00000000000E+00 0.  1.
         22    1    1    2    0    0  0.31519317497E+03  0.57760331811E+03  0.14648409177E+04  0.16058428456E+04  0.00000000000E+00 0.  1.
<mgrwt>
<rscale>  0 0.26896189E+04</rscale>
<asrwt>0</asrwt>
<pdfrwt beam="1">  1        2 0.25265684E+00 0.26896189E+04</pdfrwt>
<pdfrwt beam="2">  1       -2 0.16941963E+00 0.26896189E+04</pdfrwt>
<totfact> 0.19956799E+00</totfact>
</mgrwt>
</event>
<event>
 6    1  0.2436515E-005  0.4863209E+04  0.7818608E-02  0.7849962E-01
         -2   -1    0    0    0  501 -0.00000000000E+00  0.00000000000E+00  0.18200867663E+04  0.18200867663E+04  0.00000000000E+00 0. -1.
          2   -1    0    0  501    0  0.00000000000E+00 -0.00000000000E+00 -0.32485811215E+04  0.32485811215E+04  0.00000000000E+00 0.  1.
         23    2    1    2    0    0 -0.58102113552E+03 -0.48159353451E+03 -0.31225961835E+04  0.32140792820E+04  0.10090001640E+03 0.  0.
         13    1    3    3    0    0 -0.10829397636E+03 -0.12557844143E+03 -0.55983969293E+03  0.58388184768E+03  0.00000000000E+00 0. -1.
        -13    1    3    3    0    0 -0.47272715916E+03 -0.35601509309E+03 -0.25627564905E+04  0.26301974343E+04  0.00000000000E+00 0.  1.
         22    1    1    2    0    0  0.58102113552E+03  0.48159353451E+03  0.16941018283E+04  0.18545886059E+04  0.00000000000E+00 0. -1.
<mgrwt>
<rscale>  0 0.48632086E+04</rscale>
<asrwt>0</asrwt>
<pdfrwt beam="1">  1        2 0.49978170E+00 0.48632086E+04</pdfrwt>
<pdfrwt beam="2">  1       -2 0.28001335E+00 0.48632086E+04</pdfrwt>
<totfact> 0.37296708E-02</totfact>
</mgrwt>
</event>
<event>
 6    1  0.2436515E-005  0.3243758E+04  0.7818608E-02  0.8177355E-01
          2   -1    0    0  501    0  0.00000000000E+00  0.00000000000E+00  0.18966663404E+04  0.18966663404E+04  0.00000000000E+00 0.  1.
         -2   -1    0    0    0  501 -0.00000000000E+00 -0.00000000000E+00 -0.13869029923E+04  0.13869029923E+04  0.00000000000E+00 0. -1.
         23    2    1    2    0    0  0.85697326443E+03  0.81662525731E+03 -0.86536156535E+03  0.14691139008E+04  0.90360544844E+02 0.  0.
         13    1    3    3    0    0  0.10034756326E+03  0.13893173611E+03 -0.13046774853E+03  0.21539149045E+03  0.00000000000E+00 0.  1.
        -13    1    3    3    0    0  0.75662570117E+03  0.67769352120E+03 -0.73489381681E+03  0.12537224104E+04  0.00000000000E+00 0. -1.
         22    1    1    2    0    0 -0.85697326443E+03 -0.81662525731E+03  0.13751249135E+04  0.18144554319E+04  0.00000000000E+00 0.  1.
<mgrwt>
<rscale>  0 0.32437585E+04</rscale>
<asrwt>0</asrwt>
<pdfrwt beam="1">  1        2 0.29179482E+00 0.32437585E+04</pdfrwt>
<pdfrwt beam="2">  1       -2 0.21336969E+00 0.32437585E+04</pdfrwt>
<totfact> 0.69708561E-01</totfact>
</mgrwt>
</event>
<event>
 6    1  0.2436515E-005  0.2293759E+04  0.7818608E-02  0.8480386E-01
          2   -1    0    0  501    0  0.00000000000E+00  0.00000000000E+00  0.98591474539E+03  0.98591474539E+03  0.00000000000E+00 0.  1.
         -2   -1    0    0    0  501 -0.00000000000E+00 -0.00000000000E+00 -0.13341243636E+04  0.13341243636E+04  0.00000000000E+00 0. -1.
         23    2    1    2    0    0  0.68866558596E+03 -0.60785202677E+03  0.51515842467E+03  0.10594246742E+04  0.11510022618E+03 0.  0.
         11    1    3    3    0    0  0.33169484584E+03 -0.27906405447E+03  0.30796031484E+03  0.53173092140E+03  0.00000000000E+00 0.  1.
        -11    1    3    3    0    0  0.35697074012E+03 -0.32878797230E+03  0.20719810982E+03  0.52769375280E+03  0.00000000000E+00 0. -1.
         22    1    1    2    0    0 -0.68866558596E+03  0.60785202677E+03 -0.86336804286E+03  0.12606144348E+04  0.00000000000E+00 0. -1.
<mgrwt>
<rscale>  0 0.22937593E+04</rscale>
<asrwt>0</asrwt>
<pdfrwt beam="1">  1        2 0.15167919E+00 0.22937593E+04</pdfrwt>
<pdfrwt beam="2">  1       -2 0.20524990E+00 0.22937593E+04</pdfrwt>
<totfact> 0.28667212E+00</totfact>
</mgrwt>
</event>
<event>
 6    1  0.2436515E-005  0.1487551E+04  0.7818608E-02  0.8892774E-01
         -2   -1    0    0    0  501 -0.00000000000E+00  0.00000000000E+00  0.50890165100E+03  0.50890165100E+03  0.00000000000E+00 0. -1.
          2   -1    0    0  501    0  0.00000000000E+00 -0.00000000000E+00 -0.10870505690E+04  0.10870505690E+04  0.00000000000E+00 0.  1.
         23    2    1    2    0    0 -0.93784369026E+02 -0.36119841762E+03  0.39626135664E+03  0.55252747998E+03  0.94888084641E+02 0.  0.
         11    1    3    3    0    0 -0.46363484283E+02 -0.13046478249E+03  0.21314476696E+03  0.25416790480E+03  0.00000000000E+00 0. -1.
        -11    1    3    3    0    0 -0.47420884742E+02 -0.23073363514E+03  0.18311658967E+03  0.29835957519E+03  0.00000000000E+00 0.  1.
         22    1    1    2    0    0  0.93784369026E+02  0.36119841762E+03 -0.97441027462E+03  0.10434247400E+04  0.00000000000E+00 0.  1.
<mgrwt>
<rscale>  0 0.14875508E+04</rscale>
<asrwt>0</asrwt>
<pdfrwt beam="1">  1        2 0.16723855E+00 0.14875508E+04</pdfrwt>
<pdfrwt beam="2">  1       -2 0.78292562E-01 0.14875508E+04</pdfrwt>
<totfact> 0.31145695E+01</totfact>
</mgrwt>
</event>
<event>
 6    1  0.2436515E-005  0.1970229E+04  0.7818608E-02  0.8620668E-01
         -2   -1    0    0    0  501 -0.00000000000E+00  0.00000000000E+00  0.23024932196E+04  0.23024932196E+04  0.00000000000E+00 0. -1.
          2   -1    0    0  501    0  0.00000000000E+00 -0.00000000000E+00 -0.42147796958E+03  0.42147796958E+03  0.00000000000E+00 0.  1.
         23    2    1    2    0    0 -0.95468264998E+02  0.93859935895E+03  0.56115224961E+03  0.11015898265E+04  0.92332834236E+02 0.  0.
         13    1    3    3    0    0 -0.52930988023E+02  0.24369252096E+03  0.11434309146E+03  0.27433934612E+03  0.00000000000E+00 0. -1.
        -13    1    3    3    0    0 -0.42537276975E+02  0.69490683799E+03  0.44680915815E+03  0.82725048034E+03  0.00000000000E+00 0.  1.
         22    1    1    2    0    0  0.95468264998E+02 -0.93859935895E+03  0.13198630004E+04  0.16223813627E+04  0.00000000000E+00 0. -1.
<mgrwt>
<rscale>  0 0.19702286E+04</rscale>
<asrwt>0</asrwt>
<pdfrwt beam="1">  1        2 0.64842766E-01 0.19702286E+04</pdfrwt>
<pdfrwt beam="2">  1       -2 0.35422972E+00 0.19702286E+04</pdfrwt>
<totfact> 0.10237867E+00</totfact>
</mgrwt>
</event>
<event>
 6    1  0.2436515E-005  0.2022493E+04  0.7818608E-02  0.8596176E-01
          2   -1    0    0  501    0  0.00000000000E+00  0.00000000000E+00  0.10686216257E+04  0.10686216257E+04  0.00000000000E+00 0.  1.
         -2   -1    0    0    0  501 -0.00000000000E+00 -0.00000000000E+00 -0.95695173830E+03  0.95695173830E+03  0.00000000000E+00 0. -1.
         23    2    1    2    0    0  0.94977903564E+03  0.20466678003E+02  0.39716355709E+03  0.10336027309E+04  0.89981180742E+02 0.  0.
         11    1    3    3    0    0  0.74662278244E+03  0.15073650558E+02  0.35122988647E+03  0.82524858519E+03  0.00000000000E+00 0.  1.
        -11    1    3    3    0    0  0.20315625319E+03  0.53930274443E+01  0.45933670621E+02  0.20835414576E+03  0.00000000000E+00 0. -1.
         22    1    1    2    0    0 -0.94977903564E+03 -0.20466678003E+02 -0.28549366968E+03  0.99197063307E+03  0.00000000000E+00 0.  1.
<mgrwt>
<rscale>  0 0.20224928E+04</rscale>
<asrwt>0</asrwt>
<pdfrwt beam="1">  1        2 0.16440333E+00 0.20224928E+04</pdfrwt>
<pdfrwt beam="2">  1       -2 0.14722334E+00 0.20224928E+04</pdfrwt>
<totfact> 0.66523252E+00</totfact>
</mgrwt>
</event>
<event>
 6    1  0.2436515E-005  0.7427524E+03  0.7818608E-02  0.9646790E-01
         -2   -1    0    0    0  501 -0.00000000000E+00  0.00000000000E+00  0.20325829306E+03  0.20325829306E+03  0.00000000000E+00 0. -1.
          2   -1    0    0  501    0  0.00000000000E+00 -0.00000000000E+00 -0.67854695108E+03  0.67854695108E+03  0.00000000000E+00 0.  1.
         23    2    1    2    0    0  0.17488393590E+03 -0.30884086227E+02  0.13832198011E+03  0.24301245063E+03  0.91563437906E+02 0.  0.
         11    1    3    3    0    0  0.34156909660E+02 -0.46842656680E+02  0.45201435869E+02  0.73512575570E+02  0.00000000000E+00 0. -1.
        -11    1    3    3    0    0  0.14072702624E+03  0.15958570452E+02  0.93120544241E+02  0.16949987506E+03  0.00000000000E+00 0.  1.
         22    1    1    2    0    0 -0.17488393590E+03  0.30884086227E+02 -0.61361063813E+03  0.63879279351E+03  0.00000000000E+00 0. -1.
<mgrwt>
<rscale>  0 0.74275244E+03</rscale>
<asrwt>0</asrwt>
<pdfrwt beam="1">  1        2 0.10439184E+00 0.74275244E+03</pdfrwt>
<pdfrwt beam="2">  1       -2 0.31270506E-01 0.74275244E+03</pdfrwt>
<totfact> 0.40662878E+02</totfact>
</mgrwt>
</event>
<event>
 6    1  0.2436515E-005  0.2987523E+04  0.7818608E-02  0.8247303E-01
          2   -1    0    0  501    0  0.00000000000E+00  0.00000000000E+00  0.33748591348E+04  0.33748591348E+04  0.00000000000E+00 0.  1.
         -2   -1    0    0    0  501 -0.00000000000E+00 -0.00000000000E+00 -0.66116057110E+03  0.66116057110E+03  0.00000000000E+00 0. -1.
         23    2    1    2    0    0  0.89731263071E+02 -0.33583321017E+03  0.33187776776E+04  0.33381971076E+04  0.91864093039E+02 0.  0.
         13    1    3    3    0    0  0.55387957728E+02 -0.25087886786E+03  0.20351496576E+04  0.20513025523E+04  0.00000000000E+00 0.  1.
        -13    1    3    3    0    0  0.34343305343E+02 -0.84954342312E+02  0.12836280200E+04  0.12868945553E+04  0.00000000000E+00 0. -1.
         22    1    1    2    0    0 -0.89731263071E+02  0.33583321017E+03 -0.60507911387E+03  0.69782259827E+03  0.00000000000E+00 0. -1.
<mgrwt>
<rscale>  0 0.29875233E+04</rscale>
<asrwt>0</asrwt>
<pdfrwt beam="1">  1        2 0.51920909E+00 0.29875233E+04</pdfrwt>
<pdfrwt beam="2">  1       -2 0.10171701E+00 0.29875233E+04</pdfrwt>
<totfact> 0.67357384E-01</totfact>
</mgrwt>
</event>
<event>
 6    1  0.2436515E-005  0.2339045E+04  0.7818608E-02  0.8462683E-01
          2   -1    0    0  501    0  0.00000000000E+00  0.00000000000E+00  0.41955301611E+03  0.41955301611E+03  0.00000000000E+00 0.  1.
         -2   -1    0    0    0  501 -0.00000000000E+00 -0.00000000000E+00 -0.32600950640E+04  0.32600950640E+04  0.00000000000E+00 0. -1.
         23    2    1    2    0    0 -0.10955074621E+04  0.27930460021E+03 -0.18821344261E+04  0.21975236492E+04  0.92371702428E+02 0.  0.
         11    1    3    3    0    0 -0.55379779270E+03  0.14167153888E+03 -0.10410437556E+04  0.11876594298E+04  0.00000000000E+00 0. -1.
        -11    1    3    3    0    0 -0.54170966944E+03  0.13763306132E+03 -0.84109067051E+03  0.10098642194E+04  0.00000000000E+00 0.  1.
         22    1    1    2    0    0  0.10955074621E+04 -0.27930460021E+03 -0.95840762177E+03  0.14821244309E+04  0.00000000000E+00 0. -1.
<mgrwt>
<rscale>  0 0.23390449E+04</rscale>
<asrwt>0</asrwt>
<pdfrwt beam="1">  1        2 0.64546616E-01 0.23390449E+04</pdfrwt>
<pdfrwt beam="2">  1       -2 0.50155310E+00 0.23390449E+04</pdfrwt>
<totfact> 0.10937297E-01</totfact>
</mgrwt>
</event>
<event>
 6    1  0.2436515E-005  0.3857189E+03  0.7818608E-02  0.1048840E+00
         -2   -1    0    0    0  501 -0.00000000000E+00  0.00000000000E+00  0.14341475996E+04  0.14341475996E+04  0.00000000000E+00 0.  1.
          2   -1    0    0  501    0  0.00000000000E+00 -0.00000000000E+00 -0.25935108518E+02  0.25935108518E+02  0.00000000000E+00 0. -1.
         23    2    1    2    0    0 -0.44306115925E+02 -0.13737150959E+03  0.11544968318E+04  0.11681827264E+04  0.10466128266E+03 0.  0.
         13    1    3    3    0    0 -0.48258749222E+02 -0.51269902862E+02  0.81048001442E+03  0.81353264446E+03  0.00000000000E+00 0.  1.
        -13    1    3    3    0    0  0.39526332969E+01 -0.86101606732E+02  0.34401681738E+03  0.35465008196E+03  0.00000000000E+00 0. -1.
         22    1    1    2    0    0  0.44306115925E+02  0.13737150959E+03  0.25371565928E+03  0.29189998171E+03  0.00000000000E+00 0. -1.
<mgrwt>
<rscale>  0 0.38571893E+03</rscale>
<asrwt>0</asrwt>
<pdfrwt beam="1">  1        2 0.39900178E-02 0.38571893E+03</pdfrwt>
<pdfrwt beam="2">  1       -2 0.22063803E+00 0.38571893E+03</pdfrwt>
<totfact> 0.22795136E+02</totfact>
</mgrwt>
</event>
<event>
 6    1  0.2436515E-005  0.4289626E+04  0.7818608E-02  0.7948539E-01
          2   -1    0    0  501    0  0.00000000000E+00  0.00000000000E+00  0.27515906612E+04  0.27515906612E+04  0.00000000000E+00 0.  1.
         -2   -1    0    0    0  501 -0.00000000000E+00 -0.00000000000E+00 -0.16718409165E+04  0.16718409165E+04  0.00000000000E+00 0. -1.
         23    2    1    2    0    0 -0.16545410088E+04 -0.10155194494E+04 -0.39780054960E+03  0.19837716477E+04  0.91208392968E+02 0.  0.
         13    1    3    3    0    0 -0.76843535586E+03 -0.47081293629E+03 -0.13827148634E+03  0.91174378037E+03  0.00000000000E+00 0. -1.
        -13    1    3    3    0    0 -0.88610565292E+03 -0.54470651310E+03 -0.25952906326E+03  0.10720278673E+04  0.00000000000E+00 0.  1.
         22    1    1    2    0    0  0.16545410088E+04  0.10155194494E+04  0.14775502943E+04  0.24396599300E+04  0.00000000000E+00 0. -1.
<mgrwt>
<rscale>  0 0.42896256E+04</rscale>
<asrwt>0</asrwt>
<pdfrwt beam="1">  1        2 0.42332164E+00 0.42896256E+04</pdfrwt>
<pdfrwt beam="2">  1       -2 0.25720629E+00 0.42896256E+04</pdfrwt>
<totfact> 0.11059930E-01</totfact>
</mgrwt>
</event>
<event>
 6    1  0.2436515E-005  0.2184708E+04  0.7818608E-02  0.8524820E-01
          2   -1    0    0  501    0  0.00000000000E+00  0.00000000000E+00  0.14063362080E+04  0.14063362080E+04  0.00000000000E+00 0.  1.
         -2   -1    0    0    0  501 -0.00000000000E+00 -0.00000000000E+00 -0.84847243229E+03  0.84847243229E+03  0.00000000000E+00 0. -1.
         23    2    1    2    0    0  0.38317137148E+03  0.35753490069E+03 -0.70728360641E+03  0.88541118023E+03  0.95138599178E+02 0.  0.
         11    1    3    3    0    0  0.16951021021E+03  0.15127508612E+03 -0.38599290213E+03  0.44789327249E+03  0.00000000000E+00 0.  1.
        -11    1    3    3    0    0  0.21366116126E+03  0.20625981457E+03 -0.32129070428E+03  0.43751790774E+03  0.00000000000E+00 0. -1.
         22    1    1    2    0    0 -0.38317137148E+03 -0.35753490069E+03  0.12651473821E+04  0.13693974600E+04  0.00000000000E+00 0.  1.
<mgrwt>
<rscale>  0 0.21847082E+04</rscale>
<asrwt>0</asrwt>
<pdfrwt beam="1">  1        2 0.21635942E+00 0.21847082E+04</pdfrwt>
<pdfrwt beam="2">  1       -2 0.13053422E+00 0.21847082E+04</pdfrwt>
<totfact> 0.56457672E+00</totfact>
</mgrwt>
</event>
<event>
 6    1  0.2436515E-005  0.2787598E+04  0.7818608E-02  0.8307129E-01
         -2   -1    0    0    0  501 -0.00000000000E+00  0.00000000000E+00  0.10975107813E+04  0.10975107813E+04  0.00000000000E+00 0. -1.
          2   -1    0    0  501    0  0.00000000000E+00 -0.00000000000E+00 -0.17700745481E+04  0.17700745481E+04  0.00000000000E+00 0.  1.
         23    2    1    2    0    0  0.12763431282E+04 -0.25098347874E+03  0.17414772693E+03  0.13155012979E+04  0.90397712831E+02 0.  0.
         11    1    3    3    0    0  0.42430474722E+03 -0.72772349812E+02  0.16152687900E+02  0.43080302081E+03  0.00000000000E+00 0. -1.
        -11    1    3    3    0    0  0.85203838095E+03 -0.17821112892E+03  0.15799503903E+03  0.88469827707E+03  0.00000000000E+00 0.  1.
         22    1    1    2    0    0 -0.12763431282E+04  0.25098347874E+03 -0.84671149373E+03  0.15520840316E+04  0.00000000000E+00 0.  1.
<mgrwt>
<rscale>  0 0.27875982E+04</rscale>
<asrwt>0</asrwt>
<pdfrwt beam="1">  1        2 0.27231916E+00 0.27875982E+04</pdfrwt>
<pdfrwt beam="2">  1       -2 0.16884781E+00 0.27875982E+04</pdfrwt>
<totfact> 0.16964618E+00</totfact>
</mgrwt>
</event>
<event>
 6    1  0.2436515E-005  0.2673893E+04  0.7818608E-02  0.8343526E-01
          2   -1    0    0  501    0  0.00000000000E+00  0.00000000000E+00  0.23311173493E+04  0.23311173493E+04  0.00000000000E+00 0.  1.
         -2   -1    0    0    0  501 -0.00000000000E+00 -0.00000000000E+00 -0.76676764380E+03  0.76676764380E+03  0.00000000000E+00 0. -1.
         23    2    1    2    0    0  0.62146619224E+03 -0.11528837555E+04  0.10848626174E+04  0.17031559695E+04  0.91935716534E+02 0.  0.
         13    1    3    3    0    0  0.28982269499E+03 -0.44434485743E+03  0.44962537374E+03  0.69541536046E+03  0.00000000000E+00 0.  1.
        -13    1    3    3    0    0  0.33164349725E+03 -0.70853889805E+03  0.63523724364E+03  0.10077406090E+04  0.00000000000E+00 0. -1.
         22    1    1    2    0    0 -0.62146619224E+03  0.11528837555E+04  0.47948708813E+03  0.13947290236E+04  0.00000000000E+00 0.  1.
<mgrwt>
<rscale>  0 0.26738926E+04</rscale>
<asrwt>0</asrwt>
<pdfrwt beam="1">  1        2 0.35863344E+00 0.26738926E+04</pdfrwt>
<pdfrwt beam="2">  1       -2 0.11796425E+00 0.26738926E+04</pdfrwt>
<totfact> 0.21196980E+00</totfact>
</mgrwt>
</event>
<event>
 6    1  0.2436515E-005  0.2308328E+04  0.7818608E-02  0.8474645E-01
          2   -1    0    0  501    0  0.00000000000E+00  0.00000000000E+00  0.52864927023E+04  0.52864927023E+04  0.00000000000E+00 0.  1.
         -2   -1    0    0    0  501 -0.00000000000E+00 -0.00000000000E+00 -0.25198076032E+03  0.25198076032E+03  0.00000000000E+00 0. -1.
         23    2    1    2    0    0 -0.30544009678E+03  0.98773213007E+03  0.12981685747E+04  0.16617260925E+04  0.84755794105E+02 0.  0.
         13    1    3    3    0    0 -0.17273691508E+03  0.66290211256E+03  0.89900867488E+03  0.11302627350E+04  0.00000000000E+00 0. -1.
        -13    1    3    3    0    0 -0.13270318170E+03  0.32483001751E+03  0.39915989979E+03  0.53146335745E+03  0.00000000000E+00 0.  1.
         22    1    1    2    0    0  0.30544009678E+03 -0.98773213007E+03  0.37363433673E+04  0.38767473702E+04  0.00000000000E+00 0.  1.
<mgrwt>
<rscale>  0 0.23083279E+04</rscale>
<asrwt>0</asrwt>
<pdfrwt beam="1">  1        2 0.81330649E+00 0.23083279E+04</pdfrwt>
<pdfrwt beam="2">  1       -2 0.38766275E-01 0.23083279E+04</pdfrwt>
<totfact> 0.79509320E-02</totfact>
</mgrwt>
</event>
<event>
 6    1  0.2436515E-005  0.2649054E+04  0.7818608E-02  0.8351727E-01
         -2   -1    0    0    0  501 -0.00000000000E+00  0.00000000000E+00  0.83808446449E+03  0.83808446449E+03  0.00000000000E+00 0. -1.
          2   -1    0    0  501    0  0.00000000000E+00 -0.00000000000E+00 -0.20933120193E+04  0.20933120193E+04  0.00000000000E+00 0.  1.
         23    2    1    2    0    0  0.11407176218E+04  0.21248784886E+03  0.75264546608E+02  0.11660078550E+04  0.86728238441E+02 0.  0.
         11    1    3    3    0    0  0.37679374397E+03  0.95803886053E+02  0.57566593607E+02  0.39302140244E+03  0.00000000000E+00 0. -1.
        -11    1    3    3    0    0  0.76392387784E+03  0.11668396281E+03  0.17697953001E+02  0.77298645257E+03  0.00000000000E+00 0.  1.
         22    1    1    2    0    0 -0.11407176218E+04 -0.21248784886E+03 -0.13304921014E+04  0.17653886287E+04  0.00000000000E+00 0.  1.
<mgrwt>
<rscale>  0 0.26490544E+04</rscale>
<asrwt>0</asrwt>
<pdfrwt beam="1">  1        2 0.32204800E+00 0.26490544E+04</pdfrwt>
<pdfrwt beam="2">  1       -2 0.12893607E+00 0.26490544E+04</pdfrwt>
<totfact> 0.23152634E+00</totfact>
</mgrwt>
</event>
<event>
 6    1  0.2436515E-005  0.6692794E+03  0.7818608E-02  0.9771260E-01
         -2   -1    0    0    0  501 -0.00000000000E+00  0.00000000000E+00  0.19667264025E+03  0.19667264025E+03  0.00000000000E+00 0. -1.
          2   -1    0    0  501    0  0.00000000000E+00 -0.00000000000E+00 -0.56939150182E+03  0.56939150182E+03  0.00000000000E+00 0.  1.
         23    2    1    2    0    0  0.24608444039E+02  0.32299281232E+03 -0.26000212619E+03  0.42308455847E+03  0.80433237292E+02 0.  0.
         11    1    3    3    0    0 -0.16979417684E+02  0.10668225819E+03 -0.12291206517E+03  0.16363612255E+03  0.00000000000E+00 0.  1.
        -11    1    3    3    0    0  0.41587861723E+02  0.21631055414E+03 -0.13709006102E+03  0.25944843592E+03  0.00000000000E+00 0. -1.
         22    1    1    2    0    0 -0.24608444039E+02 -0.32299281232E+03 -0.11271673537E+03  0.34297958359E+03  0.00000000000E+00 0.  1.
<mgrwt>
<rscale>  0 0.66927940E+03</rscale>
<asrwt>0</asrwt>
<pdfrwt beam="1">  1        2 0.87598694E-01 0.66927940E+03</pdfrwt>
<pdfrwt beam="2">  1       -2 0.30257329E-01 0.66927940E+03</pdfrwt>
<totfact> 0.53637058E+02</totfact>
</mgrwt>
</event>
<event>
 6    1  0.2436515E-005  0.2646339E+04  0.7818608E-02  0.8352629E-01
         -2   -1    0    0    0  501 -0.00000000000E+00  0.00000000000E+00  0.18088685027E+04  0.18088685027E+04  0.00000000000E+00 0. -1.
          2   -1    0    0  501    0  0.00000000000E+00 -0.00000000000E+00 -0.96788577097E+03  0.96788577097E+03  0.00000000000E+00 0.  1.
         23    2    1    2    0    0 -0.24455371577E+03 -0.11942934168E+04 -0.11466793014E+03  0.12277508932E+04  0.89890133601E+02 0.  0.
         11    1    3    3    0    0 -0.17040995159E+03 -0.61128441644E+03 -0.66840857264E+02  0.63810335337E+03  0.00000000000E+00 0. -1.
        -11    1    3    3    0    0 -0.74143764184E+02 -0.58300900037E+03 -0.47827072872E+02  0.58964753979E+03  0.00000000000E+00 0.  1.
         22    1    1    2    0    0  0.24455371577E+03  0.11942934168E+04  0.95565066191E+03  0.15490033805E+04  0.00000000000E+00 0. -1.
<mgrwt>
<rscale>  0 0.26463394E+04</rscale>
<asrwt>0</asrwt>
<pdfrwt beam="1">  1        2 0.14890550E+00 0.26463394E+04</pdfrwt>
<pdfrwt beam="2">  1       -2 0.27828746E+00 0.26463394E+04</pdfrwt>
<totfact> 0.10044824E+00</totfact>
</mgrwt>
</event>
<event>
 6    1  0.2436515E-005  0.1114215E+04  0.7818608E-02  0.9191447E-01
          2   -1    0    0  501    0  0.00000000000E+00  0.00000000000E+00  0.12494059955E+04  0.12494059955E+04  0.00000000000E+00 0.  1.
         -2   -1    0    0    0  501 -0.00000000000E+00 -0.00000000000E+00 -0.24841296682E+03  0.24841296682E+03  0.00000000000E+00 0. -1.
         23    2    1    2    0    0 -0.99459681889E+02 -0.31720467047E+03 -0.91071859682E+02  0.35627756944E+03  0.90158702124E+02 0.  0.
         11    1    3    3    0    0  0.52076910419E+01 -0.52102199897E+02  0.11055111580E+02  0.53516116938E+02  0.00000000000E+00 0. -1.
        -11    1    3    3    0    0 -0.10466737293E+03 -0.26510247057E+03 -0.10212697126E+03  0.30276145250E+03  0.00000000000E+00 0.  1.
         22    1    1    2    0    0  0.99459681889E+02  0.31720467047E+03  0.10920648884E+04  0.11415413929E+04  0.00000000000E+00 0.  1.
<mgrwt>
<rscale>  0 0.11142148E+04</rscale>
<asrwt>0</asrwt>
<pdfrwt beam="1">  1        2 0.19221630E+00 0.11142148E+04</pdfrwt>
<pdfrwt beam="2">  1       -2 0.38217380E-01 0.11142148E+04</pdfrwt>
<totfact> 0.11343255E+02</totfact>
</mgrwt>
</event>
<event>
 6    1  0.2436515E-005  0.2482720E+04  0.7818608E-02  0.8409168E-01
          2   -1    0    0  501    0  0.00000000000E+00  0.00000000000E+00  0.16776738756E+04  0.16776738756E+04  0.00000000000E+00 0.  1.
         -2   -1    0    0    0  501 -0.00000000000E+00 -0.00000000000E+00 -0.91851859951E+03  0.91851859951E+03  0.00000000000E+00 0. -1.
         23    2    1    2    0    0 -0.60384517936E+03 -0.65722283751E+03  0.12798093876E+04  0.15629202154E+04  0.90756115086E+02 0.  0.
         13    1    3    3    0    0 -0.24866714315E+03 -0.33682046087E+03  0.60911114130E+03  0.73912093287E+03  0.00000000000E+00 0. -1.
        -13    1    3    3    0    0 -0.35517803621E+03 -0.32040237664E+03  0.67069824626E+03  0.82379928253E+03  0.00000000000E+00 0.  1.
         22    1    1    2    0    0  0.60384517936E+03  0.65722283751E+03 -0.52065411151E+03  0.10332722597E+04  0.00000000000E+00 0. -1.
<mgrwt>
<rscale>  0 0.24827200E+04</rscale>
<asrwt>0</asrwt>
<pdfrwt beam="1">  1        2 0.25810367E+00 0.24827200E+04</pdfrwt>
<pdfrwt beam="2">  1       -2 0.14131055E+00 0.24827200E+04</pdfrwt>
<totfact> 0.31601483E+00</totfact>
</mgrwt>
</event>
<event>
 6    1  0.2436515E-005  0.2116944E+04  0.7818608E-02  0.8553816E-01
          2   -1    0    0  501    0  0.00000000000E+00  0.00000000000E+00  0.34345035828E+04  0.34345035828E+04  0.00000000000E+00 0.  1.
         -2   -1    0    0    0  501 -0.00000000000E+00 -0.00000000000E+00 -0.32620801545E+03  0.32620801545E+03  0.00000000000E+00 0. -1.
         23    2    1    2    0    0 -0.67212296901E+03  0.30511328520E+03  0.28996565066E+04  0.29936564112E+04  0.95537687548E+02 0.  0.
         13    1    3    3    0    0 -0.49370898926E+03  0.24199758780E+03  0.19925562313E+04  0.20670248507E+04  0.00000000000E+00 0. -1.
        -13    1    3    3    0    0 -0.17841397976E+03  0.63115697396E+02  0.90710027533E+03  0.92663156051E+03  0.00000000000E+00 0.  1.
         22    1    1    2    0    0  0.67212296901E+03 -0.30511328520E+03  0.20863906071E+03  0.76705518702E+03  0.00000000000E+00 0. -1.
<mgrwt>
<rscale>  0 0.21169436E+04</rscale>
<asrwt>0</asrwt>
<pdfrwt beam="1">  1        2 0.52838514E+00 0.21169436E+04</pdfrwt>
<pdfrwt beam="2">  1       -2 0.50185851E-01 0.21169436E+04</pdfrwt>
<totfact> 0.31326045E+00</totfact>
</mgrwt>
</event>
<event>
 6    1  0.2436515E-005  0.1524924E+04  0.7818608E-02  0.8868046E-01
         -2   -1    0    0    0  501 -0.00000000000E+00  0.00000000000E+00  0.56399785176E+03  0.56399785176E+03  0.00000000000E+00 0. -1.
          2   -1    0    0  501    0  0.00000000000E+00 -0.00000000000E+00 -0.10307630579E+04  0.10307630579E+04  0.00000000000E+00 0.  1.
         23    2    1    2    0    0  0.67039563382E+03 -0.78887458784E+02 -0.59785270394E+03  0.90712912657E+03  0.99004341644E+02 0.  0.
         13    1    3    3    0    0  0.27421009454E+03  0.77252775812E+01 -0.27878835262E+03  0.39111865388E+03  0.00000000000E+00 0. -1.
        -13    1    3    3    0    0  0.39618553928E+03 -0.86612736366E+02 -0.31906435132E+03  0.51601047268E+03  0.00000000000E+00 0.  1.
         22    1    1    2    0    0 -0.67039563382E+03  0.78887458784E+02  0.13108749783E+03  0.68763178306E+03  0.00000000000E+00 0. -1.
<mgrwt>
<rscale>  0 0.15249238E+04</rscale>
<asrwt>0</asrwt>
<pdfrwt beam="1">  1        2 0.15857893E+00 0.15249238E+04</pdfrwt>
<pdfrwt beam="2">  1       -2 0.86768901E-01 0.15249238E+04</pdfrwt>
<totfact> 0.26693418E+01</totfact>
</mgrwt>
</event>
<event>
 6    1  0.2436515E-005  0.7718171E+03  0.7818608E-02  0.9601731E-01
          2   -1    0    0  501    0  0.00000000000E+00  0.00000000000E+00  0.38473020559E+03  0.38473020559E+03  0.00000000000E+00 0.  1.
         -2   -1    0    0    0  501 -0.00000000000E+00 -0.00000000000E+00 -0.38709054498E+03  0.38709054498E+03  0.00000000000E+00 0. -1.
         23    2    1    2    0    0  0.19777432719E+03  0.29138738017E+03 -0.14540190829E+03  0.39171263404E+03  0.90971330154E+02 0.  0.
         11    1    3    3    0    0  0.14279517197E+03  0.24148309959E+03 -0.14845160545E+03  0.31739947651E+03  0.00000000000E+00 0.  1.
        -11    1    3    3    0    0  0.54979155222E+02  0.49904280580E+02  0.30496971610E+01  0.74313157529E+02  0.00000000000E+00 0. -1.
         22    1    1    2    0    0 -0.19777432719E+03 -0.29138738017E+03  0.14304156891E+03  0.38010811654E+03  0.00000000000E+00 0.  1.
<mgrwt>
<rscale>  0 0.77181714E+03</rscale>
<asrwt>0</asrwt>
<pdfrwt beam="1">  1        2 0.59189262E-01 0.77181714E+03</pdfrwt>
<pdfrwt beam="2">  1       -2 0.59552392E-01 0.77181714E+03</pdfrwt>
<totfact> 0.22046836E+02</totfact>
</mgrwt>
</event>
<event>
 6    1  0.2436515E-005  0.5085934E+04  0.7818608E-02  0.7815386E-01
         -2   -1    0    0    0  501 -0.00000000000E+00  0.00000000000E+00  0.17003569706E+04  0.17003569706E+04  0.00000000000E+00 0. -1.
          2   -1    0    0  501    0  0.00000000000E+00 -0.00000000000E+00 -0.38031314649E+04  0.38031314649E+04  0.00000000000E+00 0.  1.
         23    2    1    2    0    0 -0.44881787442E+02 -0.13727152506E+04 -0.33665806652E+04  0.36370566601E+04  0.89186542108E+02 0.  0.
         13    1    3    3    0    0 -0.34789947781E+02 -0.67278100751E+03 -0.15382841758E+04  0.16793340436E+04  0.00000000000E+00 0.  1.
        -13    1    3    3    0    0 -0.10091839660E+02 -0.69993424311E+03 -0.18282964894E+04  0.19577226165E+04  0.00000000000E+00 0. -1.
         22    1    1    2    0    0  0.44881787442E+02  0.13727152506E+04  0.12638061710E+04  0.18664317753E+04  0.00000000000E+00 0. -1.
<mgrwt>
<rscale>  0 0.50859340E+04</rscale>
<asrwt>0</asrwt>
<pdfrwt beam="1">  1        2 0.58509714E+00 0.50859340E+04</pdfrwt>
<pdfrwt beam="2">  1       -2 0.26159339E+00 0.50859340E+04</pdfrwt>
<totfact> 0.19200568E-02</totfact>
</mgrwt>
</event>
<event>
 6    1  0.2436515E-005  0.1573393E+04  0.7818608E-02  0.8837062E-01
         -2   -1    0    0    0  501 -0.00000000000E+00  0.00000000000E+00  0.41745464901E+03  0.41745464901E+03  0.00000000000E+00 0. -1.
          2   -1    0    0  501    0  0.00000000000E+00 -0.00000000000E+00 -0.14825358504E+04  0.14825358504E+04  0.00000000000E+00 0.  1.
         23    2    1    2    0    0 -0.45741041625E+03 -0.46361447654E+03 -0.10630660674E+04  0.12487096594E+04  0.70736680717E+02 0.  0.
         13    1    3    3    0    0 -0.20761828514E+03 -0.17407356322E+03 -0.48654047831E+03  0.55689190582E+03  0.00000000000E+00 0. -1.
        -13    1    3    3    0    0 -0.24979213112E+03 -0.28954091332E+03 -0.57652558910E+03  0.69181775356E+03  0.00000000000E+00 0.  1.
         22    1    1    2    0    0  0.45741041625E+03  0.46361447654E+03 -0.20151339324E+01  0.65128083998E+03  0.00000000000E+00 0. -1.
<mgrwt>
<rscale>  0 0.15733931E+04</rscale>
<asrwt>0</asrwt>
<pdfrwt beam="1">  1        2 0.22808244E+00 0.15733931E+04</pdfrwt>
<pdfrwt beam="2">  1       -2 0.64223791E-01 0.15733931E+04</pdfrwt>
<totfact> 0.27951076E+01</totfact>
</mgrwt>
</event>
<event>
 6    1  0.2436515E-005  0.2582293E+04  0.7818608E-02  0.8374241E-01
          2   -1    0    0  501    0  0.00000000000E+00  0.00000000000E+00  0.14688561864E+04  0.14688561864E+04  0.00000000000E+00 0.  1.
         -2   -1    0    0    0  501 -0.00000000000E+00 -0.00000000000E+00 -0.11349370865E+04  0.11349370865E+04  0.00000000000E+00 0. -1.
         23    2    1    2    0    0  0.92772460590E+03 -0.89481651406E+03  0.20644513354E+03  0.13085638915E+04  0.91380122611E+02 0.  0.
         11    1    3    3    0    0  0.51291897692E+03 -0.45354269852E+03  0.14462551082E+03  0.69978810696E+03  0.00000000000E+00 0. -1.
        -11    1    3    3    0    0  0.41480562898E+03 -0.44127381554E+03  0.61819622718E+02  0.60877578456E+03  0.00000000000E+00 0.  1.
         22    1    1    2    0    0 -0.92772460590E+03  0.89481651406E+03  0.12747396644E+03  0.12952293814E+04  0.00000000000E+00 0.  1.
<mgrwt>
<rscale>  0 0.25822931E+04</rscale>
<asrwt>0</asrwt>
<pdfrwt beam="1">  1        2 0.22597788E+00 0.25822931E+04</pdfrwt>
<pdfrwt beam="2">  1       -2 0.17460571E+00 0.25822931E+04</pdfrwt>
<totfact> 0.23160120E+00</totfact>
</mgrwt>
</event>
<event>
 6    1  0.2436515E-005  0.1334906E+04  0.7818608E-02  0.9002333E-01
         -2   -1    0    0    0  501 -0.00000000000E+00  0.00000000000E+00  0.10870117877E+04  0.10870117877E+04  0.00000000000E+00 0. -1.
          2   -1    0    0  501    0  0.00000000000E+00 -0.00000000000E+00 -0.40983329043E+03  0.40983329043E+03  0.00000000000E+00 0.  1.
         23    2    1    2    0    0 -0.28839308478E+03  0.10142528415E+03  0.10016224532E+04  0.10510631357E+04  0.89601990705E+02 0.  0.
         13    1    3    3    0    0 -0.27584839103E+02  0.42839409734E+02  0.14402483911E+03  0.15277202838E+03  0.00000000000E+00 0. -1.
        -13    1    3    3    0    0 -0.26080824567E+03  0.58585874420E+02  0.85759761410E+03  0.89829110727E+03  0.00000000000E+00 0.  1.
         22    1    1    2    0    0  0.28839308478E+03 -0.10142528415E+03 -0.32444395600E+03  0.44578194243E+03  0.00000000000E+00 0.  1.
<mgrwt>
<rscale>  0 0.13349062E+04</rscale>
<asrwt>0</asrwt>
<pdfrwt beam="1">  1        2 0.63051276E-01 0.13349062E+04</pdfrwt>
<pdfrwt beam="2">  1       -2 0.16723258E+00 0.13349062E+04</pdfrwt>
<totfact> 0.16855354E+01</totfact>
</mgrwt>
</event>
<event>
 6    1  0.2436515E-005  0.1385182E+04  0.7818608E-02  0.8964615E-01
         -1   -1    0    0    0  501 -0.00000000000E+00  0.00000000000E+00  0.29445719707E+03  0.29445719707E+03  0.00000000000E+00 0. -1.
          1   -1    0    0  501    0  0.00000000000E+00 -0.00000000000E+00 -0.16290389493E+04  0.16290389493E+04  0.00000000000E+00 0.  1.
         23    2    1    2    0    0  0.44232465872E+03  0.50875874562E+03 -0.87342752231E+03  0.11067037684E+04  0.86203418169E+02 0.  0.
         13    1    3    3    0    0  0.35511442334E+03  0.42415469648E+03 -0.76358940677E+03  0.94291157716E+03  0.00000000000E+00 0. -1.
        -13    1    3    3    0    0  0.87210235378E+02  0.84604049142E+02 -0.10983811554E+03  0.16379219124E+03  0.00000000000E+00 0.  1.
         22    1    1    2    0    0 -0.44232465872E+03 -0.50875874562E+03 -0.46115422995E+03  0.81679237800E+03  0.00000000000E+00 0. -1.
<mgrwt>
<rscale>  0 0.13851819E+04</rscale>
<asrwt>0</asrwt>
<pdfrwt beam="1">  1        1 0.25062138E+00 0.13851819E+04</pdfrwt>
<pdfrwt beam="2">  1       -1 0.45301107E-01 0.13851819E+04</pdfrwt>
<totfact> 0.25165263E+01</totfact>
</mgrwt>
</event>
<event>
 6    1  0.2436515E-005  0.2109181E+04  0.7818608E-02  0.8557210E-01
         -2   -1    0    0    0  501 -0.00000000000E+00  0.00000000000E+00  0.34630203788E+03  0.34630203788E+03  0.00000000000E+00 0. -1.
          2   -1    0    0  501    0  0.00000000000E+00 -0.00000000000E+00 -0.32115342819E+04  0.32115342819E+04  0.00000000000E+00 0.  1.
         23    2    1    2    0    0  0.44264849034E+03  0.73459991752E+03 -0.24646991793E+04  0.26112627829E+04  0.91523505361E+02 0.  0.
         13    1    3    3    0    0  0.21419340972E+03  0.28749819190E+03 -0.94177139737E+03  0.10077040200E+04  0.00000000000E+00 0. -1.
        -13    1    3    3    0    0  0.22845508063E+03  0.44710172562E+03 -0.15229277819E+04  0.16035587628E+04  0.00000000000E+00 0.  1.
         22    1    1    2    0    0 -0.44264849034E+03 -0.73459991752E+03 -0.40053306472E+03  0.94657353689E+03  0.00000000000E+00 0.  1.
<mgrwt>
<rscale>  0 0.21091808E+04</rscale>
<asrwt>0</asrwt>
<pdfrwt beam="1">  1        2 0.49408218E+00 0.21091808E+04</pdfrwt>
<pdfrwt beam="2">  1       -2 0.53277238E-01 0.21091808E+04</pdfrwt>
<totfact> 0.39082998E+00</totfact>
</mgrwt>
</event>
<event>
 6    1  0.2436515E-005  0.2174438E+04  0.7818608E-02  0.8529144E-01
         -4   -1    0    0    0  501 -0.00000000000E+00  0.00000000000E+00  0.68143964056E+03  0.68143964056E+03  0.00000000000E+00 0. -1.
          4   -1    0    0  501    0  0.00000000000E+00 -0.00000000000E+00 -0.17346290060E+04  0.17346290060E+04  0.00000000000E+00 0.  1.
         23    2    1    2    0    0 -0.73228401668E+03 -0.47564756927E+03 -0.12439855251E+04  0.15222657232E+04  0.85512888245E+02 0.  0.
         11    1    3    3    0    0 -0.10023554279E+03 -0.10248066199E+03 -0.19796422984E+03  0.24441621554E+03  0.00000000000E+00 0. -1.
        -11    1    3    3    0    0 -0.63204847388E+03 -0.37316690727E+03 -0.10460212953E+04  0.12778495077E+04  0.00000000000E+00 0.  1.
         22    1    1    2    0    0  0.73228401668E+03  0.47564756927E+03  0.19079615971E+03  0.89380292335E+03  0.00000000000E+00 0. -1.
<mgrwt>
<rscale>  0 0.21744378E+04</rscale>
<asrwt>0</asrwt>
<pdfrwt beam="1">  1        4 0.26686600E+00 0.21744378E+04</pdfrwt>
<pdfrwt beam="2">  1       -4 0.10483687E+00 0.21744378E+04</pdfrwt>
<totfact> 0.66983458E-02</totfact>
</mgrwt>
</event>
<event>
 6    1  0.2436515E-005  0.1376735E+04  0.7818608E-02  0.8970833E-01
          2   -1    0    0  501    0  0.00000000000E+00  0.00000000000E+00  0.17989974546E+04  0.17989974546E+04  0.00000000000E+00 0.  1.
         -2   -1    0    0    0  501 -0.00000000000E+00 -0.00000000000E+00 -0.26339649039E+03  0.26339649039E+03  0.00000000000E+00 0. -1.
         23    2    1    2    0    0 -0.14821649918E+03  0.10399423714E+03  0.17615355622E+04  0.17728609166E+04  0.85119684810E+02 0.  0.
         13    1    3    3    0    0 -0.75452771861E+02  0.33801631335E+02  0.11551370390E+04  0.11580920731E+04  0.00000000000E+00 0.  1.
        -13    1    3    3    0    0 -0.72763727317E+02  0.70192605806E+02  0.60639852321E+03  0.61476884344E+03  0.00000000000E+00 0. -1.
         22    1    1    2    0    0  0.14821649918E+03 -0.10399423714E+03 -0.22593459797E+03  0.28953302842E+03  0.00000000000E+00 0. -1.
<mgrwt>
<rscale>  0 0.13767347E+04</rscale>
<asrwt>0</asrwt>
<pdfrwt beam="1">  1        2 0.27676883E+00 0.13767347E+04</pdfrwt>
<pdfrwt beam="2">  1       -2 0.40522538E-01 0.13767347E+04</pdfrwt>
<totfact> 0.48566503E+01</totfact>
</mgrwt>
</event>
<event>
 6    1  0.2436515E-005  0.1740805E+04  0.7818608E-02  0.8738428E-01
         -2   -1    0    0    0  501 -0.00000000000E+00  0.00000000000E+00  0.16181855966E+04  0.16181855966E+04  0.00000000000E+00 0. -1.
          2   -1    0    0  501    0  0.00000000000E+00 -0.00000000000E+00 -0.46817875954E+03  0.46817875954E+03  0.00000000000E+00 0.  1.
         23    2    1    2    0    0  0.26811642353E+03 -0.24252713393E+03  0.15227397199E+04  0.15670998482E+04  0.79748683730E+02 0.  0.
         11    1    3    3    0    0  0.18985327451E+03 -0.13895567854E+03  0.85056091163E+03  0.88250031775E+03  0.00000000000E+00 0.  1.
        -11    1    3    3    0    0  0.78263149016E+02 -0.10357145539E+03  0.67217880825E+03  0.68459953047E+03  0.00000000000E+00 0. -1.
         22    1    1    2    0    0 -0.26811642353E+03  0.24252713393E+03 -0.37273288281E+03  0.51926450792E+03  0.00000000000E+00 0.  1.
<mgrwt>
<rscale>  0 0.17408046E+04</rscale>
<asrwt>0</asrwt>
<pdfrwt beam="1">  1        2 0.72027502E-01 0.17408046E+04</pdfrwt>
<pdfrwt beam="2">  1       -2 0.24895163E+00 0.17408046E+04</pdfrwt>
<totfact> 0.41111269E+00</totfact>
</mgrwt>
</event>
<event>
 6    1  0.2436515E-005  0.3475759E+04  0.7818608E-02  0.8119559E-01
          2   -1    0    0  501    0  0.00000000000E+00  0.00000000000E+00  0.34293779387E+04  0.34293779387E+04  0.00000000000E+00 0.  1.
         -2   -1    0    0    0  501 -0.00000000000E+00 -0.00000000000E+00 -0.88069176831E+03  0.88069176831E+03  0.00000000000E+00 0. -1.
         23    2    1    2    0    0  0.13525946914E+04 -0.77834174428E+03  0.33013033635E+03  0.15976320102E+04  0.90076251551E+02 0.  0.
         13    1    3    3    0    0  0.11254742764E+04 -0.66948054801E+03  0.24881404823E+03  0.13329684848E+04  0.00000000000E+00 0.  1.
        -13    1    3    3    0    0  0.22712041500E+03 -0.10886119627E+03  0.81316288113E+02  0.26466352540E+03  0.00000000000E+00 0. -1.
         22    1    1    2    0    0 -0.13525946914E+04  0.77834174428E+03  0.22185558340E+04  0.27124376967E+04  0.00000000000E+00 0.  1.
<mgrwt>
<rscale>  0 0.34757589E+04</rscale>
<asrwt>0</asrwt>
<pdfrwt beam="1">  1        2 0.52759660E+00 0.34757589E+04</pdfrwt>
<pdfrwt beam="2">  1       -2 0.13549104E+00 0.34757589E+04</pdfrwt>
<totfact> 0.29248200E-01</totfact>
</mgrwt>
</event>
<event>
 6    1  0.2436515E-005  0.1043374E+04  0.7818608E-02  0.9262212E-01
         -2   -1    0    0    0  501 -0.00000000000E+00  0.00000000000E+00  0.92455457832E+03  0.92455457832E+03  0.00000000000E+00 0. -1.
          2   -1    0    0  501    0  0.00000000000E+00 -0.00000000000E+00 -0.29436601138E+03  0.29436601138E+03  0.00000000000E+00 0.  1.
         23    2    1    2    0    0 -0.26813480905E+03  0.12358285063E+03 -0.17950553458E+03  0.35707748633E+03  0.90072734520E+02 0.  0.
         13    1    3    3    0    0 -0.18358222274E+03  0.66443804817E+02 -0.70033001285E+02  0.20741705083E+03  0.00000000000E+00 0.  1.
        -13    1    3    3    0    0 -0.84552586307E+02  0.57139045814E+02 -0.10947253330E+03  0.14966043550E+03  0.00000000000E+00 0. -1.
         22    1    1    2    0    0  0.26813480905E+03 -0.12358285063E+03  0.80969410152E+03  0.86184310338E+03  0.00000000000E+00 0. -1.
<mgrwt>
<rscale>  0 0.10433742E+04</rscale>
<asrwt>0</asrwt>
<pdfrwt beam="1">  1        2 0.45287079E-01 0.10433742E+04</pdfrwt>
<pdfrwt beam="2">  1       -2 0.14223916E+00 0.10433742E+04</pdfrwt>
<totfact> 0.38455747E+01</totfact>
</mgrwt>
</event>
<event>
 6    1  0.2436515E-005  0.2732977E+04  0.7818608E-02  0.8324384E-01
          2   -1    0    0  501    0  0.00000000000E+00  0.00000000000E+00  0.18488189553E+04  0.18488189553E+04  0.00000000000E+00 0.  1.
         -2   -1    0    0    0  501 -0.00000000000E+00 -0.00000000000E+00 -0.10099912832E+04  0.10099912832E+04  0.00000000000E+00 0. -1.
         23    2    1    2    0    0 -0.10846601703E+04 -0.50845488158E+03  0.11045209933E+04  0.16317784571E+04  0.87864991348E+02 0.  0.
         13    1    3    3    0    0 -0.33419762972E+03 -0.13110819164E+03  0.37624655770E+03  0.52003738885E+03  0.00000000000E+00 0.  1.
        -13    1    3    3    0    0 -0.75046254059E+03 -0.37734668995E+03  0.72827443556E+03  0.11117410682E+04  0.00000000000E+00 0. -1.
         22    1    1    2    0    0  0.10846601703E+04  0.50845488158E+03 -0.26569332114E+03  0.12270317814E+04  0.00000000000E+00 0. -1.
<mgrwt>
<rscale>  0 0.27329772E+04</rscale>
<asrwt>0</asrwt>
<pdfrwt beam="1">  1        2 0.28443369E+00 0.27329772E+04</pdfrwt>
<pdfrwt beam="2">  1       -2 0.15538327E+00 0.27329772E+04</pdfrwt>
<totfact> 0.19345361E+00</totfact>
</mgrwt>
</event>
<event>
 6    1  0.2436515E-005  0.9184788E+03  0.7818608E-02  0.9402772E-01
          2   -1    0    0  501    0  0.00000000000E+00  0.00000000000E+00  0.12604607951E+04  0.12604607951E+04  0.00000000000E+00 0.  1.
         -2   -1    0    0    0  501 -0.00000000000E+00 -0.00000000000E+00 -0.16732042143E+03  0.16732042143E+03  0.00000000000E+00 0. -1.
         23    2    1    2    0    0 -0.29608481072E+03 -0.23131000289E+03  0.15310176486E+03  0.41543586112E+03  0.89309975493E+02 0.  0.
         11    1    3    3    0    0 -0.14185384577E+03 -0.55505332887E+02  0.60649988059E+02  0.16395663021E+03  0.00000000000E+00 0.  1.
        -11    1    3    3    0    0 -0.15423096496E+03 -0.17580467000E+03  0.92451776800E+02  0.25147923091E+03  0.00000000000E+00 0. -1.
         22    1    1    2    0    0  0.29608481072E+03  0.23131000289E+03  0.94003860876E+03  0.10123453554E+04  0.00000000000E+00 0.  1.
<mgrwt>
<rscale>  0 0.91847881E+03</rscale>
<asrwt>0</asrwt>
<pdfrwt beam="1">  1        2 0.19391704E+00 0.91847881E+03</pdfrwt>
<pdfrwt beam="2">  1       -2 0.25741604E-01 0.91847881E+03</pdfrwt>
<totfact> 0.23732613E+02</totfact>
</mgrwt>
</event>
<event>
 6    1  0.2436515E-005  0.1072724E+04  0.7818608E-02  0.9232192E-01
         -2   -1    0    0    0  501 -0.00000000000E+00  0.00000000000E+00  0.28103482310E+03  0.28103482310E+03  0.00000000000E+00 0. -1.
          2   -1    0    0  501    0  0.00000000000E+00 -0.00000000000E+00 -0.10236610731E+04  0.10236610731E+04  0.00000000000E+00 0.  1.
         23    2    1    2    0    0  0.49686465705E+03 -0.57304698209E+02 -0.59633252331E+03  0.78358154186E+03  0.90715150438E+02 0.  0.
         11    1    3    3    0    0  0.20347698668E+02  0.14597544515E+02 -0.43476868934E+02  0.50173252628E+02  0.00000000000E+00 0.  1.
        -11    1    3    3    0    0  0.47651695838E+03 -0.71902242724E+02 -0.55285565438E+03  0.73340828923E+03  0.00000000000E+00 0. -1.
         22    1    1    2    0    0 -0.49686465705E+03  0.57304698209E+02 -0.14629372671E+03  0.52111435437E+03  0.00000000000E+00 0. -1.
<mgrwt>
<rscale>  0 0.10727244E+04</rscale>
<asrwt>0</asrwt>
<pdfrwt beam="1">  1        2 0.15748632E+00 0.10727244E+04</pdfrwt>
<pdfrwt beam="2">  1       -2 0.43236126E-01 0.10727244E+04</pdfrwt>
<totfact> 0.12262172E+02</totfact>
</mgrwt>
</event>
<event>
 6    1  0.2436515E-005  0.1534184E+04  0.7818608E-02  0.8862034E-01
          2   -1    0    0  501    0  0.00000000000E+00  0.00000000000E+00  0.19521579253E+04  0.19521579253E+04  0.00000000000E+00 0. -1.
         -2   -1    0    0    0  501 -0.00000000000E+00 -0.00000000000E+00 -0.30142566631E+03  0.30142566631E+03  0.00000000000E+00 0.  1.
         23    2    1    2    0    0 -0.33085714037E+03  0.67781657707E+03  0.64774441715E+03  0.99863882375E+03  0.93834486495E+02 0.  0.
         11    1    3    3    0    0 -0.28531936097E+03  0.53026019466E+03  0.55244108807E+03  0.81717450253E+03  0.00000000000E+00 0. -1.
        -11    1    3    3    0    0 -0.45537779401E+02  0.14755638241E+03  0.95303329079E+02  0.18146432122E+03  0.00000000000E+00 0.  1.
         22    1    1    2    0    0  0.33085714037E+03 -0.67781657707E+03  0.10029878418E+04  0.12549447678E+04  0.00000000000E+00 0.  1.
<mgrwt>
<rscale>  0 0.15341845E+04</rscale>
<asrwt>0</asrwt>
<pdfrwt beam="1">  1        2 0.30033198E+00 0.15341845E+04</pdfrwt>
<pdfrwt beam="2">  1       -2 0.46373181E-01 0.15341845E+04</pdfrwt>
<totfact> 0.30187268E+01</totfact>
</mgrwt>
</event>
<event>
 6    1  0.2436515E-005  0.1345390E+04  0.7818608E-02  0.8994325E-01
         -2   -1    0    0    0  501 -0.00000000000E+00  0.00000000000E+00  0.21140999082E+03  0.21140999082E+03  0.00000000000E+00 0. -1.
          2   -1    0    0  501    0  0.00000000000E+00 -0.00000000000E+00 -0.21404786090E+04  0.21404786090E+04  0.00000000000E+00 0.  1.
         23    2    1    2    0    0  0.51207494940E+03 -0.30788848181E+03 -0.44099274551E+03  0.74833446170E+03  0.92270222402E+02 0.  0.
         11    1    3    3    0    0  0.37374491587E+03 -0.22620859999E+03 -0.37082849673E+03  0.57303522303E+03  0.00000000000E+00 0. -1.
        -11    1    3    3    0    0  0.13833003353E+03 -0.81679881824E+02 -0.70164248777E+02  0.17529923867E+03  0.00000000000E+00 0.  1.
         22    1    1    2    0    0 -0.51207494940E+03  0.30788848181E+03 -0.14880758726E+04  0.16035541381E+04  0.00000000000E+00 0. -1.
<mgrwt>
<rscale>  0 0.13453900E+04</rscale>
<asrwt>0</asrwt>
<pdfrwt beam="1">  1        2 0.32930441E+00 0.13453900E+04</pdfrwt>
<pdfrwt beam="2">  1       -2 0.32524613E-01 0.13453900E+04</pdfrwt>
<totfact> 0.48074365E+01</totfact>
</mgrwt>
</event>
<event>
 6    1  0.2436515E-005  0.4811926E+04  0.7818608E-02  0.7858193E-01
         -2   -1    0    0    0  501 -0.00000000000E+00  0.00000000000E+00  0.22635772768E+04  0.22635772768E+04  0.00000000000E+00 0. -1.
          2   -1    0    0  501    0  0.00000000000E+00 -0.00000000000E+00 -0.25573051359E+04  0.25573051359E+04  0.00000000000E+00 0.  1.
         23    2    1    2    0    0  0.20064239205E+03  0.49836637001E+03  0.22017854402E+04  0.22681949983E+04  0.90680852435E+02 0.  0.
         11    1    3    3    0    0  0.38476285233E+02  0.20677912748E+03  0.78997563559E+03  0.81749589412E+03  0.00000000000E+00 0. -1.
        -11    1    3    3    0    0  0.16216610681E+03  0.29158724253E+03  0.14118098047E+04  0.14506991041E+04  0.00000000000E+00 0.  1.
         22    1    1    2    0    0 -0.20064239205E+03 -0.49836637001E+03 -0.24955132994E+04  0.25526874144E+04  0.00000000000E+00 0.  1.
<mgrwt>
<rscale>  0 0.48119259E+04</rscale>
<asrwt>0</asrwt>
<pdfrwt beam="1">  1        2 0.39343156E+00 0.48119259E+04</pdfrwt>
<pdfrwt beam="2">  1       -2 0.34824266E+00 0.48119259E+04</pdfrwt>
<totfact> 0.38021655E-02</totfact>
</mgrwt>
</event>
<event>
 6    1  0.2436515E-005  0.3364330E+04  0.7818608E-02  0.8146717E-01
          2   -1    0    0  501    0  0.00000000000E+00  0.00000000000E+00  0.35397845068E+04  0.35397845068E+04  0.00000000000E+00 0. -1.
         -2   -1    0    0    0  501 -0.00000000000E+00 -0.00000000000E+00 -0.79939320668E+03  0.79939320668E+03  0.00000000000E+00 0.  1.
         23    2    1    2    0    0 -0.48729918142E+03  0.66979040789E+03  0.32576792261E+04  0.33626192252E+04  0.93029194734E+02 0.  0.
         11    1    3    3    0    0 -0.26581549765E+03  0.33336433777E+03  0.15031633424E+04  0.15624627017E+04  0.00000000000E+00 0. -1.
        -11    1    3    3    0    0 -0.22148368377E+03  0.33642607012E+03  0.17545158837E+04  0.18001565235E+04  0.00000000000E+00 0.  1.
         22    1    1    2    0    0  0.48729918142E+03 -0.66979040789E+03 -0.51728792594E+03  0.97655848828E+03  0.00000000000E+00 0.  1.
<mgrwt>
<rscale>  0 0.33643304E+04</rscale>
<asrwt>0</asrwt>
<pdfrwt beam="1">  1        2 0.54458222E+00 0.33643304E+04</pdfrwt>
<pdfrwt beam="2">  1       -2 0.12298357E+00 0.33643304E+04</pdfrwt>
<totfact> 0.31578301E-01</totfact>
</mgrwt>
</event>
<event>
 6    1  0.2436515E-005  0.2823352E+04  0.7818608E-02  0.8296055E-01
         -2   -1    0    0    0  501 -0.00000000000E+00  0.00000000000E+00  0.56713467760E+03  0.56713467760E+03  0.00000000000E+00 0. -1.
          2   -1    0    0  501    0  0.00000000000E+00 -0.00000000000E+00 -0.35138553846E+04  0.35138553846E+04  0.00000000000E+00 0.  1.
         23    2    1    2    0    0  0.87414427443E+03  0.93871353401E+03 -0.23218917602E+04  0.26542025783E+04  0.91097032295E+02 0.  0.
         13    1    3    3    0    0  0.23250090581E+03  0.30625310588E+03 -0.72762802649E+03  0.82297641582E+03  0.00000000000E+00 0.  1.
        -13    1    3    3    0    0  0.64164336863E+03  0.63246042812E+03 -0.15942637337E+04  0.18312261625E+04  0.00000000000E+00 0. -1.
         22    1    1    2    0    0 -0.87414427443E+03 -0.93871353401E+03 -0.62482894687E+03  0.14267874839E+04  0.00000000000E+00 0. -1.
<mgrwt>
<rscale>  0 0.28233521E+04</rscale>
<asrwt>0</asrwt>
<pdfrwt beam="1">  1        2 0.54059314E+00 0.28233521E+04</pdfrwt>
<pdfrwt beam="2">  1       -2 0.87251489E-01 0.28233521E+04</pdfrwt>
<totfact> 0.78345567E-01</totfact>
</mgrwt>
</event>
<event>
 6    1  0.2436515E-005  0.3750986E+04  0.7818608E-02  0.8056756E-01
          1   -1    0    0  501    0  0.00000000000E+00  0.00000000000E+00  0.32486993869E+04  0.32486993869E+04  0.00000000000E+00 0.  1.
         -1   -1    0    0    0  501 -0.00000000000E+00 -0.00000000000E+00 -0.10827329255E+04  0.10827329255E+04  0.00000000000E+00 0. -1.
         23    2    1    2    0    0 -0.90452415965E+03 -0.27475755489E+03  0.29529557263E+04  0.31013885033E+04  0.70763391477E+02 0.  0.
         13    1    3    3    0    0 -0.58350801764E+03 -0.18070137521E+03  0.20158793504E+04  0.21063960095E+04  0.00000000000E+00 0. -1.
        -13    1    3    3    0    0 -0.32101614201E+03 -0.94056179688E+02  0.93707637588E+03  0.99499249374E+03  0.00000000000E+00 0.  1.
         22    1    1    2    0    0  0.90452415965E+03  0.27475755489E+03 -0.78698926488E+03  0.12300438091E+04  0.00000000000E+00 0. -1.
<mgrwt>
<rscale>  0 0.37509859E+04</rscale>
<asrwt>0</asrwt>
<pdfrwt beam="1">  1        1 0.49979990E+00 0.37509859E+04</pdfrwt>
<pdfrwt beam="2">  1       -1 0.16657430E+00 0.37509859E+04</pdfrwt>
<totfact> 0.81319455E-02</totfact>
</mgrwt>
</event>
<event>
 6    1  0.2436515E-005  0.1372071E+04  0.7818608E-02  0.8974287E-01
          2   -1    0    0  501    0  0.00000000000E+00  0.00000000000E+00  0.61823961581E+03  0.61823961581E+03  0.00000000000E+00 0.  1.
         -2   -1    0    0    0  501 -0.00000000000E+00 -0.00000000000E+00 -0.76126603752E+03  0.76126603752E+03  0.00000000000E+00 0. -1.
         23    2    1    2    0    0  0.38001506685E+03 -0.23804163892E+03 -0.58976155311E+03  0.74653839468E+03  0.91791134157E+02 0.  0.
         13    1    3    3    0    0  0.13553020531E+03 -0.85076476550E+02 -0.14200448330E+03  0.21394325577E+03  0.00000000000E+00 0.  1.
        -13    1    3    3    0    0  0.24448486154E+03 -0.15296516237E+03 -0.44775706981E+03  0.53259513891E+03  0.00000000000E+00 0. -1.
         22    1    1    2    0    0 -0.38001506685E+03  0.23804163892E+03  0.44673513141E+03  0.63296725865E+03  0.00000000000E+00 0.  1.
<mgrwt>
<rscale>  0 0.13720712E+04</rscale>
<asrwt>0</asrwt>
<pdfrwt beam="1">  1        2 0.95113787E-01 0.13720712E+04</pdfrwt>
<pdfrwt beam="2">  1       -2 0.11711785E+00 0.13720712E+04</pdfrwt>
<totfact> 0.26294875E+01</totfact>
</mgrwt>
</event>
<event>
 6    1  0.2436515E-005  0.2551369E+04  0.7818608E-02  0.8384910E-01
          2   -1    0    0  501    0  0.00000000000E+00  0.00000000000E+00  0.99413523289E+03  0.99413523289E+03  0.00000000000E+00 0.  1.
         -2   -1    0    0    0  501 -0.00000000000E+00 -0.00000000000E+00 -0.16369718320E+04  0.16369718320E+04  0.00000000000E+00 0. -1.
         23    2    1    2    0    0 -0.66287946744E+02  0.12655902299E+04 -0.44906395677E+03  0.13490538059E+04  0.11034043635E+03 0.  0.
         11    1    3    3    0    0 -0.46609322446E+02  0.75465865619E+03 -0.32449845606E+03  0.82278877258E+03  0.00000000000E+00 0. -1.
        -11    1    3    3    0    0 -0.19678624298E+02  0.51093157375E+03 -0.12456550072E+03  0.52626503330E+03  0.00000000000E+00 0.  1.
         22    1    1    2    0    0  0.66287946744E+02 -0.12655902299E+04 -0.19377264232E+03  0.12820532590E+04  0.00000000000E+00 0.  1.
<mgrwt>
<rscale>  0 0.25513693E+04</rscale>
<asrwt>0</asrwt>
<pdfrwt beam="1">  1        2 0.15294389E+00 0.25513693E+04</pdfrwt>
<pdfrwt beam="2">  1       -2 0.25184181E+00 0.25513693E+04</pdfrwt>
<totfact> 0.14126290E+00</totfact>
</mgrwt>
</event>
<event>
 6    1  0.2436515E-005  0.2685963E+04  0.7818608E-02  0.8339574E-01
          2   -1    0    0  501    0  0.00000000000E+00  0.00000000000E+00  0.19235105469E+04  0.19235105469E+04  0.00000000000E+00 0.  1.
         -2   -1    0    0    0  501 -0.00000000000E+00 -0.00000000000E+00 -0.93766050119E+03  0.93766050119E+03  0.00000000000E+00 0. -1.
         23    2    1    2    0    0  0.94415467330E+03  0.65778979461E+03  0.12284988353E+04  0.16851634392E+04  0.80317915932E+02 0.  0.
         11    1    3    3    0    0  0.16811749364E+03  0.81194472407E+02  0.20106577285E+03  0.27437835014E+03  0.00000000000E+00 0. -1.
        -11    1    3    3    0    0  0.77603717966E+03  0.57659532221E+03  0.10274330624E+04  0.14107850891E+04  0.00000000000E+00 0.  1.
         22    1    1    2    0    0 -0.94415467330E+03 -0.65778979461E+03 -0.24264878956E+03  0.11760076089E+04  0.00000000000E+00 0. -1.
<mgrwt>
<rscale>  0 0.26859634E+04</rscale>
<asrwt>0</asrwt>
<pdfrwt beam="1">  1        2 0.29592470E+00 0.26859634E+04</pdfrwt>
<pdfrwt beam="2">  1       -2 0.14425546E+00 0.26859634E+04</pdfrwt>
<totfact> 0.21497317E+00</totfact>
</mgrwt>
</event>
<event>
 6    1  0.2436515E-005  0.2013294E+04  0.7818608E-02  0.8600430E-01
          1   -1    0    0  501    0  0.00000000000E+00  0.00000000000E+00  0.15760842264E+04  0.15760842264E+04  0.00000000000E+00 0.  1.
         -1   -1    0    0    0  501 -0.00000000000E+00 -0.00000000000E+00 -0.64294695401E+03  0.64294695401E+03  0.00000000000E+00 0. -1.
         23    2    1    2    0    0  0.77139245271E+02 -0.93183387560E+03  0.87239163444E+03  0.12820387218E+04  0.91056496461E+02 0.  0.
         11    1    3    3    0    0  0.90792485734E+02 -0.80021911698E+03  0.77554633691E+03  0.11180635185E+04  0.00000000000E+00 0.  1.
        -11    1    3    3    0    0 -0.13653240463E+02 -0.13161475861E+03  0.96845297532E+02  0.16397520335E+03  0.00000000000E+00 0. -1.
         22    1    1    2    0    0 -0.77139245271E+02  0.93183387560E+03  0.60745637925E+02  0.93699245856E+03  0.00000000000E+00 0. -1.
<mgrwt>
<rscale>  0 0.20132944E+04</rscale>
<asrwt>0</asrwt>
<pdfrwt beam="1">  1        1 0.24247450E+00 0.20132944E+04</pdfrwt>
<pdfrwt beam="2">  1       -1 0.98914916E-01 0.20132944E+04</pdfrwt>
<totfact> 0.52472722E+00</totfact>
</mgrwt>
</event>
<event>
 6    1  0.2436515E-005  0.1445935E+04  0.7818608E-02  0.8921223E-01
          2   -1    0    0  501    0  0.00000000000E+00  0.00000000000E+00  0.13311302496E+04  0.13311302496E+04  0.00000000000E+00 0.  1.
         -2   -1    0    0    0  501 -0.00000000000E+00 -0.00000000000E+00 -0.39266035512E+03  0.39266035512E+03  0.00000000000E+00 0. -1.
         23    2    1    2    0    0  0.54626637378E+03 -0.46842202586E+03  0.44362955173E+03  0.85046757727E+03  0.93068659521E+02 0.  0.
         13    1    3    3    0    0  0.49941554636E+03 -0.44950988478E+03  0.39050763169E+03  0.77715586266E+03  0.00000000000E+00 0.  1.
        -13    1    3    3    0    0  0.46850827425E+02 -0.18912141084E+02  0.53121920043E+02  0.73311714615E+02  0.00000000000E+00 0. -1.
         22    1    1    2    0    0 -0.54626637378E+03  0.46842202586E+03  0.49484034274E+03  0.87332302743E+03  0.00000000000E+00 0. -1.
<mgrwt>
<rscale>  0 0.14459351E+04</rscale>
<asrwt>0</asrwt>
<pdfrwt beam="1">  1        2 0.20478927E+00 0.14459351E+04</pdfrwt>
<pdfrwt beam="2">  1       -2 0.60409286E-01 0.14459351E+04</pdfrwt>
<totfact> 0.39264091E+01</totfact>
</mgrwt>
</event>
<event>
 6    1  0.2436515E-005  0.1469352E+04  0.7818608E-02  0.8905093E-01
         -2   -1    0    0    0  501 -0.00000000000E+00  0.00000000000E+00  0.47432637311E+03  0.47432637311E+03  0.00000000000E+00 0. -1.
          2   -1    0    0  501    0  0.00000000000E+00 -0.00000000000E+00 -0.11379276756E+04  0.11379276756E+04  0.00000000000E+00 0.  1.
         23    2    1    2    0    0 -0.55809843918E+03  0.16809162187E+03  0.15232503109E+03  0.60952554957E+03  0.92681278203E+02 0.  0.
         13    1    3    3    0    0 -0.55978862560E+03  0.16374785268E+03  0.14526305302E+03  0.60106407245E+03  0.00000000000E+00 0.  1.
        -13    1    3    3    0    0  0.16901864255E+01  0.43437691850E+01  0.70619780697E+01  0.84614771254E+01  0.00000000000E+00 0. -1.
         22    1    1    2    0    0  0.55809843918E+03 -0.16809162187E+03 -0.81592633358E+03  0.10027284991E+04  0.00000000000E+00 0.  1.
<mgrwt>
<rscale>  0 0.14693524E+04</rscale>
<asrwt>0</asrwt>
<pdfrwt beam="1">  1        2 0.17506580E+00 0.14693524E+04</pdfrwt>
<pdfrwt beam="2">  1       -2 0.72973289E-01 0.14693524E+04</pdfrwt>
<totfact> 0.33930727E+01</totfact>
</mgrwt>
</event>
<event>
 6    1  0.2436515E-005  0.3504198E+04  0.7818608E-02  0.8112796E-01
          2   -1    0    0  501    0  0.00000000000E+00  0.00000000000E+00  0.25589811680E+04  0.25589811680E+04  0.00000000000E+00 0. -1.
         -2   -1    0    0    0  501 -0.00000000000E+00 -0.00000000000E+00 -0.11996377581E+04  0.11996377581E+04  0.00000000000E+00 0.  1.
         23    2    1    2    0    0 -0.44701994077E+03 -0.11532610636E+04 -0.64914211731E+03  0.13998370325E+04  0.91215791949E+02 0.  0.
         13    1    3    3    0    0 -0.14812059577E+03 -0.50601156527E+03 -0.28203238173E+03  0.59793785582E+03  0.00000000000E+00 0. -1.
        -13    1    3    3    0    0 -0.29889934500E+03 -0.64724949837E+03 -0.36710973558E+03  0.80189917667E+03  0.00000000000E+00 0.  1.
         22    1    1    2    0    0  0.44701994077E+03  0.11532610636E+04  0.20084855273E+04  0.23587818936E+04  0.00000000000E+00 0. -1.
<mgrwt>
<rscale>  0 0.35041977E+04</rscale>
<asrwt>0</asrwt>
<pdfrwt beam="1">  1        2 0.39368941E+00 0.35041977E+04</pdfrwt>
<pdfrwt beam="2">  1       -2 0.18455966E+00 0.35041977E+04</pdfrwt>
<totfact> 0.44568270E-01</totfact>
</mgrwt>
</event>
<event>
 6    1  0.2436515E-005  0.4295728E+04  0.7818608E-02  0.7947408E-01
         -2   -1    0    0    0  501 -0.00000000000E+00  0.00000000000E+00  0.18269597974E+04  0.18269597974E+04  0.00000000000E+00 0. -1.
          2   -1    0    0  501    0  0.00000000000E+00 -0.00000000000E+00 -0.25251351060E+04  0.25251351060E+04  0.00000000000E+00 0.  1.
         23    2    1    2    0    0  0.11616859181E+04 -0.76005614965E+03  0.13099580761E+04  0.19108249032E+04  0.89789345687E+02 0.  0.
         11    1    3    3    0    0  0.26674894479E+03 -0.13354469995E+03  0.26274269135E+03  0.39752095327E+03  0.00000000000E+00 0.  1.
        -11    1    3    3    0    0  0.89493697335E+03 -0.62651144970E+03  0.10472153847E+04  0.15133039499E+04  0.00000000000E+00 0. -1.
         22    1    1    2    0    0 -0.11616859181E+04  0.76005614965E+03 -0.20081333847E+04  0.24412700002E+04  0.00000000000E+00 0.  1.
<mgrwt>
<rscale>  0 0.42957283E+04</rscale>
<asrwt>0</asrwt>
<pdfrwt beam="1">  1        2 0.38848232E+00 0.42957283E+04</pdfrwt>
<pdfrwt beam="2">  1       -2 0.28107074E+00 0.42957283E+04</pdfrwt>
<totfact> 0.10756039E-01</totfact>
</mgrwt>
</event>
<event>
 6    1  0.2436515E-005  0.2562596E+04  0.7818608E-02  0.8381019E-01
          1   -1    0    0  501    0  0.00000000000E+00  0.00000000000E+00  0.11857698403E+04  0.11857698403E+04  0.00000000000E+00 0.  1.
         -1   -1    0    0    0  501 -0.00000000000E+00 -0.00000000000E+00 -0.13845223535E+04  0.13845223535E+04  0.00000000000E+00 0. -1.
         23    2    1    2    0    0 -0.48132058303E+03  0.96326122129E+03  0.59399321072E+03  0.12331357082E+04  0.90851837822E+02 0.  0.
         13    1    3    3    0    0 -0.80016824191E+02  0.10199844135E+03  0.87472197774E+02  0.15638976813E+03  0.00000000000E+00 0. -1.
        -13    1    3    3    0    0 -0.40130375884E+03  0.86126277994E+03  0.50652101295E+03  0.10767459401E+04  0.00000000000E+00 0.  1.
         22    1    1    2    0    0  0.48132058303E+03 -0.96326122129E+03 -0.79274572389E+03  0.13371564855E+04  0.00000000000E+00 0. -1.
<mgrwt>
<rscale>  0 0.25625962E+04</rscale>
<asrwt>0</asrwt>
<pdfrwt beam="1">  1        1 0.18242613E+00 0.25625962E+04</pdfrwt>
<pdfrwt beam="2">  1       -1 0.21300344E+00 0.25625962E+04</pdfrwt>
<totfact> 0.11863957E+00</totfact>
</mgrwt>
</event>
<event>
 6    1  0.3305947E-005  0.4525386E+04  0.7818608E-02  0.7906207E-01
         -2   -1    0    0    0  501 -0.00000000000E+00  0.00000000000E+00  0.19263465037E+04  0.19263465037E+04  0.00000000000E+00 0. -1.
          2   -1    0    0  501    0  0.00000000000E+00 -0.00000000000E+00 -0.26577672922E+04  0.26577672922E+04  0.00000000000E+00 0.  1.
         23    2    1    2    0    0 -0.20891905907E+04  0.26478307659E+03 -0.12015917899E+04  0.24263630752E+04  0.92668986052E+02 0.  0.
         11    1    3    3    0    0 -0.14589642432E+04  0.15480990835E+03 -0.87149610952E+03  0.17064724550E+04  0.00000000000E+00 0. -1.
        -11    1    3    3    0    0 -0.63022634752E+03  0.10997316824E+03 -0.33009568034E+03  0.71989062018E+03  0.00000000000E+00 0.  1.
         22    1    1    2    0    0  0.20891905907E+04 -0.26478307659E+03  0.47017100133E+03  0.21577507207E+04  0.00000000000E+00 0. -1.
<mgrwt>
<rscale>  0 0.45253865E+04</rscale>
<asrwt>0</asrwt>
<pdfrwt beam="1">  1        2 0.40888728E+00 0.45253865E+04</pdfrwt>
<pdfrwt beam="2">  1       -2 0.29636100E+00 0.45253865E+04</pdfrwt>
<totfact> 0.71170647E-02</totfact>
</mgrwt>
</event>
<event>
 6    1  0.2436515E-005  0.2093095E+04  0.7818608E-02  0.8564291E-01
         -2   -1    0    0    0  501 -0.00000000000E+00  0.00000000000E+00  0.62608575383E+03  0.62608575383E+03  0.00000000000E+00 0. -1.
          2   -1    0    0  501    0  0.00000000000E+00 -0.00000000000E+00 -0.17493802754E+04  0.17493802754E+04  0.00000000000E+00 0.  1.
         23    2    1    2    0    0  0.72452057669E+03  0.48538514708E+03 -0.12157279141E+04  0.14984981055E+04  0.83506909972E+02 0.  0.
         13    1    3    3    0    0  0.50131304221E+03  0.35963634516E+03 -0.80176457783E+03  0.10116716391E+04  0.00000000000E+00 0. -1.
        -13    1    3    3    0    0  0.22320753448E+03  0.12574880191E+03 -0.41396333630E+03  0.48682646644E+03  0.00000000000E+00 0.  1.
         22    1    1    2    0    0 -0.72452057669E+03 -0.48538514708E+03  0.92433392602E+02  0.87696792366E+03  0.00000000000E+00 0. -1.
<mgrwt>
<rscale>  0 0.20930954E+04</rscale>
<asrwt>0</asrwt>
<pdfrwt beam="1">  1        2 0.26913542E+00 0.20930954E+04</pdfrwt>
<pdfrwt beam="2">  1       -2 0.96320888E-01 0.20930954E+04</pdfrwt>
<totfact> 0.76595392E+00</totfact>
</mgrwt>
</event>
<event>
 6    1  0.2436515E-005  0.8146725E+03  0.7818608E-02  0.9539019E-01
          2   -1    0    0  501    0  0.00000000000E+00  0.00000000000E+00  0.28943921454E+03  0.28943921454E+03  0.00000000000E+00 0.  1.
         -2   -1    0    0    0  501 -0.00000000000E+00 -0.00000000000E+00 -0.57325619248E+03  0.57325619248E+03  0.00000000000E+00 0. -1.
         23    2    1    2    0    0  0.73064303069E+02 -0.36628677523E+03 -0.30184916899E+03  0.48875750576E+03  0.90920759580E+02 0.  0.
         11    1    3    3    0    0  0.66383615252E+02 -0.12092766104E+03 -0.91836131165E+02  0.16572313829E+03  0.00000000000E+00 0. -1.
        -11    1    3    3    0    0  0.66806878164E+01 -0.24535911419E+03 -0.21001303783E+03  0.32303436746E+03  0.00000000000E+00 0.  1.
         22    1    1    2    0    0 -0.73064303069E+02  0.36628677523E+03  0.18032191062E+02  0.37393790127E+03  0.00000000000E+00 0.  1.
<mgrwt>
<rscale>  0 0.81467250E+03</rscale>
<asrwt>0</asrwt>
<pdfrwt beam="1">  1        2 0.44529110E-01 0.81467250E+03</pdfrwt>
<pdfrwt beam="2">  1       -2 0.88193260E-01 0.81467250E+03</pdfrwt>
<totfact> 0.12741859E+02</totfact>
</mgrwt>
</event>
<event>
 6    1  0.2436515E-005  0.1979305E+04  0.7818608E-02  0.8616358E-01
         -2   -1    0    0    0  501 -0.00000000000E+00  0.00000000000E+00  0.17572573236E+04  0.17572573236E+04  0.00000000000E+00 0. -1.
          2   -1    0    0  501    0  0.00000000000E+00 -0.00000000000E+00 -0.55735250580E+03  0.55735250580E+03  0.00000000000E+00 0.  1.
         23    2    1    2    0    0 -0.20775297975E+02 -0.98707649697E+03  0.62609305569E+03  0.11726765729E+04  0.91794370260E+02 0.  0.
         11    1    3    3    0    0 -0.11597043703E+01 -0.34201543819E+03  0.16649841574E+03  0.38039141331E+03  0.00000000000E+00 0.  1.
        -11    1    3    3    0    0 -0.19615593605E+02 -0.64506105878E+03  0.45959463995E+03  0.79228515961E+03  0.00000000000E+00 0. -1.
         22    1    1    2    0    0  0.20775297975E+02  0.98707649697E+03  0.57381176209E+03  0.11419332565E+04  0.00000000000E+00 0. -1.
<mgrwt>
<rscale>  0 0.19793047E+04</rscale>
<asrwt>0</asrwt>
<pdfrwt beam="1">  1        2 0.85746540E-01 0.19793047E+04</pdfrwt>
<pdfrwt beam="2">  1       -2 0.27034728E+00 0.19793047E+04</pdfrwt>
<totfact> 0.24328932E+00</totfact>
</mgrwt>
</event>
<event>
 6    1  0.2436515E-005  0.1616268E+04  0.7818608E-02  0.8810616E-01
         -2   -1    0    0    0  501 -0.00000000000E+00  0.00000000000E+00  0.29864463050E+03  0.29864463050E+03  0.00000000000E+00 0. -1.
          2   -1    0    0  501    0  0.00000000000E+00 -0.00000000000E+00 -0.21868161749E+04  0.21868161749E+04  0.00000000000E+00 0.  1.
         23    2    1    2    0    0 -0.13096271744E+03 -0.76719468470E+03 -0.12665072990E+04  0.14893657539E+04  0.91818804673E+02 0.  0.
         11    1    3    3    0    0 -0.75339976957E+02 -0.64523456670E+03 -0.10544309447E+04  0.12384782498E+04  0.00000000000E+00 0. -1.
        -11    1    3    3    0    0 -0.55622740479E+02 -0.12196011800E+03 -0.21207635433E+03  0.25088750409E+03  0.00000000000E+00 0.  1.
         22    1    1    2    0    0  0.13096271744E+03  0.76719468470E+03 -0.62166424536E+03  0.99609505146E+03  0.00000000000E+00 0. -1.
<mgrwt>
<rscale>  0 0.16162684E+04</rscale>
<asrwt>0</asrwt>
<pdfrwt beam="1">  1        2 0.33643327E+00 0.16162684E+04</pdfrwt>
<pdfrwt beam="2">  1       -2 0.45945327E-01 0.16162684E+04</pdfrwt>
<totfact> 0.22612857E+01</totfact>
</mgrwt>
</event>
<event>
 6    1  0.2436515E-005  0.5696754E+03  0.7818608E-02  0.9970397E-01
         -3   -1    0    0    0  501 -0.00000000000E+00  0.00000000000E+00  0.99235997046E+03  0.99235997046E+03  0.00000000000E+00 0. -1.
          3   -1    0    0  501    0  0.00000000000E+00 -0.00000000000E+00 -0.81757145800E+02  0.81757145800E+02  0.00000000000E+00 0.  1.
         23    2    1    2    0    0 -0.15178027738E+03  0.12901384202E+01  0.90506173946E+03  0.92223024822E+03  0.91285055912E+02 0.  0.
         13    1    3    3    0    0 -0.31967407522E+02  0.24909154422E+02  0.42316032245E+03  0.42509650623E+03  0.00000000000E+00 0. -1.
        -13    1    3    3    0    0 -0.11981286985E+03 -0.23619016002E+02  0.48190141702E+03  0.49713374199E+03  0.00000000000E+00 0.  1.
         22    1    1    2    0    0  0.15178027738E+03 -0.12901384202E+01  0.55410851935E+01  0.15188686804E+03  0.00000000000E+00 0.  1.
<mgrwt>
<rscale>  0 0.56967541E+03</rscale>
<asrwt>0</asrwt>
<pdfrwt beam="1">  1        3 0.12578023E-01 0.56967541E+03</pdfrwt>
<pdfrwt beam="2">  1       -3 0.15267076E+00 0.56967541E+03</pdfrwt>
<totfact> 0.42270380E+01</totfact>
</mgrwt>
</event>
<event>
 6    1  0.2436515E-005  0.4048683E+04  0.7818608E-02  0.7994797E-01
          2   -1    0    0  501    0  0.00000000000E+00  0.00000000000E+00  0.32192645705E+04  0.32192645705E+04  0.00000000000E+00 0.  1.
         -2   -1    0    0    0  501 -0.00000000000E+00 -0.00000000000E+00 -0.12729489006E+04  0.12729489006E+04  0.00000000000E+00 0. -1.
         23    2    1    2    0    0 -0.54355403594E+03  0.18500883631E+04  0.16535222053E+04  0.25418273672E+04  0.92047488060E+02 0.  0.
         11    1    3    3    0    0 -0.34266036140E+02  0.19013857906E+03  0.19027354071E+03  0.27116574410E+03  0.00000000000E+00 0.  1.
        -11    1    3    3    0    0 -0.50928799980E+03  0.16599497840E+04  0.14632486646E+04  0.22706616231E+04  0.00000000000E+00 0. -1.
         22    1    1    2    0    0  0.54355403594E+03 -0.18500883631E+04  0.29279346453E+03  0.19503861038E+04  0.00000000000E+00 0. -1.
<mgrwt>
<rscale>  0 0.40486834E+04</rscale>
<asrwt>0</asrwt>
<pdfrwt beam="1">  1        2 0.49527147E+00 0.40486834E+04</pdfrwt>
<pdfrwt beam="2">  1       -2 0.19583829E+00 0.40486834E+04</pdfrwt>
<totfact> 0.14010073E-01</totfact>
</mgrwt>
</event>
<event>
 6    1  0.2436515E-005  0.1544171E+04  0.7818608E-02  0.8855599E-01
          2   -1    0    0  501    0  0.00000000000E+00  0.00000000000E+00  0.33772863968E+03  0.33772863968E+03  0.00000000000E+00 0.  1.
         -2   -1    0    0    0  501 -0.00000000000E+00 -0.00000000000E+00 -0.17650745262E+04  0.17650745262E+04  0.00000000000E+00 0. -1.
         23    2    1    2    0    0 -0.23921363381E+02  0.42181983509E+03 -0.15918611449E+04  0.16494054650E+04  0.89511330202E+02 0.  0.
         11    1    3    3    0    0  0.29063039438E+02  0.92078810619E+02 -0.41414293848E+03  0.42524997486E+03  0.00000000000E+00 0. -1.
        -11    1    3    3    0    0 -0.52984402818E+02  0.32974102447E+03 -0.11777182065E+04  0.12241554901E+04  0.00000000000E+00 0.  1.
         22    1    1    2    0    0  0.23921363381E+02 -0.42181983509E+03  0.16451525845E+03  0.45339770088E+03  0.00000000000E+00 0.  1.
<mgrwt>
<rscale>  0 0.15441713E+04</rscale>
<asrwt>0</asrwt>
<pdfrwt beam="1">  1        2 0.51958252E-01 0.15441713E+04</pdfrwt>
<pdfrwt beam="2">  1       -2 0.27154993E+00 0.15441713E+04</pdfrwt>
<totfact> 0.43991177E+00</totfact>
</mgrwt>
</event>
<event>
 6    1  0.2436515E-005  0.2862312E+04  0.7818608E-02  0.8284180E-01
         -2   -1    0    0    0  501 -0.00000000000E+00  0.00000000000E+00  0.70464916866E+03  0.70464916866E+03  0.00000000000E+00 0. -1.
          2   -1    0    0  501    0  0.00000000000E+00 -0.00000000000E+00 -0.29067054372E+04  0.29067054372E+04  0.00000000000E+00 0.  1.
         23    2    1    2    0    0  0.56826104145E+03 -0.54560501907E+03  0.40300665978E+03  0.88978184207E+03  0.93230416624E+02 0.  0.
         13    1    3    3    0    0  0.18415217734E+01 -0.19239550433E+02  0.42770286355E+01  0.19795061941E+02  0.00000000000E+00 0.  1.
        -13    1    3    3    0    0  0.56641951968E+03 -0.52636546864E+03  0.39872963114E+03  0.86998678013E+03  0.00000000000E+00 0. -1.
         22    1    1    2    0    0 -0.56826104145E+03  0.54560501907E+03 -0.26050629283E+04  0.27215727638E+04  0.00000000000E+00 0.  1.
<mgrwt>
<rscale>  0 0.28623121E+04</rscale>
<asrwt>0</asrwt>
<pdfrwt beam="1">  1        2 0.44718544E+00 0.28623121E+04</pdfrwt>
<pdfrwt beam="2">  1       -2 0.10840757E+00 0.28623121E+04</pdfrwt>
<totfact> 0.11720686E+00</totfact>
</mgrwt>
</event>
<event>
 6    1  0.2436515E-005  0.6639303E+03  0.7818608E-02  0.9780985E-01
         -4   -1    0    0    0  501 -0.00000000000E+00  0.00000000000E+00  0.16300586713E+03  0.16300586713E+03  0.00000000000E+00 0. -1.
          4   -1    0    0  501    0  0.00000000000E+00 -0.00000000000E+00 -0.67605460858E+03  0.67605460858E+03  0.00000000000E+00 0.  1.
         23    2    1    2    0    0  0.46703305710E+02 -0.30547654989E+03 -0.39226575954E+03  0.50726889954E+03  0.89175047184E+02 0.  0.
         11    1    3    3    0    0  0.33395629036E+02 -0.27770710445E+02 -0.47399022377E+02  0.64289561514E+02  0.00000000000E+00 0. -1.
        -11    1    3    3    0    0  0.13307676674E+02 -0.27770583945E+03 -0.34486673716E+03  0.44297933803E+03  0.00000000000E+00 0.  1.
         22    1    1    2    0    0 -0.46703305710E+02  0.30547654989E+03 -0.12078298191E+03  0.33179157617E+03  0.00000000000E+00 0. -1.
<mgrwt>
<rscale>  0 0.66393032E+03</rscale>
<asrwt>0</asrwt>
<pdfrwt beam="1">  1        4 0.10400840E+00 0.66393032E+03</pdfrwt>
<pdfrwt beam="2">  1       -4 0.25077825E-01 0.66393032E+03</pdfrwt>
<totfact> 0.22572552E+01</totfact>
</mgrwt>
</event>
<event>
 6    1  0.2436515E-005  0.1355530E+04  0.7818608E-02  0.8986653E-01
         -2   -1    0    0    0  501 -0.00000000000E+00  0.00000000000E+00  0.36463974673E+03  0.36463974673E+03  0.00000000000E+00 0. -1.
          2   -1    0    0  501    0  0.00000000000E+00 -0.00000000000E+00 -0.12597785571E+04  0.12597785571E+04  0.00000000000E+00 0.  1.
         23    2    1    2    0    0  0.62391671081E+01 -0.57121880393E+03 -0.87982218906E+03  0.10529601268E+04  0.91148752803E+02 0.  0.
         11    1    3    3    0    0 -0.33778337515E+02 -0.28070275733E+03 -0.38312973882E+03  0.47615481812E+03  0.00000000000E+00 0. -1.
        -11    1    3    3    0    0  0.40017504623E+02 -0.29051604660E+03 -0.49669245024E+03  0.57680530869E+03  0.00000000000E+00 0.  1.
         22    1    1    2    0    0 -0.62391671081E+01  0.57121880393E+03 -0.15316621284E+02  0.57145817699E+03  0.00000000000E+00 0. -1.
<mgrwt>
<rscale>  0 0.13555299E+04</rscale>
<asrwt>0</asrwt>
<pdfrwt beam="1">  1        2 0.19381208E+00 0.13555299E+04</pdfrwt>
<pdfrwt beam="2">  1       -2 0.56098423E-01 0.13555299E+04</pdfrwt>
<totfact> 0.50837585E+01</totfact>
</mgrwt>
</event>
<event>
 6    1  0.2436515E-005  0.3208310E+04  0.7818608E-02  0.8186626E-01
          1   -1    0    0  501    0  0.00000000000E+00  0.00000000000E+00  0.24129934534E+04  0.24129934534E+04  0.00000000000E+00 0.  1.
         -1   -1    0    0    0  501 -0.00000000000E+00 -0.00000000000E+00 -0.10664403461E+04  0.10664403461E+04  0.00000000000E+00 0. -1.
         23    2    1    2    0    0  0.19012242960E+03 -0.13973369358E+04  0.15003679797E+04  0.20608584349E+04  0.85652576989E+02 0.  0.
         13    1    3    3    0    0  0.19098991464E+02 -0.35663163931E+03  0.41384193855E+03  0.54664069345E+03  0.00000000000E+00 0. -1.
        -13    1    3    3    0    0  0.17102343813E+03 -0.10407052964E+04  0.10865260412E+04  0.15142177415E+04  0.00000000000E+00 0.  1.
         22    1    1    2    0    0 -0.19012242960E+03  0.13973369358E+04 -0.15381487241E+03  0.14185753647E+04  0.00000000000E+00 0. -1.
<mgrwt>
<rscale>  0 0.32083102E+04</rscale>
<asrwt>0</asrwt>
<pdfrwt beam="1">  1        1 0.37122976E+00 0.32083102E+04</pdfrwt>
<pdfrwt beam="2">  1       -1 0.16406775E+00 0.32083102E+04</pdfrwt>
<totfact> 0.35423847E-01</totfact>
</mgrwt>
</event>
<event>
 6    1  0.2436515E-005  0.1734503E+04  0.7818608E-02  0.8741927E-01
          2   -1    0    0  501    0  0.00000000000E+00  0.00000000000E+00  0.57057972045E+03  0.57057972045E+03  0.00000000000E+00 0.  1.
         -2   -1    0    0    0  501 -0.00000000000E+00 -0.00000000000E+00 -0.13181766109E+04  0.13181766109E+04  0.00000000000E+00 0. -1.
         23    2    1    2    0    0 -0.75244078733E+03  0.22639530524E+03  0.17181017710E+02  0.79225862433E+03  0.99782602604E+02 0.  0.
         11    1    3    3    0    0 -0.44390483827E+03  0.11309586806E+03  0.55144052190E+02  0.46139250894E+03  0.00000000000E+00 0. -1.
        -11    1    3    3    0    0 -0.30853594905E+03  0.11329943718E+03 -0.37963034480E+02  0.33086611539E+03  0.00000000000E+00 0.  1.
         22    1    1    2    0    0  0.75244078733E+03 -0.22639530524E+03 -0.76477790812E+03  0.10964977070E+04  0.00000000000E+00 0. -1.
<mgrwt>
<rscale>  0 0.17345026E+04</rscale>
<asrwt>0</asrwt>
<pdfrwt beam="1">  1        2 0.87781496E-01 0.17345026E+04</pdfrwt>
<pdfrwt beam="2">  1       -2 0.20279640E+00 0.17345026E+04</pdfrwt>
<totfact> 0.63702976E+00</totfact>
</mgrwt>
</event>
<event>
 6    1  0.2436515E-005  0.1568800E+04  0.7818608E-02  0.8839948E-01
         -2   -1    0    0    0  501 -0.00000000000E+00  0.00000000000E+00  0.19878301367E+03  0.19878301367E+03  0.00000000000E+00 0. -1.
          2   -1    0    0  501    0  0.00000000000E+00 -0.00000000000E+00 -0.30952524349E+04  0.30952524349E+04  0.00000000000E+00 0.  1.
         23    2    1    2    0    0 -0.14989665301E+03  0.57986232347E+03 -0.39847837450E+03  0.72524807116E+03  0.92143524052E+02 0.  0.
         13    1    3    3    0    0 -0.77773066744E+01  0.13463541816E+03 -0.12426992225E+03  0.18338537537E+03  0.00000000000E+00 0. -1.
        -13    1    3    3    0    0 -0.14211934634E+03  0.44522690531E+03 -0.27420845224E+03  0.54186269580E+03  0.00000000000E+00 0.  1.
         22    1    1    2    0    0  0.14989665301E+03 -0.57986232347E+03 -0.24979910468E+04  0.25687873775E+04  0.00000000000E+00 0.  1.
<mgrwt>
<rscale>  0 0.15688003E+04</rscale>
<asrwt>0</asrwt>
<pdfrwt beam="1">  1        2 0.47619266E+00 0.15688003E+04</pdfrwt>
<pdfrwt beam="2">  1       -2 0.30582003E-01 0.15688003E+04</pdfrwt>
<totfact> 0.14515966E+01</totfact>
</mgrwt>
</event>
<event>
 6    1  0.2436515E-005  0.1143332E+04  0.7818608E-02  0.9163958E-01
         -2   -1    0    0    0  501 -0.00000000000E+00  0.00000000000E+00  0.72987393996E+03  0.72987393996E+03  0.00000000000E+00 0. -1.
          2   -1    0    0  501    0  0.00000000000E+00 -0.00000000000E+00 -0.44775092795E+03  0.44775092795E+03  0.00000000000E+00 0.  1.
         23    2    1    2    0    0 -0.23216145427E+03 -0.33779612137E+03 -0.26209731720E+03  0.49631662108E+03  0.98132686785E+02 0.  0.
         13    1    3    3    0    0 -0.85149985231E+02 -0.20228858437E+03 -0.16152653393E+03  0.27251057322E+03  0.00000000000E+00 0.  1.
        -13    1    3    3    0    0 -0.14701146904E+03 -0.13550753700E+03 -0.10057078327E+03  0.22380604786E+03  0.00000000000E+00 0. -1.
         22    1    1    2    0    0  0.23216145427E+03  0.33779612137E+03  0.54422032921E+03  0.68130824682E+03  0.00000000000E+00 0. -1.
<mgrwt>
<rscale>  0 0.11433315E+04</rscale>
<asrwt>0</asrwt>
<pdfrwt beam="1">  1        2 0.68884758E-01 0.11433315E+04</pdfrwt>
<pdfrwt beam="2">  1       -2 0.11228830E+00 0.11433315E+04</pdfrwt>
<totfact> 0.43286100E+01</totfact>
</mgrwt>
</event>
<event>
 6    1  0.2436515E-005  0.4284224E+04  0.7818608E-02  0.7949542E-01
          2   -1    0    0  501    0  0.00000000000E+00  0.00000000000E+00  0.23861299398E+04  0.23861299398E+04  0.00000000000E+00 0.  1.
         -2   -1    0    0    0  501 -0.00000000000E+00 -0.00000000000E+00 -0.19230489164E+04  0.19230489164E+04  0.00000000000E+00 0. -1.
         23    2    1    2    0    0  0.18265181173E+04  0.87363165278E+03 -0.46819270301E+03  0.20805758294E+04  0.10094888398E+03 0.  0.
         11    1    3    3    0    0  0.12603882020E+04  0.55765680106E+03 -0.34252894892E+03  0.14201709786E+04  0.00000000000E+00 0. -1.
        -11    1    3    3    0    0  0.56612991529E+03  0.31597485172E+03 -0.12566375410E+03  0.66040485083E+03  0.00000000000E+00 0.  1.
         22    1    1    2    0    0 -0.18265181173E+04 -0.87363165278E+03  0.93127372646E+03  0.22286030268E+04  0.00000000000E+00 0.  1.
<mgrwt>
<rscale>  0 0.42842244E+04</rscale>
<asrwt>0</asrwt>
<pdfrwt beam="1">  1        2 0.36709691E+00 0.42842244E+04</pdfrwt>
<pdfrwt beam="2">  1       -2 0.29585368E+00 0.42842244E+04</pdfrwt>
<totfact> 0.10519419E-01</totfact>
</mgrwt>
</event>
<event>
 6    1  0.2436515E-005  0.1746957E+04  0.7818608E-02  0.8735027E-01
         -2   -1    0    0    0  501 -0.00000000000E+00  0.00000000000E+00  0.52606010665E+03  0.52606010665E+03  0.00000000000E+00 0. -1.
          2   -1    0    0  501    0  0.00000000000E+00 -0.00000000000E+00 -0.14503367217E+04  0.14503367217E+04  0.00000000000E+00 0.  1.
         23    2    1    2    0    0 -0.32995580806E+03 -0.79437535520E+03 -0.61801768537E+03  0.10633264191E+04  0.93883832097E+02 0.  0.
         11    1    3    3    0    0 -0.12110258463E+03 -0.19476131745E+03 -0.14179834508E+03  0.26963786352E+03  0.00000000000E+00 0. -1.
        -11    1    3    3    0    0 -0.20885322343E+03 -0.59961403775E+03 -0.47621934029E+03  0.79368855559E+03  0.00000000000E+00 0.  1.
         22    1    1    2    0    0  0.32995580806E+03  0.79437535520E+03 -0.30625892967E+03  0.91307040924E+03  0.00000000000E+00 0. -1.
<mgrwt>
<rscale>  0 0.17469565E+04</rscale>
<asrwt>0</asrwt>
<pdfrwt beam="1">  1        2 0.22312873E+00 0.17469565E+04</pdfrwt>
<pdfrwt beam="2">  1       -2 0.80932323E-01 0.17469565E+04</pdfrwt>
<totfact> 0.17292064E+01</totfact>
</mgrwt>
</event>
<event>
 6    1  0.2744007E-005  0.2797180E+04  0.7818608E-02  0.8304145E-01
         -2   -1    0    0    0  501 -0.00000000000E+00  0.00000000000E+00  0.10177451070E+04  0.10177451070E+04  0.00000000000E+00 0.  1.
          2   -1    0    0  501    0  0.00000000000E+00 -0.00000000000E+00 -0.19219481942E+04  0.19219481942E+04  0.00000000000E+00 0. -1.
         23    2    1    2    0    0 -0.70486850839E+03  0.55635500546E+02 -0.17188948361E+04  0.18609636926E+04  0.93013356155E+02 0.  0.
         13    1    3    3    0    0 -0.22258735908E+03 -0.57002616401E+01 -0.63890785962E+03  0.67659506242E+03  0.00000000000E+00 0.  1.
        -13    1    3    3    0    0 -0.48228114931E+03  0.61335762186E+02 -0.10799869765E+04  0.11843686301E+04  0.00000000000E+00 0. -1.
         22    1    1    2    0    0  0.70486850839E+03 -0.55635500546E+02  0.81469174884E+03  0.10787296087E+04  0.00000000000E+00 0.  1.
<mgrwt>
<rscale>  0 0.27971796E+04</rscale>
<asrwt>0</asrwt>
<pdfrwt beam="1">  1        2 0.29568433E+00 0.27971796E+04</pdfrwt>
<pdfrwt beam="2">  1       -2 0.15657617E+00 0.27971796E+04</pdfrwt>
<totfact> 0.17167879E+00</totfact>
</mgrwt>
</event>
<event>
 6    1  0.2436515E-005  0.1519203E+04  0.7818608E-02  0.8871783E-01
         -2   -1    0    0    0  501 -0.00000000000E+00  0.00000000000E+00  0.47843239119E+03  0.47843239119E+03  0.00000000000E+00 0. -1.
          2   -1    0    0  501    0  0.00000000000E+00 -0.00000000000E+00 -0.12060096551E+04  0.12060096551E+04  0.00000000000E+00 0.  1.
         23    2    1    2    0    0 -0.28670777480E+03 -0.90944051094E+02 -0.11353050573E+04  0.11777724083E+04  0.88080099361E+02 0.  0.
         13    1    3    3    0    0 -0.22491704730E+03 -0.10579070967E+03 -0.94479391624E+03  0.97694160346E+03  0.00000000000E+00 0. -1.
        -13    1    3    3    0    0 -0.61790727495E+02  0.14846658573E+02 -0.19051114109E+03  0.20083080479E+03  0.00000000000E+00 0.  1.
         22    1    1    2    0    0  0.28670777480E+03  0.90944051094E+02  0.40772779342E+03  0.50666963802E+03  0.00000000000E+00 0. -1.
<mgrwt>
<rscale>  0 0.15192025E+04</rscale>
<asrwt>0</asrwt>
<pdfrwt beam="1">  1        2 0.18553994E+00 0.15192025E+04</pdfrwt>
<pdfrwt beam="2">  1       -2 0.73604984E-01 0.15192025E+04</pdfrwt>
<totfact> 0.30171847E+01</totfact>
</mgrwt>
</event>
<event>
 6    1  0.2436515E-005  0.4303209E+03  0.7818608E-02  0.1033759E+00
          2   -1    0    0  501    0  0.00000000000E+00  0.00000000000E+00  0.14570616822E+03  0.14570616822E+03  0.00000000000E+00 0.  1.
         -2   -1    0    0    0  501 -0.00000000000E+00 -0.00000000000E+00 -0.31772175522E+03  0.31772175522E+03  0.00000000000E+00 0. -1.
         23    2    1    2    0    0  0.90731621171E+02  0.14107437077E+03  0.38183392226E+02  0.19450820301E+03  0.90781410143E+02 0.  0.
         13    1    3    3    0    0  0.89326940523E+02  0.10009422460E+03  0.61231678984E+02  0.14747024992E+03  0.00000000000E+00 0. -1.
        -13    1    3    3    0    0  0.14046806477E+01  0.40980146179E+02 -0.23048286758E+02  0.47037953091E+02  0.00000000000E+00 0.  1.
         22    1    1    2    0    0 -0.90731621171E+02 -0.14107437077E+03 -0.21019897922E+03  0.26891972043E+03  0.00000000000E+00 0. -1.
<mgrwt>
<rscale>  0 0.43032090E+03</rscale>
<asrwt>0</asrwt>
<pdfrwt beam="1">  1        2 0.22416334E-01 0.43032090E+03</pdfrwt>
<pdfrwt beam="2">  1       -2 0.48880269E-01 0.43032090E+03</pdfrwt>
<totfact> 0.98603668E+02</totfact>
</mgrwt>
</event>
<event>
 6    1  0.2436515E-005  0.3452724E+04  0.7818608E-02  0.8125086E-01
          2   -1    0    0  501    0  0.00000000000E+00  0.00000000000E+00  0.38657382191E+04  0.38657382191E+04  0.00000000000E+00 0.  1.
         -2   -1    0    0    0  501 -0.00000000000E+00 -0.00000000000E+00 -0.77095882703E+03  0.77095882703E+03  0.00000000000E+00 0. -1.
         23    2    1    2    0    0 -0.16686332875E+04  0.42961084932E+02  0.21338228218E+04  0.27106596028E+04  0.91065606843E+02 0.  0.
         13    1    3    3    0    0 -0.11225606797E+04  0.51541471556E+02  0.13763990681E+04  0.17768718011E+04  0.00000000000E+00 0.  1.
        -13    1    3    3    0    0 -0.54607260776E+03 -0.85803866237E+01  0.75742375370E+03  0.93378780172E+03  0.00000000000E+00 0. -1.
         22    1    1    2    0    0  0.16686332875E+04 -0.42961084932E+02  0.96095657029E+03  0.19260374433E+04  0.00000000000E+00 0.  1.
<mgrwt>
<rscale>  0 0.34527236E+04</rscale>
<asrwt>0</asrwt>
<pdfrwt beam="1">  1        2 0.59472895E+00 0.34527236E+04</pdfrwt>
<pdfrwt beam="2">  1       -2 0.11860905E+00 0.34527236E+04</pdfrwt>
<totfact> 0.19667509E-01</totfact>
</mgrwt>
</event>
<event>
 6    1  0.2436515E-005  0.3292224E+04  0.7818608E-02  0.8164877E-01
          2   -1    0    0  501    0  0.00000000000E+00  0.00000000000E+00  0.87968987948E+03  0.87968987948E+03  0.00000000000E+00 0.  1.
         -2   -1    0    0    0  501 -0.00000000000E+00 -0.00000000000E+00 -0.30802726094E+04  0.30802726094E+04  0.00000000000E+00 0. -1.
         23    2    1    2    0    0 -0.97046550613E+03  0.12590084961E+04 -0.59299242976E+03  0.16991546101E+04  0.92631935115E+02 0.  0.
         13    1    3    3    0    0 -0.74172908607E+03  0.10071059942E+04 -0.49399127828E+03  0.13447869362E+04  0.00000000000E+00 0.  1.
        -13    1    3    3    0    0 -0.22873642006E+03  0.25190250187E+03 -0.99001151476E+02  0.35436767390E+03  0.00000000000E+00 0. -1.
         22    1    1    2    0    0  0.97046550613E+03 -0.12590084961E+04 -0.16075903002E+04  0.22608078788E+04  0.00000000000E+00 0.  1.
<mgrwt>
<rscale>  0 0.32922240E+04</rscale>
<asrwt>0</asrwt>
<pdfrwt beam="1">  1        2 0.13533690E+00 0.32922240E+04</pdfrwt>
<pdfrwt beam="2">  1       -2 0.47388810E+00 0.32922240E+04</pdfrwt>
<totfact> 0.61091144E-02</totfact>
</mgrwt>
</event>
<event>
 6    1  0.2436515E-005  0.3681853E+04  0.7818608E-02  0.8071995E-01
          2   -1    0    0  501    0  0.00000000000E+00  0.00000000000E+00  0.23436939935E+04  0.23436939935E+04  0.00000000000E+00 0.  1.
         -2   -1    0    0    0  501 -0.00000000000E+00 -0.00000000000E+00 -0.14460120645E+04  0.14460120645E+04  0.00000000000E+00 0. -1.
         23    2    1    2    0    0 -0.43267602446E+03 -0.12901198419E+04  0.17233890261E+04  0.21980371355E+04  0.98385798851E+02 0.  0.
         13    1    3    3    0    0 -0.14971506526E+03 -0.39294928573E+03  0.60180151126E+03  0.73415856657E+03  0.00000000000E+00 0. -1.
        -13    1    3    3    0    0 -0.28296095920E+03 -0.89717055614E+03  0.11215875148E+04  0.14638785689E+04  0.00000000000E+00 0.  1.
         22    1    1    2    0    0  0.43267602446E+03  0.12901198419E+04 -0.82570709706E+03  0.15916689224E+04  0.00000000000E+00 0. -1.
<mgrwt>
<rscale>  0 0.36818527E+04</rscale>
<asrwt>0</asrwt>
<pdfrwt beam="1">  1        2 0.36056831E+00 0.36818527E+04</pdfrwt>
<pdfrwt beam="2">  1       -2 0.22246339E+00 0.36818527E+04</pdfrwt>
<totfact> 0.33051142E-01</totfact>
</mgrwt>
</event>
<event>
 6    1  0.2436515E-005  0.1271751E+04  0.7818608E-02  0.9052272E-01
         -2   -1    0    0    0  501 -0.00000000000E+00  0.00000000000E+00  0.42697377900E+03  0.42697377900E+03  0.00000000000E+00 0. -1.
          2   -1    0    0  501    0  0.00000000000E+00 -0.00000000000E+00 -0.94698486281E+03  0.94698486281E+03  0.00000000000E+00 0.  1.
         23    2    1    2    0    0  0.48092589067E+03 -0.41158588023E+03 -0.24815143897E+03  0.68504622676E+03  0.83764831647E+02 0.  0.
         13    1    3    3    0    0  0.20601133573E+03 -0.12310629553E+03 -0.96727131493E+02  0.25875078437E+03  0.00000000000E+00 0.  1.
        -13    1    3    3    0    0  0.27491455494E+03 -0.28847958471E+03 -0.15142430748E+03  0.42629544239E+03  0.00000000000E+00 0. -1.
         22    1    1    2    0    0 -0.48092589067E+03  0.41158588023E+03 -0.27185964483E+03  0.68891241505E+03  0.00000000000E+00 0. -1.
<mgrwt>
<rscale>  0 0.12717511E+04</rscale>
<asrwt>0</asrwt>
<pdfrwt beam="1">  1        2 0.14568998E+00 0.12717511E+04</pdfrwt>
<pdfrwt beam="2">  1       -2 0.65688274E-01 0.12717511E+04</pdfrwt>
<totfact> 0.57178617E+01</totfact>
</mgrwt>
</event>
<event>
 6    1  0.2436515E-005  0.2434853E+04  0.7818608E-02  0.8426569E-01
          2   -1    0    0  501    0  0.00000000000E+00  0.00000000000E+00  0.16172828794E+04  0.16172828794E+04  0.00000000000E+00 0.  1.
         -2   -1    0    0    0  501 -0.00000000000E+00 -0.00000000000E+00 -0.91643039890E+03  0.91643039890E+03  0.00000000000E+00 0. -1.
         23    2    1    2    0    0 -0.29851969932E+03  0.29611748819E+02 -0.87498476906E+03  0.92957678048E+03  0.92324309774E+02 0.  0.
         11    1    3    3    0    0 -0.18709904765E+03  0.54629576185E+02 -0.62625396714E+03  0.65588449866E+03  0.00000000000E+00 0. -1.
        -11    1    3    3    0    0 -0.11142065167E+03 -0.25017827367E+02 -0.24873080192E+03  0.27369228183E+03  0.00000000000E+00 0.  1.
         22    1    1    2    0    0  0.29851969932E+03 -0.29611748819E+02  0.15758372495E+04  0.16041364978E+04  0.00000000000E+00 0.  1.
<mgrwt>
<rscale>  0 0.24348529E+04</rscale>
<asrwt>0</asrwt>
<pdfrwt beam="1">  1        2 0.24881275E+00 0.24348529E+04</pdfrwt>
<pdfrwt beam="2">  1       -2 0.14098929E+00 0.24348529E+04</pdfrwt>
<totfact> 0.34491014E+00</totfact>
</mgrwt>
</event>
<event>
 6    1  0.2436515E-005  0.3303170E+04  0.7818608E-02  0.8162089E-01
         -2   -1    0    0    0  501 -0.00000000000E+00  0.00000000000E+00  0.10163096165E+04  0.10163096165E+04  0.00000000000E+00 0. -1.
          2   -1    0    0  501    0  0.00000000000E+00 -0.00000000000E+00 -0.26839586194E+04  0.26839586194E+04  0.00000000000E+00 0.  1.
         23    2    1    2    0    0 -0.46622383275E+03  0.10254376685E+04 -0.21856578170E+04  0.24604213881E+04  0.87671203119E+02 0.  0.
         11    1    3    3    0    0 -0.24048178325E+03  0.44381470650E+03 -0.10336460908E+04  0.11503161404E+04  0.00000000000E+00 0. -1.
        -11    1    3    3    0    0 -0.22574204950E+03  0.58162296205E+03 -0.11520117262E+04  0.13101052477E+04  0.00000000000E+00 0.  1.
         22    1    1    2    0    0  0.46622383275E+03 -0.10254376685E+04  0.51800881408E+03  0.12398468477E+04  0.00000000000E+00 0. -1.
<mgrwt>
<rscale>  0 0.33031700E+04</rscale>
<asrwt>0</asrwt>
<pdfrwt beam="1">  1        2 0.41291671E+00 0.33031700E+04</pdfrwt>
<pdfrwt beam="2">  1       -2 0.15635533E+00 0.33031700E+04</pdfrwt>
<totfact> 0.60759430E-01</totfact>
</mgrwt>
</event>
<event>
 6    1  0.2436515E-005  0.1168988E+04  0.7818608E-02  0.9140442E-01
         -2   -1    0    0    0  501 -0.00000000000E+00  0.00000000000E+00  0.19103975349E+03  0.19103975349E+03  0.00000000000E+00 0. -1.
          2   -1    0    0  501    0  0.00000000000E+00 -0.00000000000E+00 -0.17882846877E+04  0.17882846877E+04  0.00000000000E+00 0.  1.
         23    2    1    2    0    0  0.28422696398E+03  0.23504931862E+02  0.53050923043E+02  0.30456658843E+03  0.92784467875E+02 0.  0.
         11    1    3    3    0    0  0.21410238895E+03  0.57787679976E+01 -0.11472479844E+01  0.21418343374E+03  0.00000000000E+00 0.  1.
        -11    1    3    3    0    0  0.70124575035E+02  0.17726163865E+02  0.54198171028E+02  0.90383154691E+02  0.00000000000E+00 0. -1.
         22    1    1    2    0    0 -0.28422696398E+03 -0.23504931862E+02 -0.16502958572E+04  0.16747578527E+04  0.00000000000E+00 0.  1.
<mgrwt>
<rscale>  0 0.11689884E+04</rscale>
<asrwt>0</asrwt>
<pdfrwt beam="1">  1        2 0.27512072E+00 0.11689884E+04</pdfrwt>
<pdfrwt beam="2">  1       -2 0.29390731E-01 0.11689884E+04</pdfrwt>
<totfact> 0.92291269E+01</totfact>
</mgrwt>
</event>
<event>
 6    1  0.2436515E-005  0.1816809E+04  0.7818608E-02  0.8697411E-01
         -2   -1    0    0    0  501 -0.00000000000E+00  0.00000000000E+00  0.56826512323E+03  0.56826512323E+03  0.00000000000E+00 0. -1.
          2   -1    0    0  501    0  0.00000000000E+00 -0.00000000000E+00 -0.14521376210E+04  0.14521376210E+04  0.00000000000E+00 0.  1.
         23    2    1    2    0    0 -0.20700668201E+03  0.79564024933E+03 -0.19786355552E+02  0.82769991709E+03  0.93810874289E+02 0.  0.
         13    1    3    3    0    0 -0.11372843041E+03  0.57092889956E+03 -0.40267869642E+02  0.58353703015E+03  0.00000000000E+00 0. -1.
        -13    1    3    3    0    0 -0.93278251604E+02  0.22471134977E+03  0.20481514090E+02  0.24416288693E+03  0.00000000000E+00 0.  1.
         22    1    1    2    0    0  0.20700668201E+03 -0.79564024933E+03 -0.86408614226E+03  0.11927028272E+04  0.00000000000E+00 0.  1.
<mgrwt>
<rscale>  0 0.18168095E+04</rscale>
<asrwt>0</asrwt>
<pdfrwt beam="1">  1        2 0.22340579E+00 0.18168095E+04</pdfrwt>
<pdfrwt beam="2">  1       -2 0.87425404E-01 0.18168095E+04</pdfrwt>
<totfact> 0.14394028E+01</totfact>
</mgrwt>
</event>
<event>
 6    1  0.2436515E-005  0.2379080E+04  0.7818608E-02  0.8447377E-01
         -2   -1    0    0    0  501 -0.00000000000E+00  0.00000000000E+00  0.83002576798E+03  0.83002576798E+03  0.00000000000E+00 0. -1.
          2   -1    0    0  501    0  0.00000000000E+00 -0.00000000000E+00 -0.17047733616E+04  0.17047733616E+04  0.00000000000E+00 0.  1.
         23    2    1    2    0    0 -0.51683335694E+02 -0.11261470578E+04 -0.83687017089E+03  0.14068305741E+04  0.89119124784E+02 0.  0.
         13    1    3    3    0    0 -0.38018360797E+02 -0.31235725433E+03 -0.27416018930E+03  0.41734429371E+03  0.00000000000E+00 0.  1.
        -13    1    3    3    0    0 -0.13664974897E+02 -0.81378980347E+03 -0.56270998159E+03  0.98948628043E+03  0.00000000000E+00 0. -1.
         22    1    1    2    0    0  0.51683335694E+02  0.11261470578E+04 -0.37877422767E+02  0.11279685555E+04  0.00000000000E+00 0. -1.
<mgrwt>
<rscale>  0 0.23790803E+04</rscale>
<asrwt>0</asrwt>
<pdfrwt beam="1">  1        2 0.26227283E+00 0.23790803E+04</pdfrwt>
<pdfrwt beam="2">  1       -2 0.12769627E+00 0.23790803E+04</pdfrwt>
<totfact> 0.39900586E+00</totfact>
</mgrwt>
</event>
<event>
 6    1  0.2436515E-005  0.2091463E+04  0.7818608E-02  0.8565014E-01
          2   -1    0    0  501    0  0.00000000000E+00  0.00000000000E+00  0.95407067418E+03  0.95407067418E+03  0.00000000000E+00 0.  1.
         -2   -1    0    0    0  501 -0.00000000000E+00 -0.00000000000E+00 -0.11461979971E+04  0.11461979971E+04  0.00000000000E+00 0. -1.
         23    2    1    2    0    0  0.51297702167E+03  0.34145513063E+03  0.74969480648E+03  0.97476169467E+03  0.91547952054E+02 0.  0.
         13    1    3    3    0    0  0.36203815530E+03  0.21804901105E+03  0.45107221660E+03  0.61812874201E+03  0.00000000000E+00 0. -1.
        -13    1    3    3    0    0  0.15093886638E+03  0.12340611958E+03  0.29862258988E+03  0.35663295266E+03  0.00000000000E+00 0.  1.
         22    1    1    2    0    0 -0.51297702167E+03 -0.34145513063E+03 -0.94182212943E+03  0.11255069766E+04  0.00000000000E+00 0. -1.
<mgrwt>
<rscale>  0 0.20914625E+04</rscale>
<asrwt>0</asrwt>
<pdfrwt beam="1">  1        2 0.14678010E+00 0.20914625E+04</pdfrwt>
<pdfrwt beam="2">  1       -2 0.17633815E+00 0.20914625E+04</pdfrwt>
<totfact> 0.47832844E+00</totfact>
</mgrwt>
</event>
<event>
 6    1  0.2436515E-005  0.2367277E+04  0.7818608E-02  0.8451857E-01
         -2   -1    0    0    0  501 -0.00000000000E+00  0.00000000000E+00  0.57778649026E+03  0.57778649026E+03  0.00000000000E+00 0. -1.
          2   -1    0    0  501    0  0.00000000000E+00 -0.00000000000E+00 -0.24247715366E+04  0.24247715366E+04  0.00000000000E+00 0.  1.
         23    2    1    2    0    0 -0.47822352447E+03 -0.61570165229E+03 -0.20515950915E+04  0.21965483900E+04  0.89421173957E+02 0.  0.
         13    1    3    3    0    0 -0.99229874646E+02 -0.84505210634E+02 -0.40092496165E+03  0.42157860895E+03  0.00000000000E+00 0.  1.
        -13    1    3    3    0    0 -0.37899364983E+03 -0.53119644166E+03 -0.16506701298E+04  0.17749697811E+04  0.00000000000E+00 0. -1.
         22    1    1    2    0    0  0.47822352447E+03  0.61570165229E+03  0.20461004520E+03  0.80600963679E+03  0.00000000000E+00 0. -1.
<mgrwt>
<rscale>  0 0.23672771E+04</rscale>
<asrwt>0</asrwt>
<pdfrwt beam="1">  1        2 0.37304178E+00 0.23672771E+04</pdfrwt>
<pdfrwt beam="2">  1       -2 0.88890229E-01 0.23672771E+04</pdfrwt>
<totfact> 0.37720131E+00</totfact>
</mgrwt>
</event>
<event>
 6    1  0.2436515E-005  0.1978472E+04  0.7818608E-02  0.8616752E-01
         -2   -1    0    0    0  501 -0.00000000000E+00  0.00000000000E+00  0.93295834735E+03  0.93295834735E+03  0.00000000000E+00 0. -1.
          2   -1    0    0  501    0  0.00000000000E+00 -0.00000000000E+00 -0.10489084908E+04  0.10489084908E+04  0.00000000000E+00 0.  1.
         23    2    1    2    0    0  0.22777853957E+03  0.37802398152E+03  0.82609034250E+03  0.94156617447E+03  0.96625116963E+02 0.  0.
         11    1    3    3    0    0  0.96305706075E+02  0.20647832159E+03  0.33630351322E+03  0.40621193891E+03  0.00000000000E+00 0.  1.
        -11    1    3    3    0    0  0.13147283349E+03  0.17154565993E+03  0.48978682929E+03  0.53535423556E+03  0.00000000000E+00 0. -1.
         22    1    1    2    0    0 -0.22777853957E+03 -0.37802398152E+03 -0.94204048598E+03  0.10403006637E+04  0.00000000000E+00 0.  1.
<mgrwt>
<rscale>  0 0.19784721E+04</rscale>
<asrwt>0</asrwt>
<pdfrwt beam="1">  1        2 0.16137054E+00 0.19784721E+04</pdfrwt>
<pdfrwt beam="2">  1       -2 0.14353205E+00 0.19784721E+04</pdfrwt>
<totfact> 0.73432654E+00</totfact>
</mgrwt>
</event>
<event>
 6    1  0.2436515E-005  0.5122301E+04  0.7818608E-02  0.7809913E-01
          2   -1    0    0  501    0  0.00000000000E+00  0.00000000000E+00  0.26452142869E+04  0.26452142869E+04  0.00000000000E+00 0.  1.
         -2   -1    0    0    0  501 -0.00000000000E+00 -0.00000000000E+00 -0.24797584245E+04  0.24797584245E+04  0.00000000000E+00 0. -1.
         23    2    1    2    0    0 -0.16511895295E+03  0.25489403788E+04 -0.93227269570E+02  0.25576242181E+04  0.91591449044E+02 0.  0.
         13    1    3    3    0    0 -0.16936401911E+03  0.21075871065E+04 -0.65981446461E+02  0.21154103937E+04  0.00000000000E+00 0. -1.
        -13    1    3    3    0    0  0.42450661580E+01  0.44135327235E+03 -0.27245823109E+02  0.44221382438E+03  0.00000000000E+00 0.  1.
         22    1    1    2    0    0  0.16511895295E+03 -0.25489403788E+04  0.25868313192E+03  0.25673484933E+04  0.00000000000E+00 0. -1.
<mgrwt>
<rscale>  0 0.51223012E+04</rscale>
<asrwt>0</asrwt>
<pdfrwt beam="1">  1        2 0.40695604E+00 0.51223012E+04</pdfrwt>
<pdfrwt beam="2">  1       -2 0.38150130E+00 0.51223012E+04</pdfrwt>
<totfact> 0.20212330E-02</totfact>
</mgrwt>
</event>
<event>
 6    1  0.2436515E-005  0.3819111E+04  0.7818608E-02  0.8042066E-01
          2   -1    0    0  501    0  0.00000000000E+00  0.00000000000E+00  0.33087468307E+04  0.33087468307E+04  0.00000000000E+00 0.  1.
         -2   -1    0    0    0  501 -0.00000000000E+00 -0.00000000000E+00 -0.11020490574E+04  0.11020490574E+04  0.00000000000E+00 0. -1.
         23    2    1    2    0    0  0.97841090772E+03  0.41981563782E+03  0.29331594693E+04  0.31218895030E+04  0.96106827696E+02 0.  0.
         11    1    3    3    0    0  0.47059184938E+03  0.22283152842E+03  0.13051752471E+04  0.14052021222E+04  0.00000000000E+00 0. -1.
        -11    1    3    3    0    0  0.50781905835E+03  0.19698410941E+03  0.16279842222E+04  0.17166873807E+04  0.00000000000E+00 0.  1.
         22    1    1    2    0    0 -0.97841090772E+03 -0.41981563782E+03 -0.72646169600E+03  0.12889063852E+04  0.00000000000E+00 0. -1.
<mgrwt>
<rscale>  0 0.38191105E+04</rscale>
<asrwt>0</asrwt>
<pdfrwt beam="1">  1        2 0.50903797E+00 0.38191105E+04</pdfrwt>
<pdfrwt beam="2">  1       -2 0.16954601E+00 0.38191105E+04</pdfrwt>
<totfact> 0.18867005E-01</totfact>
</mgrwt>
</event>
<event>
 6    1  0.2436515E-005  0.2376243E+04  0.7818608E-02  0.8448452E-01
         -2   -1    0    0    0  501 -0.00000000000E+00  0.00000000000E+00  0.13883509223E+04  0.13883509223E+04  0.00000000000E+00 0. -1.
          2   -1    0    0  501    0  0.00000000000E+00 -0.00000000000E+00 -0.10167697631E+04  0.10167697631E+04  0.00000000000E+00 0.  1.
         23    2    1    2    0    0 -0.78903715360E+02  0.11136365337E+04 -0.21925759726E+03  0.11419886410E+04  0.98244779367E+02 0.  0.
         11    1    3    3    0    0 -0.29334429506E+02  0.69183231438E+03 -0.91441944156E+02  0.69846552465E+03  0.00000000000E+00 0. -1.
        -11    1    3    3    0    0 -0.49569285854E+02  0.42180421931E+03 -0.12781565310E+03  0.44352311631E+03  0.00000000000E+00 0.  1.
         22    1    1    2    0    0  0.78903715360E+02 -0.11136365337E+04  0.59083875646E+03  0.12631320444E+04  0.00000000000E+00 0. -1.
<mgrwt>
<rscale>  0 0.23762435E+04</rscale>
<asrwt>0</asrwt>
<pdfrwt beam="1">  1        2 0.15642612E+00 0.23762435E+04</pdfrwt>
<pdfrwt beam="2">  1       -2 0.21359245E+00 0.23762435E+04</pdfrwt>
<totfact> 0.24034167E+00</totfact>
</mgrwt>
</event>
<event>
 6    1  0.2436515E-005  0.3835221E+04  0.7818608E-02  0.8038639E-01
          2   -1    0    0  501    0  0.00000000000E+00  0.00000000000E+00  0.18716076060E+04  0.18716076060E+04  0.00000000000E+00 0.  1.
         -2   -1    0    0    0  501 -0.00000000000E+00 -0.00000000000E+00 -0.19647438385E+04  0.19647438385E+04  0.00000000000E+00 0. -1.
         23    2    1    2    0    0  0.20729631548E+03 -0.84639957303E+03 -0.17540247105E+04  0.19607410009E+04  0.92404479844E+02 0.  0.
         13    1    3    3    0    0  0.73279585363E+02 -0.22768655288E+03 -0.56875415991E+03  0.61700272156E+03  0.00000000000E+00 0. -1.
        -13    1    3    3    0    0  0.13401673012E+03 -0.61871302015E+03 -0.11852705506E+04  0.13437382793E+04  0.00000000000E+00 0.  1.
         22    1    1    2    0    0 -0.20729631548E+03  0.84639957303E+03  0.16608884780E+04  0.18756104436E+04  0.00000000000E+00 0.  1.
<mgrwt>
<rscale>  0 0.38352207E+04</rscale>
<asrwt>0</asrwt>
<pdfrwt beam="1">  1        2 0.28793963E+00 0.38352207E+04</pdfrwt>
<pdfrwt beam="2">  1       -2 0.30226828E+00 0.38352207E+04</pdfrwt>
<totfact> 0.19378692E-01</totfact>
</mgrwt>
</event>
<event>
 6    1  0.2436515E-005  0.1768623E+04  0.7818608E-02  0.8723166E-01
          2   -1    0    0  501    0  0.00000000000E+00  0.00000000000E+00  0.12096584755E+04  0.12096584755E+04  0.00000000000E+00 0.  1.
         -2   -1    0    0    0  501 -0.00000000000E+00 -0.00000000000E+00 -0.64646890009E+03  0.64646890009E+03  0.00000000000E+00 0. -1.
         23    2    1    2    0    0 -0.59995643664E+03 -0.64190119503E+03  0.36271205367E+03  0.95491923831E+03  0.91246083686E+02 0.  0.
         11    1    3    3    0    0 -0.49136308121E+03 -0.54107177265E+03  0.26513149523E+03  0.77749022534E+03  0.00000000000E+00 0. -1.
        -11    1    3    3    0    0 -0.10859335543E+03 -0.10082942237E+03  0.97580558445E+02  0.17742901297E+03  0.00000000000E+00 0.  1.
         22    1    1    2    0    0  0.59995643664E+03  0.64190119503E+03  0.20047752179E+03  0.90120813732E+03  0.00000000000E+00 0. -1.
<mgrwt>
<rscale>  0 0.17686227E+04</rscale>
<asrwt>0</asrwt>
<pdfrwt beam="1">  1        2 0.18610130E+00 0.17686227E+04</pdfrwt>
<pdfrwt beam="2">  1       -2 0.99456754E-01 0.17686227E+04</pdfrwt>
<totfact> 0.14803865E+01</totfact>
</mgrwt>
</event>
<event>
 6    1  0.2436515E-005  0.8453036E+03  0.7818608E-02  0.9496662E-01
          2   -1    0    0  501    0  0.00000000000E+00  0.00000000000E+00  0.17663209962E+04  0.17663209962E+04  0.00000000000E+00 0.  1.
         -2   -1    0    0    0  501 -0.00000000000E+00 -0.00000000000E+00 -0.10113368154E+03  0.10113368154E+03  0.00000000000E+00 0. -1.
         23    2    1    2    0    0  0.27153880687E+03 -0.13337155939E+03  0.14789430135E+04  0.15121966923E+04  0.89135304794E+02 0.  0.
         13    1    3    3    0    0  0.16283979315E+03 -0.50245174159E+02  0.98572946888E+03  0.10003519189E+04  0.00000000000E+00 0. -1.
        -13    1    3    3    0    0  0.10869901372E+03 -0.83126385232E+02  0.49321354462E+03  0.51184477344E+03  0.00000000000E+00 0.  1.
         22    1    1    2    0    0 -0.27153880687E+03  0.13337155939E+03  0.18624430114E+03  0.35525798541E+03  0.00000000000E+00 0. -1.
<mgrwt>
<rscale>  0 0.84530360E+03</rscale>
<asrwt>0</asrwt>
<pdfrwt beam="1">  1        2 0.27174167E+00 0.84530360E+03</pdfrwt>
<pdfrwt beam="2">  1       -2 0.15559029E-01 0.84530360E+03</pdfrwt>
<totfact> 0.30001371E+02</totfact>
</mgrwt>
</event>
<event>
 6    1  0.2436515E-005  0.3581257E+04  0.7818608E-02  0.8094799E-01
          2   -1    0    0  501    0  0.00000000000E+00  0.00000000000E+00  0.16199552259E+04  0.16199552259E+04  0.00000000000E+00 0.  1.
         -2   -1    0    0    0  501 -0.00000000000E+00 -0.00000000000E+00 -0.19792828243E+04  0.19792828243E+04  0.00000000000E+00 0. -1.
         23    2    1    2    0    0  0.72184010169E+03  0.13188893132E+04 -0.11549947181E+04  0.18981771112E+04  0.92419659735E+02 0.  0.
         11    1    3    3    0    0  0.22476632083E+03  0.32645412528E+03 -0.30946195746E+03  0.50285077111E+03  0.00000000000E+00 0. -1.
        -11    1    3    3    0    0  0.49707378086E+03  0.99243518794E+03 -0.84553276067E+03  0.13953263401E+04  0.00000000000E+00 0.  1.
         22    1    1    2    0    0 -0.72184010169E+03 -0.13188893132E+04  0.79566711968E+03  0.17010609390E+04  0.00000000000E+00 0.  1.
<mgrwt>
<rscale>  0 0.35812565E+04</rscale>
<asrwt>0</asrwt>
<pdfrwt beam="1">  1        2 0.24922388E+00 0.35812565E+04</pdfrwt>
<pdfrwt beam="2">  1       -2 0.30450505E+00 0.35812565E+04</pdfrwt>
<totfact> 0.26458668E-01</totfact>
</mgrwt>
</event>
<event>
 6    1  0.2436515E-005  0.1041408E+04  0.7818608E-02  0.9264260E-01
          2   -1    0    0  501    0  0.00000000000E+00  0.00000000000E+00  0.15539056364E+04  0.15539056364E+04  0.00000000000E+00 0.  1.
         -2   -1    0    0    0  501 -0.00000000000E+00 -0.00000000000E+00 -0.17448467294E+03  0.17448467294E+03  0.00000000000E+00 0. -1.
         23    2    1    2    0    0 -0.28469408496E+03  0.42910521683E+03  0.62081862701E+03  0.81151544655E+03  0.89216272185E+02 0.  0.
         13    1    3    3    0    0 -0.19744769826E+03  0.34681349568E+03  0.43477463462E+03  0.59016453405E+03  0.00000000000E+00 0. -1.
        -13    1    3    3    0    0 -0.87246386696E+02  0.82291721148E+02  0.18604399240E+03  0.22135091251E+03  0.00000000000E+00 0.  1.
         22    1    1    2    0    0  0.28469408496E+03 -0.42910521683E+03  0.75860233640E+03  0.91687486274E+03  0.00000000000E+00 0. -1.
<mgrwt>
<rscale>  0 0.10414081E+04</rscale>
<asrwt>0</asrwt>
<pdfrwt beam="1">  1        2 0.23906240E+00 0.10414081E+04</pdfrwt>
<pdfrwt beam="2">  1       -2 0.26843797E-01 0.10414081E+04</pdfrwt>
<totfact> 0.14845348E+02</totfact>
</mgrwt>
</event>
<event>
 6    1  0.2436515E-005  0.3362821E+04  0.7818608E-02  0.8147092E-01
          2   -1    0    0  501    0  0.00000000000E+00  0.00000000000E+00  0.17778229804E+04  0.17778229804E+04  0.00000000000E+00 0.  1.
         -2   -1    0    0    0  501 -0.00000000000E+00 -0.00000000000E+00 -0.15902267896E+04  0.15902267896E+04  0.00000000000E+00 0. -1.
         23    2    1    2    0    0  0.10146167196E+04  0.13389827093E+04  0.68161504582E+02  0.16838329111E+04  0.91244168057E+02 0.  0.
         11    1    3    3    0    0  0.65622168727E+03  0.86128879336E+03  0.28001165304E+00  0.10827951638E+04  0.00000000000E+00 0. -1.
        -11    1    3    3    0    0  0.35839503235E+03  0.47769391596E+03  0.67881492929E+02  0.60103774727E+03  0.00000000000E+00 0.  1.
         22    1    1    2    0    0 -0.10146167196E+04 -0.13389827093E+04  0.11943468613E+03  0.16842168589E+04  0.00000000000E+00 0. -1.
<mgrwt>
<rscale>  0 0.33628213E+04</rscale>
<asrwt>0</asrwt>
<pdfrwt beam="1">  1        2 0.27351123E+00 0.33628213E+04</pdfrwt>
<pdfrwt beam="2">  1       -2 0.24465028E+00 0.33628213E+04</pdfrwt>
<totfact> 0.51143099E-01</totfact>
</mgrwt>
</event>
<event>
 6    1  0.2436515E-005  0.2249439E+04  0.7818608E-02  0.8498128E-01
         -2   -1    0    0    0  501 -0.00000000000E+00  0.00000000000E+00  0.11311728558E+04  0.11311728558E+04  0.00000000000E+00 0.  1.
          2   -1    0    0  501    0  0.00000000000E+00 -0.00000000000E+00 -0.11183034255E+04  0.11183034255E+04  0.00000000000E+00 0. -1.
         23    2    1    2    0    0 -0.93911045099E+03 -0.45010942995E+02 -0.60738119805E+03  0.11231258625E+04  0.92441111522E+02 0.  0.
         13    1    3    3    0    0 -0.12753276201E+03  0.25352565794E+02 -0.78875012142E+02  0.15208098342E+03  0.00000000000E+00 0.  1.
        -13    1    3    3    0    0 -0.81157768899E+03 -0.70363508790E+02 -0.52850618590E+03  0.97104487907E+03  0.00000000000E+00 0. -1.
         22    1    1    2    0    0  0.93911045099E+03  0.45010942995E+02  0.62025062832E+03  0.11263504189E+04  0.00000000000E+00 0.  1.
<mgrwt>
<rscale>  0 0.22494395E+04</rscale>
<asrwt>0</asrwt>
<pdfrwt beam="1">  1        2 0.17204668E+00 0.22494395E+04</pdfrwt>
<pdfrwt beam="2">  1       -2 0.17402659E+00 0.22494395E+04</pdfrwt>
<totfact> 0.38570833E+00</totfact>
</mgrwt>
</event>
<event>
 6    1  0.2436515E-005  0.5884917E+03  0.7818608E-02  0.9929574E-01
          2   -1    0    0  501    0  0.00000000000E+00  0.00000000000E+00  0.95159448790E+03  0.95159448790E+03  0.00000000000E+00 0.  1.
         -2   -1    0    0    0  501 -0.00000000000E+00 -0.00000000000E+00 -0.90984797098E+02  0.90984797098E+02  0.00000000000E+00 0. -1.
         23    2    1    2    0    0 -0.19061636626E+03  0.12040256116E+03  0.12603471630E+03  0.27418370394E+03  0.91981400150E+02 0.  0.
         13    1    3    3    0    0 -0.11044219540E+03  0.48633759001E+02  0.11382667950E+03  0.16588922209E+03  0.00000000000E+00 0. -1.
        -13    1    3    3    0    0 -0.80174170863E+02  0.71768802163E+02  0.12208036797E+02  0.10829448185E+03  0.00000000000E+00 0.  1.
         22    1    1    2    0    0  0.19061636626E+03 -0.12040256116E+03  0.73457497450E+03  0.76839558106E+03  0.00000000000E+00 0.  1.
<mgrwt>
<rscale>  0 0.58849174E+03</rscale>
<asrwt>0</asrwt>
<pdfrwt beam="1">  1        2 0.14639914E+00 0.58849174E+03</pdfrwt>
<pdfrwt beam="2">  1       -2 0.13997662E-01 0.58849174E+03</pdfrwt>
<totfact> 0.10740206E+03</totfact>
</mgrwt>
</event>
<event>
 6    1  0.2436515E-005  0.2882501E+04  0.7818608E-02  0.8278103E-01
         -2   -1    0    0    0  501 -0.00000000000E+00  0.00000000000E+00  0.10537465523E+04  0.10537465523E+04  0.00000000000E+00 0. -1.
          2   -1    0    0  501    0  0.00000000000E+00 -0.00000000000E+00 -0.19712553797E+04  0.19712553797E+04  0.00000000000E+00 0.  1.
         23    2    1    2    0    0  0.20447202666E+03  0.14236769425E+04 -0.38865577126E+03  0.14925690946E+04  0.89690284253E+02 0.  0.
         11    1    3    3    0    0  0.60621466014E+02  0.69095464385E+03 -0.21140265476E+03  0.72510989819E+03  0.00000000000E+00 0.  1.
        -11    1    3    3    0    0  0.14385056064E+03  0.73272229869E+03 -0.17725311650E+03  0.76745919637E+03  0.00000000000E+00 0. -1.
         22    1    1    2    0    0 -0.20447202666E+03 -0.14236769425E+04 -0.52885305616E+03  0.15324328375E+04  0.00000000000E+00 0. -1.
<mgrwt>
<rscale>  0 0.28825014E+04</rscale>
<asrwt>0</asrwt>
<pdfrwt beam="1">  1        2 0.30327006E+00 0.28825014E+04</pdfrwt>
<pdfrwt beam="2">  1       -2 0.16211485E+00 0.28825014E+04</pdfrwt>
<totfact> 0.14560792E+00</totfact>
</mgrwt>
</event>
<event>
 6    1  0.2436515E-005  0.2798031E+04  0.7818608E-02  0.8303880E-01
          1   -1    0    0  501    0  0.00000000000E+00  0.00000000000E+00  0.68764398466E+03  0.68764398466E+03  0.00000000000E+00 0.  1.
         -1   -1    0    0    0  501 -0.00000000000E+00 -0.00000000000E+00 -0.28463039905E+04  0.28463039905E+04  0.00000000000E+00 0. -1.
         23    2    1    2    0    0 -0.38346358715E+03 -0.73293974287E+03  0.34225949808E+03  0.89977953818E+03  0.90645816040E+02 0.  0.
         11    1    3    3    0    0 -0.20638427066E+03 -0.35855121914E+03  0.12545977518E+03  0.43231192340E+03  0.00000000000E+00 0. -1.
        -11    1    3    3    0    0 -0.17707931650E+03 -0.37438852372E+03  0.21679972289E+03  0.46746761479E+03  0.00000000000E+00 0.  1.
         22    1    1    2    0    0  0.38346358715E+03  0.73293974287E+03 -0.25009195040E+04  0.26341684370E+04  0.00000000000E+00 0. -1.
<mgrwt>
<rscale>  0 0.27980306E+04</rscale>
<asrwt>0</asrwt>
<pdfrwt beam="1">  1        1 0.10579138E+00 0.27980306E+04</pdfrwt>
<pdfrwt beam="2">  1       -1 0.43789293E+00 0.27980306E+04</pdfrwt>
<totfact> 0.94982497E-02</totfact>
</mgrwt>
</event>
<event>
 6    1  0.2436515E-005  0.1835215E+04  0.7818608E-02  0.8687793E-01
         -2   -1    0    0    0  501 -0.00000000000E+00  0.00000000000E+00  0.40062573662E+03  0.40062573662E+03  0.00000000000E+00 0. -1.
          2   -1    0    0  501    0  0.00000000000E+00 -0.00000000000E+00 -0.21017216963E+04  0.21017216963E+04  0.00000000000E+00 0.  1.
         23    2    1    2    0    0  0.19058305392E+03  0.98196499541E+02 -0.20659954277E+04  0.20791263622E+04  0.92004726903E+02 0.  0.
         13    1    3    3    0    0  0.11554005201E+02  0.38118227179E+02 -0.54487008526E+03  0.54632399187E+03  0.00000000000E+00 0.  1.
        -13    1    3    3    0    0  0.17902904872E+03  0.60078272362E+02 -0.15211253424E+04  0.15328023703E+04  0.00000000000E+00 0. -1.
         22    1    1    2    0    0 -0.19058305392E+03 -0.98196499541E+02  0.36489946800E+03  0.42322107073E+03  0.00000000000E+00 0. -1.
<mgrwt>
<rscale>  0 0.18352153E+04</rscale>
<asrwt>0</asrwt>
<pdfrwt beam="1">  1        2 0.32334179E+00 0.18352153E+04</pdfrwt>
<pdfrwt beam="2">  1       -2 0.61634730E-01 0.18352153E+04</pdfrwt>
<totfact> 0.13502894E+01</totfact>
</mgrwt>
</event>
<event>
 6    1  0.2436515E-005  0.5459797E+04  0.7818608E-02  0.7761245E-01
         -2   -1    0    0    0  501 -0.00000000000E+00  0.00000000000E+00  0.31526741137E+04  0.31526741137E+04  0.00000000000E+00 0. -1.
          2   -1    0    0  501    0  0.00000000000E+00 -0.00000000000E+00 -0.23638170752E+04  0.23638170752E+04  0.00000000000E+00 0.  1.
         23    2    1    2    0    0 -0.20971214503E+04 -0.17095872772E+04  0.75477204612E+03  0.28106144692E+04  0.96259113662E+02 0.  0.
         11    1    3    3    0    0 -0.13589719513E+04 -0.10523696038E+04  0.49714793055E+03  0.17892575590E+04  0.00000000000E+00 0. -1.
        -11    1    3    3    0    0 -0.73814949905E+03 -0.65721767341E+03  0.25762411557E+03  0.10213569102E+04  0.00000000000E+00 0.  1.
         22    1    1    2    0    0  0.20971214503E+04  0.17095872772E+04  0.34084992377E+02  0.27058767198E+04  0.00000000000E+00 0. -1.
<mgrwt>
<rscale>  0 0.54597967E+04</rscale>
<asrwt>0</asrwt>
<pdfrwt beam="1">  1        2 0.36366417E+00 0.54597967E+04</pdfrwt>
<pdfrwt beam="2">  1       -2 0.48502679E+00 0.54597967E+04</pdfrwt>
<totfact> 0.60456849E-03</totfact>
</mgrwt>
</event>
<event>
 6    1  0.2436515E-005  0.3085323E+04  0.7818608E-02  0.8219777E-01
         -2   -1    0    0    0  501 -0.00000000000E+00  0.00000000000E+00  0.13440114873E+04  0.13440114873E+04  0.00000000000E+00 0. -1.
          2   -1    0    0  501    0  0.00000000000E+00 -0.00000000000E+00 -0.17706732142E+04  0.17706732142E+04  0.00000000000E+00 0.  1.
         23    2    1    2    0    0 -0.54483765003E+03  0.40658418610E+03 -0.16099536672E+04  0.17500094355E+04  0.91779347332E+02 0.  0.
         13    1    3    3    0    0 -0.26990784128E+03  0.15267381804E+03 -0.66945931897E+03  0.73779083571E+03  0.00000000000E+00 0. -1.
        -13    1    3    3    0    0 -0.27492980874E+03  0.25391036807E+03 -0.94049434824E+03  0.10122185998E+04  0.00000000000E+00 0.  1.
         22    1    1    2    0    0  0.54483765003E+03 -0.40658418610E+03  0.11832919404E+04  0.13646752659E+04  0.00000000000E+00 0. -1.
<mgrwt>
<rscale>  0 0.30853234E+04</rscale>
<asrwt>0</asrwt>
<pdfrwt beam="1">  1        2 0.27241126E+00 0.30853234E+04</pdfrwt>
<pdfrwt beam="2">  1       -2 0.20677100E+00 0.30853234E+04</pdfrwt>
<totfact> 0.91496729E-01</totfact>
</mgrwt>
</event>
<event>
 6    1  0.2436515E-005  0.1008992E+04  0.7818608E-02  0.9298738E-01
         -2   -1    0    0    0  501 -0.00000000000E+00  0.00000000000E+00  0.13489192229E+03  0.13489192229E+03  0.00000000000E+00 0. -1.
          2   -1    0    0  501    0  0.00000000000E+00 -0.00000000000E+00 -0.18868140924E+04  0.18868140924E+04  0.00000000000E+00 0.  1.
         23    2    1    2    0    0  0.40181216922E+03  0.28868668874E+03 -0.10300890990E+04  0.11465854481E+04  0.93710267434E+02 0.  0.
         13    1    3    3    0    0  0.22892683456E+03  0.21833375542E+03 -0.67368195895E+03  0.74426104704E+03  0.00000000000E+00 0.  1.
        -13    1    3    3    0    0  0.17288533466E+03  0.70352933317E+02 -0.35640714009E+03  0.40232440104E+03  0.00000000000E+00 0. -1.
         22    1    1    2    0    0 -0.40181216922E+03 -0.28868668874E+03 -0.72183307107E+03  0.87512056659E+03  0.00000000000E+00 0.  1.
<mgrwt>
<rscale>  0 0.10089915E+04</rscale>
<asrwt>0</asrwt>
<pdfrwt beam="1">  1        2 0.29027912E+00 0.10089915E+04</pdfrwt>
<pdfrwt beam="2">  1       -2 0.20752602E-01 0.10089915E+04</pdfrwt>
<totfact> 0.15466925E+02</totfact>
</mgrwt>
</event>
<event>
 6    1  0.2436515E-005  0.6330826E+03  0.7818608E-02  0.9839052E-01
         -2   -1    0    0    0  501 -0.00000000000E+00  0.00000000000E+00  0.74072699837E+02  0.74072699837E+02  0.00000000000E+00 0. -1.
          2   -1    0    0  501    0  0.00000000000E+00 -0.00000000000E+00 -0.13527033203E+04  0.13527033203E+04  0.00000000000E+00 0.  1.
         23    2    1    2    0    0  0.16876154217E+03 -0.25831647643E+03 -0.71395099249E+03  0.78329257640E+03  0.92808299509E+02 0.  0.
         11    1    3    3    0    0  0.11742315005E+03 -0.23031390195E+03 -0.52000226643E+03  0.58071942165E+03  0.00000000000E+00 0. -1.
        -11    1    3    3    0    0  0.51338392113E+02 -0.28002574487E+02 -0.19394872607E+03  0.20257315475E+03  0.00000000000E+00 0.  1.
         22    1    1    2    0    0 -0.16876154217E+03  0.25831647643E+03 -0.56467962796E+03  0.64348344372E+03  0.00000000000E+00 0.  1.
<mgrwt>
<rscale>  0 0.63308258E+03</rscale>
<asrwt>0</asrwt>
<pdfrwt beam="1">  1        2 0.20810820E+00 0.63308258E+03</pdfrwt>
<pdfrwt beam="2">  1       -2 0.11395800E-01 0.63308258E+03</pdfrwt>
<totfact> 0.86608987E+02</totfact>
</mgrwt>
</event>
<event>
 6    1  0.2436515E-005  0.1900083E+04  0.7818608E-02  0.8654815E-01
         -2   -1    0    0    0  501 -0.00000000000E+00  0.00000000000E+00  0.39463666698E+03  0.39463666698E+03  0.00000000000E+00 0. -1.
          2   -1    0    0  501    0  0.00000000000E+00 -0.00000000000E+00 -0.22871125895E+04  0.22871125895E+04  0.00000000000E+00 0.  1.
         23    2    1    2    0    0  0.61551415946E+03 -0.86242698423E+02  0.61503973618E+02  0.63130225203E+03  0.92001690809E+02 0.  0.
         13    1    3    3    0    0  0.30597317555E+03 -0.12220107888E+02 -0.45520117531E+01  0.30625093633E+03  0.00000000000E+00 0.  1.
        -13    1    3    3    0    0  0.30954098391E+03 -0.74022590535E+02  0.66055985371E+02  0.32505131569E+03  0.00000000000E+00 0. -1.
         22    1    1    2    0    0 -0.61551415946E+03  0.86242698423E+02 -0.19539798961E+04  0.20504470044E+04  0.00000000000E+00 0.  1.
<mgrwt>
<rscale>  0 0.19000826E+04</rscale>
<asrwt>0</asrwt>
<pdfrwt beam="1">  1        2 0.35186346E+00 0.19000826E+04</pdfrwt>
<pdfrwt beam="2">  1       -2 0.60713335E-01 0.19000826E+04</pdfrwt>
<totfact> 0.10910021E+01</totfact>
</mgrwt>
</event>
<event>
 6    1  0.2436515E-005  0.1338038E+04  0.7818608E-02  0.8999933E-01
          2   -1    0    0  501    0  0.00000000000E+00  0.00000000000E+00  0.10520674669E+04  0.10520674669E+04  0.00000000000E+00 0.  1.
         -2   -1    0    0    0  501 -0.00000000000E+00 -0.00000000000E+00 -0.42543534234E+03  0.42543534234E+03  0.00000000000E+00 0. -1.
         23    2    1    2    0    0 -0.51128267945E+03  0.42038128205E+03  0.23360748887E+03  0.70769844133E+03  0.90189935127E+02 0.  0.
         13    1    3    3    0    0 -0.18514268053E+03  0.99261450573E+02  0.64323339687E+02  0.21970011323E+03  0.00000000000E+00 0. -1.
        -13    1    3    3    0    0 -0.32613999892E+03  0.32111983148E+03  0.16928414918E+03  0.48799832810E+03  0.00000000000E+00 0.  1.
         22    1    1    2    0    0  0.51128267945E+03 -0.42038128205E+03  0.39302463574E+03  0.76980436795E+03  0.00000000000E+00 0.  1.
<mgrwt>
<rscale>  0 0.13380384E+04</rscale>
<asrwt>0</asrwt>
<pdfrwt beam="1">  1        2 0.16185653E+00 0.13380384E+04</pdfrwt>
<pdfrwt beam="2">  1       -2 0.65451591E-01 0.13380384E+04</pdfrwt>
<totfact> 0.49079933E+01</totfact>
</mgrwt>
</event>
<event>
 6    1  0.2436515E-005  0.7748920E+03  0.7818608E-02  0.9597088E-01
          2   -1    0    0  501    0  0.00000000000E+00  0.00000000000E+00  0.99930137609E+03  0.99930137609E+03  0.00000000000E+00 0.  1.
         -2   -1    0    0    0  501 -0.00000000000E+00 -0.00000000000E+00 -0.15021934870E+03  0.15021934870E+03  0.00000000000E+00 0. -1.
         23    2    1    2    0    0 -0.46354044399E+02 -0.36279220743E+03  0.59462673147E+03  0.70397119800E+03  0.90706199496E+02 0.  0.
         11    1    3    3    0    0 -0.28089463222E+02 -0.23882244231E+03  0.46606035468E+03  0.52444011203E+03  0.00000000000E+00 0.  1.
        -11    1    3    3    0    0 -0.18264581177E+02 -0.12396976513E+03  0.12856637679E+03  0.17953108598E+03  0.00000000000E+00 0. -1.
         22    1    1    2    0    0  0.46354044399E+02  0.36279220743E+03  0.25445529591E+03  0.44554952679E+03  0.00000000000E+00 0. -1.
<mgrwt>
<rscale>  0 0.77489200E+03</rscale>
<asrwt>0</asrwt>
<pdfrwt beam="1">  1        2 0.15373867E+00 0.77489200E+03</pdfrwt>
<pdfrwt beam="2">  1       -2 0.23110670E-01 0.77489200E+03</pdfrwt>
<totfact> 0.41862638E+02</totfact>
</mgrwt>
</event>
<event>
 6    1  0.2436515E-005  0.2170513E+04  0.7818608E-02  0.8530802E-01
         -4   -1    0    0    0  501 -0.00000000000E+00  0.00000000000E+00  0.47542644942E+03  0.47542644942E+03  0.00000000000E+00 0. -1.
          4   -1    0    0  501    0  0.00000000000E+00 -0.00000000000E+00 -0.24773169483E+04  0.24773169483E+04  0.00000000000E+00 0.  1.
         23    2    1    2    0    0 -0.13716460265E+03 -0.72420575416E+03  0.77330482448E+02  0.74674067972E+03  0.91397684065E+02 0.  0.
         11    1    3    3    0    0  0.52800907708E+00 -0.18685084996E+03  0.37653867159E+02  0.19060779795E+03  0.00000000000E+00 0. -1.
        -11    1    3    3    0    0 -0.13769261173E+03 -0.53735490420E+03  0.39676615289E+02  0.55613288177E+03  0.00000000000E+00 0.  1.
         22    1    1    2    0    0  0.13716460265E+03  0.72420575416E+03 -0.20792209813E+04  0.22060027180E+04  0.00000000000E+00 0.  1.
<mgrwt>
<rscale>  0 0.21705133E+04</rscale>
<asrwt>0</asrwt>
<pdfrwt beam="1">  1        4 0.38112568E+00 0.21705133E+04</pdfrwt>
<pdfrwt beam="2">  1       -4 0.73142532E-01 0.21705133E+04</pdfrwt>
<totfact> 0.28684054E-02</totfact>
</mgrwt>
</event>
<event>
 6    1  0.2436515E-005  0.1940973E+04  0.7818608E-02  0.8634726E-01
         -2   -1    0    0    0  501 -0.00000000000E+00  0.00000000000E+00  0.13720736946E+04  0.13720736946E+04  0.00000000000E+00 0. -1.
          2   -1    0    0  501    0  0.00000000000E+00 -0.00000000000E+00 -0.68643840862E+03  0.68643840862E+03  0.00000000000E+00 0.  1.
         23    2    1    2    0    0  0.42776697438E+03 -0.27526152808E+03 -0.53030073517E+03  0.74046282464E+03  0.91174731934E+02 0.  0.
         11    1    3    3    0    0  0.23606495456E+03 -0.17557735637E+03 -0.36265230804E+03  0.46698047857E+03  0.00000000000E+00 0. -1.
        -11    1    3    3    0    0  0.19170201982E+03 -0.99684171713E+02 -0.16764842713E+03  0.27348234607E+03  0.00000000000E+00 0.  1.
         22    1    1    2    0    0 -0.42776697438E+03  0.27526152808E+03  0.12159360212E+04  0.13180492786E+04  0.00000000000E+00 0. -1.
<mgrwt>
<rscale>  0 0.19409730E+04</rscale>
<asrwt>0</asrwt>
<pdfrwt beam="1">  1        2 0.10560591E+00 0.19409730E+04</pdfrwt>
<pdfrwt beam="2">  1       -2 0.21108826E+00 0.19409730E+04</pdfrwt>
<totfact> 0.44148004E+00</totfact>
</mgrwt>
</event>
<event>
 6    1  0.2436515E-005  0.2249095E+04  0.7818608E-02  0.8498267E-01
          2   -1    0    0  501    0  0.00000000000E+00  0.00000000000E+00  0.17453442282E+04  0.17453442282E+04  0.00000000000E+00 0.  1.
         -2   -1    0    0    0  501 -0.00000000000E+00 -0.00000000000E+00 -0.72456039199E+03  0.72456039199E+03  0.00000000000E+00 0. -1.
         23    2    1    2    0    0 -0.13870217425E+03  0.96664285113E+03  0.11196929729E+04  0.14883651599E+04  0.88779507341E+02 0.  0.
         13    1    3    3    0    0 -0.95927734110E+02  0.43131741118E+03  0.54897335185E+03  0.70470460507E+03  0.00000000000E+00 0.  1.
        -13    1    3    3    0    0 -0.42774440142E+02  0.53532543995E+03  0.57071962107E+03  0.78366055487E+03  0.00000000000E+00 0. -1.
         22    1    1    2    0    0  0.13870217425E+03 -0.96664285113E+03 -0.98909136667E+02  0.98153946029E+03  0.00000000000E+00 0. -1.
<mgrwt>
<rscale>  0 0.22490952E+04</rscale>
<asrwt>0</asrwt>
<pdfrwt beam="1">  1        2 0.26851450E+00 0.22490952E+04</pdfrwt>
<pdfrwt beam="2">  1       -2 0.11147083E+00 0.22490952E+04</pdfrwt>
<totfact> 0.53597140E+00</totfact>
</mgrwt>
</event>
<event>
 6    1  0.2436515E-005  0.3477183E+04  0.7818608E-02  0.8119219E-01
         -2   -1    0    0    0  501 -0.00000000000E+00  0.00000000000E+00  0.12732366249E+04  0.12732366249E+04  0.00000000000E+00 0. -1.
          2   -1    0    0  501    0  0.00000000000E+00 -0.00000000000E+00 -0.23740281076E+04  0.23740281076E+04  0.00000000000E+00 0.  1.
         23    2    1    2    0    0  0.14884404869E+04  0.89155494311E+03 -0.45623746382E+03  0.17963797596E+04  0.92208013495E+02 0.  0.
         11    1    3    3    0    0  0.43790296732E+03  0.31188984933E+03 -0.14369236494E+03  0.55649059529E+03  0.00000000000E+00 0. -1.
        -11    1    3    3    0    0  0.10505375196E+04  0.57966509378E+03 -0.31254509888E+03  0.12398891643E+04  0.00000000000E+00 0.  1.
         22    1    1    2    0    0 -0.14884404869E+04 -0.89155494311E+03 -0.64455401884E+03  0.18508849729E+04  0.00000000000E+00 0.  1.
<mgrwt>
<rscale>  0 0.34771825E+04</rscale>
<asrwt>0</asrwt>
<pdfrwt beam="1">  1        2 0.36523509E+00 0.34771825E+04</pdfrwt>
<pdfrwt beam="2">  1       -2 0.19588256E+00 0.34771825E+04</pdfrwt>
<totfact> 0.47953235E-01</totfact>
</mgrwt>
</event>
<event>
 6    1  0.2436515E-005  0.1946153E+04  0.7818608E-02  0.8632218E-01
          2   -1    0    0  501    0  0.00000000000E+00  0.00000000000E+00  0.12589951041E+04  0.12589951041E+04  0.00000000000E+00 0.  1.
         -2   -1    0    0    0  501 -0.00000000000E+00 -0.00000000000E+00 -0.75209006157E+03  0.75209006157E+03  0.00000000000E+00 0. -1.
         23    2    1    2    0    0  0.45921734320E+03  0.35134398305E+03 -0.55196825362E+03  0.80462927339E+03  0.91848526830E+02 0.  0.
         11    1    3    3    0    0  0.15149898602E+03  0.68351915587E+02 -0.13434706582E+03  0.21371256683E+03  0.00000000000E+00 0.  1.
        -11    1    3    3    0    0  0.30771835718E+03  0.28299206746E+03 -0.41762118780E+03  0.59091670656E+03  0.00000000000E+00 0. -1.
         22    1    1    2    0    0 -0.45921734320E+03 -0.35134398305E+03  0.10588732961E+04  0.12064558923E+04  0.00000000000E+00 0.  1.
<mgrwt>
<rscale>  0 0.19461528E+04</rscale>
<asrwt>0</asrwt>
<pdfrwt beam="1">  1        2 0.19369155E+00 0.19461528E+04</pdfrwt>
<pdfrwt beam="2">  1       -2 0.11570616E+00 0.19461528E+04</pdfrwt>
<totfact> 0.94724453E+00</totfact>
</mgrwt>
</event>
<event>
 6    1  0.2436515E-005  0.1105964E+04  0.7818608E-02  0.9199399E-01
          2   -1    0    0  501    0  0.00000000000E+00  0.00000000000E+00  0.15026534732E+04  0.15026534732E+04  0.00000000000E+00 0.  1.
         -2   -1    0    0    0  501 -0.00000000000E+00 -0.00000000000E+00 -0.20349927673E+03  0.20349927673E+03  0.00000000000E+00 0. -1.
         23    2    1    2    0    0  0.37584315788E+03 -0.18187014794E+03  0.10359409589E+03  0.43978045706E+03  0.91325153543E+02 0.  0.
         11    1    3    3    0    0  0.34320136667E+03 -0.19174903587E+03  0.98620353351E+02  0.40531573488E+03  0.00000000000E+00 0. -1.
        -11    1    3    3    0    0  0.32641791208E+02  0.98788879349E+01  0.49737425400E+01  0.34464722180E+02  0.00000000000E+00 0.  1.
         22    1    1    2    0    0 -0.37584315788E+03  0.18187014794E+03  0.11955601006E+04  0.12663722929E+04  0.00000000000E+00 0.  1.
<mgrwt>
<rscale>  0 0.11059636E+04</rscale>
<asrwt>0</asrwt>
<pdfrwt beam="1">  1        2 0.23117745E+00 0.11059636E+04</pdfrwt>
<pdfrwt beam="2">  1       -2 0.31307582E-01 0.11059636E+04</pdfrwt>
<totfact> 0.11876406E+02</totfact>
</mgrwt>
</event>
<event>
 6    1  0.2436515E-005  0.5552043E+04  0.7818608E-02  0.7748568E-01
          2   -1    0    0  501    0  0.00000000000E+00  0.00000000000E+00  0.42996290492E+04  0.42996290492E+04  0.00000000000E+00 0.  1.
         -2   -1    0    0    0  501 -0.00000000000E+00 -0.00000000000E+00 -0.17923161029E+04  0.17923161029E+04  0.00000000000E+00 0. -1.
         23    2    1    2    0    0  0.78278941085E+03 -0.25275249165E+03  0.41623089263E+04  0.42437961382E+04  0.91361813748E+02 0.  0.
         11    1    3    3    0    0  0.51272514842E+03 -0.12115899980E+03  0.27118078686E+04  0.27625112665E+04  0.00000000000E+00 0. -1.
        -11    1    3    3    0    0  0.27006426243E+03 -0.13159349186E+03  0.14505010577E+04  0.14812848718E+04  0.00000000000E+00 0.  1.
         22    1    1    2    0    0 -0.78278941085E+03  0.25275249165E+03 -0.16549959800E+04  0.18481490139E+04  0.00000000000E+00 0. -1.
<mgrwt>
<rscale>  0 0.55520426E+04</rscale>
<asrwt>0</asrwt>
<pdfrwt beam="1">  1        2 0.66148139E+00 0.55520426E+04</pdfrwt>
<pdfrwt beam="2">  1       -2 0.27574094E+00 0.55520426E+04</pdfrwt>
<totfact> 0.58663922E-03</totfact>
</mgrwt>
</event>
<event>
 6    1  0.2436515E-005  0.6867320E+03  0.7818608E-02  0.9740195E-01
         -2   -1    0    0    0  501 -0.00000000000E+00  0.00000000000E+00  0.21920904823E+04  0.21920904823E+04  0.00000000000E+00 0. -1.
          2   -1    0    0  501    0  0.00000000000E+00 -0.00000000000E+00 -0.53784365476E+02  0.53784365476E+02  0.00000000000E+00 0.  1.
         23    2    1    2    0    0  0.19257786178E+02  0.41473803190E+02  0.21809707117E+04  0.21833352097E+04  0.90710825823E+02 0.  0.
         13    1    3    3    0    0  0.52238734228E+02  0.20910368826E+02  0.16425571478E+04  0.16435206456E+04  0.00000000000E+00 0.  1.
        -13    1    3    3    0    0 -0.32980948051E+02  0.20563434364E+02  0.53841356389E+03  0.53981456404E+03  0.00000000000E+00 0. -1.
         22    1    1    2    0    0 -0.19257786178E+02 -0.41473803190E+02 -0.42664594857E+02  0.62539638101E+02  0.00000000000E+00 0.  1.
<mgrwt>
<rscale>  0 0.68673196E+03</rscale>
<asrwt>0</asrwt>
<pdfrwt beam="1">  1        2 0.82745194E-02 0.68673196E+03</pdfrwt>
<pdfrwt beam="2">  1       -2 0.33724462E+00 0.68673196E+03</pdfrwt>
<totfact> 0.16792041E+01</totfact>
</mgrwt>
</event>
<event>
 6    1  0.2436515E-005  0.2168012E+04  0.7818608E-02  0.8531861E-01
          2   -1    0    0  501    0  0.00000000000E+00  0.00000000000E+00  0.13018170729E+04  0.13018170729E+04  0.00000000000E+00 0.  1.
         -2   -1    0    0    0  501 -0.00000000000E+00 -0.00000000000E+00 -0.90263742558E+03  0.90263742558E+03  0.00000000000E+00 0. -1.
         23    2    1    2    0    0  0.26937200347E+02  0.91850329038E+03  0.78124637752E+03  0.12092917512E+04  0.87559864645E+02 0.  0.
         13    1    3    3    0    0  0.47187140808E+02  0.49111152312E+03  0.45610176693E+03  0.67189729587E+03  0.00000000000E+00 0. -1.
        -13    1    3    3    0    0 -0.20249940461E+02  0.42739176726E+03  0.32514461059E+03  0.53739445532E+03  0.00000000000E+00 0.  1.
         22    1    1    2    0    0 -0.26937200347E+02 -0.91850329038E+03 -0.38206673022E+03  0.99516274726E+03  0.00000000000E+00 0. -1.
<mgrwt>
<rscale>  0 0.21680118E+04</rscale>
<asrwt>0</asrwt>
<pdfrwt beam="1">  1        2 0.20027955E+00 0.21680118E+04</pdfrwt>
<pdfrwt beam="2">  1       -2 0.13886730E+00 0.21680118E+04</pdfrwt>
<totfact> 0.55446896E+00</totfact>
</mgrwt>
</event>
<event>
 6    1  0.2436515E-005  0.4178563E+04  0.7818608E-02  0.7969463E-01
          2   -1    0    0  501    0  0.00000000000E+00  0.00000000000E+00  0.12864589814E+04  0.12864589814E+04  0.00000000000E+00 0.  1.
         -2   -1    0    0    0  501 -0.00000000000E+00 -0.00000000000E+00 -0.33931105757E+04  0.33931105757E+04  0.00000000000E+00 0. -1.
         23    2    1    2    0    0  0.19595370036E+04  0.15936762909E+03 -0.18438067421E+04  0.26960699412E+04  0.63138863522E+02 0.  0.
         11    1    3    3    0    0  0.13565959162E+04  0.10982964707E+03 -0.13160122669E+04  0.18932256384E+04  0.00000000000E+00 0. -1.
        -11    1    3    3    0    0  0.60294108747E+03  0.49537982021E+02 -0.52779447515E+03  0.80284430285E+03  0.00000000000E+00 0.  1.
         22    1    1    2    0    0 -0.19595370036E+04 -0.15936762909E+03 -0.26284485218E+03  0.19834996159E+04  0.00000000000E+00 0.  1.
<mgrwt>
<rscale>  0 0.41785632E+04</rscale>
<asrwt>0</asrwt>
<pdfrwt beam="1">  1        2 0.19791677E+00 0.41785632E+04</pdfrwt>
<pdfrwt beam="2">  1       -2 0.52201701E+00 0.41785632E+04</pdfrwt>
<totfact> 0.15961003E-02</totfact>
</mgrwt>
</event>
<event>
 6    1  0.2436515E-005  0.1341808E+04  0.7818608E-02  0.8997052E-01
          2   -1    0    0  501    0  0.00000000000E+00  0.00000000000E+00  0.26584261281E+03  0.26584261281E+03  0.00000000000E+00 0.  1.
         -2   -1    0    0    0  501 -0.00000000000E+00 -0.00000000000E+00 -0.16931534544E+04  0.16931534544E+04  0.00000000000E+00 0. -1.
         23    2    1    2    0    0 -0.59909849204E+02 -0.56134412309E+03 -0.12376382996E+04  0.13634525442E+04  0.92508730212E+02 0.  0.
         11    1    3    3    0    0 -0.66237369805E+02 -0.33799763156E+03 -0.82931688471E+03  0.89799570342E+03  0.00000000000E+00 0. -1.
        -11    1    3    3    0    0  0.63275206008E+01 -0.22334649153E+03 -0.40832141489E+03  0.46545684081E+03  0.00000000000E+00 0.  1.
         22    1    1    2    0    0  0.59909849204E+02  0.56134412309E+03 -0.18967254197E+03  0.59554352295E+03  0.00000000000E+00 0.  1.
<mgrwt>
<rscale>  0 0.13418082E+04</rscale>
<asrwt>0</asrwt>
<pdfrwt beam="1">  1        2 0.40898863E-01 0.13418082E+04</pdfrwt>
<pdfrwt beam="2">  1       -2 0.26048515E+00 0.13418082E+04</pdfrwt>
<totfact> 0.68202960E+00</totfact>
</mgrwt>
</event>
<event>
 6    1  0.2436515E-005  0.7260764E+03  0.7818608E-02  0.9673649E-01
         -2   -1    0    0    0  501 -0.00000000000E+00  0.00000000000E+00  0.15890916364E+03  0.15890916364E+03  0.00000000000E+00 0. -1.
          2   -1    0    0  501    0  0.00000000000E+00 -0.00000000000E+00 -0.82938408279E+03  0.82938408279E+03  0.00000000000E+00 0.  1.
         23    2    1    2    0    0  0.33790937713E+03  0.97139587927E+02 -0.25560925500E+03  0.44448044225E+03  0.92778907132E+02 0.  0.
         13    1    3    3    0    0  0.16166431567E+03  0.13753270433E-01 -0.12791714478E+03  0.20615078724E+03  0.00000000000E+00 0.  1.
        -13    1    3    3    0    0  0.17624506146E+03  0.97125834657E+02 -0.12769211021E+03  0.23832965501E+03  0.00000000000E+00 0. -1.
         22    1    1    2    0    0 -0.33790937713E+03 -0.97139587927E+02 -0.41486566414E+03  0.54381280417E+03  0.00000000000E+00 0. -1.
<mgrwt>
<rscale>  0 0.72607639E+03</rscale>
<asrwt>0</asrwt>
<pdfrwt beam="1">  1        2 0.12759755E+00 0.72607639E+03</pdfrwt>
<pdfrwt beam="2">  1       -2 0.24447564E-01 0.72607639E+03</pdfrwt>
<totfact> 0.49260910E+02</totfact>
</mgrwt>
</event>
<event>
 6    1  0.2436515E-005  0.3258194E+04  0.7818608E-02  0.8173615E-01
         -2   -1    0    0    0  501 -0.00000000000E+00  0.00000000000E+00  0.70642137938E+03  0.70642137938E+03  0.00000000000E+00 0.  1.
          2   -1    0    0  501    0  0.00000000000E+00 -0.00000000000E+00 -0.37569029574E+04  0.37569029574E+04  0.00000000000E+00 0. -1.
         23    2    1    2    0    0 -0.13649385348E+04  0.83719856142E+03 -0.19293559382E+04  0.25086168561E+04  0.82374504356E+02 0.  0.
         13    1    3    3    0    0 -0.81776245736E+03  0.47233682436E+03 -0.10870519017E+04  0.14399719960E+04  0.00000000000E+00 0. -1.
        -13    1    3    3    0    0 -0.54717607747E+03  0.36486173705E+03 -0.84230403656E+03  0.10686448601E+04  0.00000000000E+00 0.  1.
         22    1    1    2    0    0  0.13649385348E+04 -0.83719856142E+03 -0.11211256398E+04  0.19547074808E+04  0.00000000000E+00 0.  1.
<mgrwt>
<rscale>  0 0.32581937E+04</rscale>
<asrwt>0</asrwt>
<pdfrwt beam="1">  1        2 0.57798506E+00 0.32581937E+04</pdfrwt>
<pdfrwt beam="2">  1       -2 0.10868021E+00 0.32581937E+04</pdfrwt>
<totfact> 0.29963555E-01</totfact>
</mgrwt>
</event>
<event>
 6    1  0.2436515E-005  0.1049142E+04  0.7818608E-02  0.9256230E-01
         -2   -1    0    0    0  501 -0.00000000000E+00  0.00000000000E+00  0.20574442186E+03  0.20574442186E+03  0.00000000000E+00 0. -1.
          2   -1    0    0  501    0  0.00000000000E+00 -0.00000000000E+00 -0.13374597806E+04  0.13374597806E+04  0.00000000000E+00 0.  1.
         23    2    1    2    0    0  0.49610263095E+03  0.15726092922E+03 -0.56833707103E+03  0.77623359326E+03  0.93181246582E+02 0.  0.
         13    1    3    3    0    0  0.33545898747E+03  0.92578821401E+02 -0.31518887491E+03  0.46951847388E+03  0.00000000000E+00 0. -1.
        -13    1    3    3    0    0  0.16064364347E+03  0.64682107819E+02 -0.25314819611E+03  0.30671511938E+03  0.00000000000E+00 0.  1.
         22    1    1    2    0    0 -0.49610263095E+03 -0.15726092922E+03 -0.56337828769E+03  0.76697060917E+03  0.00000000000E+00 0.  1.
<mgrwt>
<rscale>  0 0.10491423E+04</rscale>
<asrwt>0</asrwt>
<pdfrwt beam="1">  1        2 0.20576304E+00 0.10491423E+04</pdfrwt>
<pdfrwt beam="2">  1       -2 0.31652989E-01 0.10491423E+04</pdfrwt>
<totfact> 0.14500367E+02</totfact>
</mgrwt>
</event>
<event>
 6    1  0.2436515E-005  0.4351762E+04  0.7818608E-02  0.7937116E-01
         -2   -1    0    0    0  501 -0.00000000000E+00  0.00000000000E+00  0.15578515829E+04  0.15578515829E+04  0.00000000000E+00 0. -1.
          2   -1    0    0  501    0  0.00000000000E+00 -0.00000000000E+00 -0.30390941438E+04  0.30390941438E+04  0.00000000000E+00 0.  1.
         23    2    1    2    0    0 -0.52728061258E+03  0.73213748466E+03  0.13493056264E+04  0.16260783145E+04  0.97236158178E+02 0.  0.
         11    1    3    3    0    0 -0.42825965818E+03  0.55560596270E+03  0.98412690771E+03  0.12085570285E+04  0.00000000000E+00 0.  1.
        -11    1    3    3    0    0 -0.99020954397E+02  0.17653152196E+03  0.36517871871E+03  0.41752128599E+03  0.00000000000E+00 0. -1.
         22    1    1    2    0    0  0.52728061258E+03 -0.73213748466E+03 -0.28305481873E+04  0.29708674123E+04  0.00000000000E+00 0.  1.
<mgrwt>
<rscale>  0 0.43517618E+04</rscale>
<asrwt>0</asrwt>
<pdfrwt beam="1">  1        2 0.46755294E+00 0.43517618E+04</pdfrwt>
<pdfrwt beam="2">  1       -2 0.23966948E+00 0.43517618E+04</pdfrwt>
<totfact> 0.93835223E-02</totfact>
</mgrwt>
</event>
<event>
 6    1  0.2436515E-005  0.2104810E+04  0.7818608E-02  0.8559127E-01
         -4   -1    0    0    0  501 -0.00000000000E+00  0.00000000000E+00  0.97847648407E+03  0.97847648407E+03  0.00000000000E+00 0. -1.
          4   -1    0    0  501    0  0.00000000000E+00 -0.00000000000E+00 -0.11319192542E+04  0.11319192542E+04  0.00000000000E+00 0.  1.
         23    2    1    2    0    0 -0.30749228931E+03  0.48185781329E+03  0.80671491088E+03  0.99296957400E+03  0.91984603311E+02 0.  0.
         13    1    3    3    0    0 -0.11916899564E+03  0.26678302322E+03  0.43547130147E+03  0.52441365867E+03  0.00000000000E+00 0.  1.
        -13    1    3    3    0    0 -0.18832329367E+03  0.21507479007E+03  0.37124360941E+03  0.46855591533E+03  0.00000000000E+00 0. -1.
         22    1    1    2    0    0  0.30749228931E+03 -0.48185781329E+03 -0.96015768097E+03  0.11174261642E+04  0.00000000000E+00 0.  1.
<mgrwt>
<rscale>  0 0.21048101E+04</rscale>
<asrwt>0</asrwt>
<pdfrwt beam="1">  1        4 0.17414142E+00 0.21048101E+04</pdfrwt>
<pdfrwt beam="2">  1       -4 0.15053484E+00 0.21048101E+04</pdfrwt>
<totfact> 0.10740842E-01</totfact>
</mgrwt>
</event>
<event>
 6    1  0.2436515E-005  0.1126543E+04  0.7818608E-02  0.9179701E-01
         -1   -1    0    0    0  501 -0.00000000000E+00  0.00000000000E+00  0.19314429191E+03  0.19314429191E+03  0.00000000000E+00 0. -1.
          1   -1    0    0  501    0  0.00000000000E+00 -0.00000000000E+00 -0.16426813707E+04  0.16426813707E+04  0.00000000000E+00 0.  1.
         23    2    1    2    0    0  0.89191738351E+01 -0.22623011017E+03 -0.15633987697E+04  0.15824009222E+04  0.92289495488E+02 0.  0.
         13    1    3    3    0    0 -0.39606152730E+02 -0.67788660327E+02 -0.46807690702E+03  0.47461557148E+03  0.00000000000E+00 0. -1.
        -13    1    3    3    0    0  0.48525326565E+02 -0.15844144985E+03 -0.10953218627E+04  0.11077853507E+04  0.00000000000E+00 0.  1.
         22    1    1    2    0    0 -0.89191738351E+01  0.22623011017E+03  0.11386169090E+03  0.25342474044E+03  0.00000000000E+00 0. -1.
<mgrwt>
<rscale>  0 0.11265426E+04</rscale>
<asrwt>0</asrwt>
<pdfrwt beam="1">  1        1 0.25272020E+00 0.11265426E+04</pdfrwt>
<pdfrwt beam="2">  1       -1 0.29714507E-01 0.11265426E+04</pdfrwt>
<totfact> 0.53857508E+01</totfact>
</mgrwt>
</event>
<event>
 6    1  0.2436515E-005  0.1016452E+04  0.7818608E-02  0.9290682E-01
          2   -1    0    0  501    0  0.00000000000E+00  0.00000000000E+00  0.25609871486E+04  0.25609871486E+04  0.00000000000E+00 0. -1.
         -2   -1    0    0    0  501 -0.00000000000E+00 -0.00000000000E+00 -0.10085708687E+03  0.10085708687E+03  0.00000000000E+00 0.  1.
         23    2    1    2    0    0  0.57282498472E+02  0.12008007962E+02  0.25513018305E+04  0.25535032538E+04  0.88387556068E+02 0.  0.
         11    1    3    3    0    0  0.39811290233E+02 -0.23857820527E+02  0.20794458475E+04  0.20799637418E+04  0.00000000000E+00 0. -1.
        -11    1    3    3    0    0  0.17471208239E+02  0.35865828489E+02  0.47185598296E+03  0.47353951200E+03  0.00000000000E+00 0.  1.
         22    1    1    2    0    0 -0.57282498472E+02 -0.12008007962E+02 -0.91171768761E+02  0.10834098165E+03  0.00000000000E+00 0.  1.
<mgrwt>
<rscale>  0 0.10164521E+04</rscale>
<asrwt>0</asrwt>
<pdfrwt beam="1">  1        2 0.39399797E+00 0.10164521E+04</pdfrwt>
<pdfrwt beam="2">  1       -2 0.15516477E-01 0.10164521E+04</pdfrwt>
<totfact> 0.10746516E+02</totfact>
</mgrwt>
</event>
<event>
 6    1  0.2436515E-005  0.1353064E+04  0.7818608E-02  0.8988512E-01
         -2   -1    0    0    0  501 -0.00000000000E+00  0.00000000000E+00  0.33539003315E+03  0.33539003315E+03  0.00000000000E+00 0. -1.
          2   -1    0    0  501    0  0.00000000000E+00 -0.00000000000E+00 -0.13646674775E+04  0.13646674775E+04  0.00000000000E+00 0.  1.
         23    2    1    2    0    0  0.13665313279E+03 -0.32054668938E+03 -0.12406852032E+04  0.12924823651E+04  0.98927407950E+02 0.  0.
         11    1    3    3    0    0  0.71872826526E+02 -0.15585410063E+03 -0.43595936096E+03  0.46852616606E+03  0.00000000000E+00 0. -1.
        -11    1    3    3    0    0  0.64780306261E+02 -0.16469258875E+03 -0.80472584219E+03  0.82395619905E+03  0.00000000000E+00 0.  1.
         22    1    1    2    0    0 -0.13665313279E+03  0.32054668938E+03  0.21140775880E+03  0.40757514553E+03  0.00000000000E+00 0. -1.
<mgrwt>
<rscale>  0 0.13530645E+04</rscale>
<asrwt>0</asrwt>
<pdfrwt beam="1">  1        2 0.20994884E+00 0.13530645E+04</pdfrwt>
<pdfrwt beam="2">  1       -2 0.51598467E-01 0.13530645E+04</pdfrwt>
<totfact> 0.52525428E+01</totfact>
</mgrwt>
</event>
<event>
 6    1  0.2436515E-005  0.9820399E+03  0.7818608E-02  0.9328465E-01
          2   -1    0    0  501    0  0.00000000000E+00  0.00000000000E+00  0.19490557981E+04  0.19490557981E+04  0.00000000000E+00 0.  1.
         -2   -1    0    0    0  501 -0.00000000000E+00 -0.00000000000E+00 -0.12370123697E+03  0.12370123697E+03  0.00000000000E+00 0. -1.
         23    2    1    2    0    0  0.20509116119E+03  0.38378491485E+03  0.13812044150E+04  0.14509672011E+04  0.90702466857E+02 0.  0.
         11    1    3    3    0    0  0.12131938485E+03  0.21394698935E+03  0.92213703188E+03  0.95437330902E+03  0.00000000000E+00 0.  1.
        -11    1    3    3    0    0  0.83771776343E+02  0.16983792550E+03  0.45906738310E+03  0.49659389211E+03  0.00000000000E+00 0. -1.
         22    1    1    2    0    0 -0.20509116119E+03 -0.38378491485E+03  0.44415014610E+03  0.62178983390E+03  0.00000000000E+00 0.  1.
<mgrwt>
<rscale>  0 0.98203994E+03</rscale>
<asrwt>0</asrwt>
<pdfrwt beam="1">  1        2 0.29985471E+00 0.98203994E+03</pdfrwt>
<pdfrwt beam="2">  1       -2 0.19030961E-01 0.98203994E+03</pdfrwt>
<totfact> 0.16675297E+02</totfact>
</mgrwt>
</event>
<event>
 6    1  0.2436515E-005  0.1473660E+04  0.7818608E-02  0.8902160E-01
         -2   -1    0    0    0  501 -0.00000000000E+00  0.00000000000E+00  0.37959717497E+03  0.37959717497E+03  0.00000000000E+00 0. -1.
          2   -1    0    0  501    0  0.00000000000E+00 -0.00000000000E+00 -0.14302496555E+04  0.14302496555E+04  0.00000000000E+00 0.  1.
         23    2    1    2    0    0  0.51588044757E+03 -0.36036392974E+03 -0.99126438064E+03  0.11777695058E+04  0.92418279402E+02 0.  0.
         13    1    3    3    0    0  0.22636626687E+03 -0.11629752683E+03 -0.45414678579E+03  0.52059207118E+03  0.00000000000E+00 0.  1.
        -13    1    3    3    0    0  0.28951418069E+03 -0.24406640291E+03 -0.53711759484E+03  0.65717743460E+03  0.00000000000E+00 0. -1.
         22    1    1    2    0    0 -0.51588044757E+03  0.36036392974E+03 -0.59388099937E+02  0.63207732474E+03  0.00000000000E+00 0. -1.
<mgrwt>
<rscale>  0 0.14736604E+04</rscale>
<asrwt>0</asrwt>
<pdfrwt beam="1">  1        2 0.22003841E+00 0.14736604E+04</pdfrwt>
<pdfrwt beam="2">  1       -2 0.58399565E-01 0.14736604E+04</pdfrwt>
<totfact> 0.36909013E+01</totfact>
</mgrwt>
</event>
<event>
 6    1  0.2436515E-005  0.2588608E+04  0.7818608E-02  0.8372081E-01
         -2   -1    0    0    0  501 -0.00000000000E+00  0.00000000000E+00  0.91033503293E+03  0.91033503293E+03  0.00000000000E+00 0. -1.
          2   -1    0    0  501    0  0.00000000000E+00 -0.00000000000E+00 -0.18402270019E+04  0.18402270019E+04  0.00000000000E+00 0.  1.
         23    2    1    2    0    0 -0.12324292518E+04 -0.22666670850E+03 -0.12860111714E+03  0.12631728166E+04  0.93849133631E+02 0.  0.
         13    1    3    3    0    0 -0.49941125789E+03 -0.47301976061E+02 -0.37410321361E+02  0.50303937578E+03  0.00000000000E+00 0. -1.
        -13    1    3    3    0    0 -0.73301799387E+03 -0.17936473244E+03 -0.91190795778E+02  0.76013344080E+03  0.00000000000E+00 0.  1.
         22    1    1    2    0    0  0.12324292518E+04  0.22666670850E+03 -0.80129085182E+03  0.14873892182E+04  0.00000000000E+00 0. -1.
<mgrwt>
<rscale>  0 0.25886082E+04</rscale>
<asrwt>0</asrwt>
<pdfrwt beam="1">  1        2 0.28311184E+00 0.25886082E+04</pdfrwt>
<pdfrwt beam="2">  1       -2 0.14005154E+00 0.25886082E+04</pdfrwt>
<totfact> 0.26042221E+00</totfact>
</mgrwt>
</event>
<event>
 6    1  0.2436515E-005  0.4876516E+04  0.7818608E-02  0.7847843E-01
         -2   -1    0    0    0  501 -0.00000000000E+00  0.00000000000E+00  0.41802611927E+04  0.41802611927E+04  0.00000000000E+00 0. -1.
          2   -1    0    0  501    0  0.00000000000E+00 -0.00000000000E+00 -0.14221843089E+04  0.14221843089E+04  0.00000000000E+00 0.  1.
         23    2    1    2    0    0  0.58108173546E+03 -0.47578232078E+03  0.40434858633E+04  0.41137208646E+04  0.94321919128E+02 0.  0.
         13    1    3    3    0    0  0.42000180771E+03 -0.28835149302E+03  0.26660724703E+04  0.27143121631E+04  0.00000000000E+00 0. -1.
        -13    1    3    3    0    0  0.16107992775E+03 -0.18743082776E+03  0.13774133931E+04  0.13994087015E+04  0.00000000000E+00 0.  1.
         22    1    1    2    0    0 -0.58108173546E+03  0.47578232078E+03 -0.12854089796E+04  0.14887246370E+04  0.00000000000E+00 0.  1.
<mgrwt>
<rscale>  0 0.48765159E+04</rscale>
<asrwt>0</asrwt>
<pdfrwt beam="1">  1        2 0.21879759E+00 0.48765159E+04</pdfrwt>
<pdfrwt beam="2">  1       -2 0.64311710E+00 0.48765159E+04</pdfrwt>
<totfact> 0.36944150E-03</totfact>
</mgrwt>
</event>
<event>
 6    1  0.2436515E-005  0.1631648E+04  0.7818608E-02  0.8801338E-01
          2   -1    0    0  501    0  0.00000000000E+00  0.00000000000E+00  0.65697751638E+03  0.65697751638E+03  0.00000000000E+00 0.  1.
         -2   -1    0    0    0  501 -0.00000000000E+00 -0.00000000000E+00 -0.10130772650E+04  0.10130772650E+04  0.00000000000E+00 0. -1.
         23    2    1    2    0    0  0.57307359631E+03 -0.53779722980E+03  0.35548246739E+02  0.79197314538E+03  0.91206238823E+02 0.  0.
         11    1    3    3    0    0  0.47332634508E+03 -0.47995054710E+03  0.11489414397E+02  0.67418273728E+03  0.00000000000E+00 0. -1.
        -11    1    3    3    0    0  0.99747251229E+02 -0.57846682696E+02  0.24058832342E+02  0.11779040810E+03  0.00000000000E+00 0.  1.
         22    1    1    2    0    0 -0.57307359631E+03  0.53779722980E+03 -0.39164799533E+03  0.87808163596E+03  0.00000000000E+00 0. -1.
<mgrwt>
<rscale>  0 0.16316482E+04</rscale>
<asrwt>0</asrwt>
<pdfrwt beam="1">  1        2 0.10107346E+00 0.16316482E+04</pdfrwt>
<pdfrwt beam="2">  1       -2 0.15585804E+00 0.16316482E+04</pdfrwt>
<totfact> 0.11472111E+01</totfact>
</mgrwt>
</event>
<event>
 6    1  0.2436515E-005  0.5386241E+04  0.7818608E-02  0.7771539E-01
          2   -1    0    0  501    0  0.00000000000E+00  0.00000000000E+00  0.30223654344E+04  0.30223654344E+04  0.00000000000E+00 0.  1.
         -2   -1    0    0    0  501 -0.00000000000E+00 -0.00000000000E+00 -0.23997423949E+04  0.23997423949E+04  0.00000000000E+00 0. -1.
         23    2    1    2    0    0  0.15520807089E+04 -0.21723551758E+04 -0.38006722488E+02  0.26717418139E+04  0.93157245118E+02 0.  0.
         11    1    3    3    0    0  0.62774980415E+03 -0.90179397388E+03 -0.59469990600E+02  0.11003812374E+04  0.00000000000E+00 0.  1.
        -11    1    3    3    0    0  0.92433090475E+03 -0.12705612019E+04  0.21463268112E+02  0.15713605764E+04  0.00000000000E+00 0. -1.
         22    1    1    2    0    0 -0.15520807089E+04  0.21723551758E+04  0.66062976202E+03  0.27503660155E+04  0.00000000000E+00 0. -1.
<mgrwt>
<rscale>  0 0.53862412E+04</rscale>
<asrwt>0</asrwt>
<pdfrwt beam="1">  1        2 0.46497930E+00 0.53862412E+04</pdfrwt>
<pdfrwt beam="2">  1       -2 0.36919114E+00 0.53862412E+04</pdfrwt>
<totfact> 0.13982141E-02</totfact>
</mgrwt>
</event>
<event>
 6    1  0.2436515E-005  0.3565715E+04  0.7818608E-02  0.8098390E-01
         -2   -1    0    0    0  501 -0.00000000000E+00  0.00000000000E+00  0.13070016264E+04  0.13070016264E+04  0.00000000000E+00 0. -1.
          2   -1    0    0  501    0  0.00000000000E+00 -0.00000000000E+00 -0.24319641895E+04  0.24319641895E+04  0.00000000000E+00 0.  1.
         23    2    1    2    0    0 -0.17263380069E+03 -0.15839066969E+04  0.27338795176E+03  0.16190726544E+04  0.89957957884E+02 0.  0.
         13    1    3    3    0    0 -0.73980283650E+02 -0.88637426885E+03  0.19168173800E+03  0.90987598909E+03  0.00000000000E+00 0. -1.
        -13    1    3    3    0    0 -0.98653517041E+02 -0.69753242810E+03  0.81706213767E+02  0.70919666528E+03  0.00000000000E+00 0.  1.
         22    1    1    2    0    0  0.17263380069E+03  0.15839066969E+04 -0.13983505149E+04  0.21198931615E+04  0.00000000000E+00 0.  1.
<mgrwt>
<rscale>  0 0.35657152E+04</rscale>
<asrwt>0</asrwt>
<pdfrwt beam="1">  1        2 0.37414834E+00 0.35657152E+04</pdfrwt>
<pdfrwt beam="2">  1       -2 0.20107717E+00 0.35657152E+04</pdfrwt>
<totfact> 0.40754503E-01</totfact>
</mgrwt>
</event>
<event>
 6    1  0.2436515E-005  0.3651011E+04  0.7818608E-02  0.8078906E-01
         -2   -1    0    0    0  501 -0.00000000000E+00  0.00000000000E+00  0.14337408726E+04  0.14337408726E+04  0.00000000000E+00 0. -1.
          2   -1    0    0  501    0  0.00000000000E+00 -0.00000000000E+00 -0.23243188135E+04  0.23243188135E+04  0.00000000000E+00 0.  1.
         23    2    1    2    0    0 -0.14944318680E+04  0.32709689725E+03 -0.14686512320E+04  0.21226735793E+04  0.92128685178E+02 0.  0.
         13    1    3    3    0    0 -0.59722225920E+03  0.92677655232E+02 -0.61488908108E+03  0.86217872665E+03  0.00000000000E+00 0.  1.
        -13    1    3    3    0    0 -0.89720960883E+03  0.23441924202E+03 -0.85376215091E+03  0.12604948526E+04  0.00000000000E+00 0. -1.
         22    1    1    2    0    0  0.14944318680E+04 -0.32709689725E+03  0.57807329118E+03  0.16353861068E+04  0.00000000000E+00 0. -1.
<mgrwt>
<rscale>  0 0.36510113E+04</rscale>
<asrwt>0</asrwt>
<pdfrwt beam="1">  1        2 0.35758751E+00 0.36510113E+04</pdfrwt>
<pdfrwt beam="2">  1       -2 0.22057552E+00 0.36510113E+04</pdfrwt>
<totfact> 0.34934737E-01</totfact>
</mgrwt>
</event>
<event>
 6    1  0.2436515E-005  0.2461861E+04  0.7818608E-02  0.8416700E-01
         -2   -1    0    0    0  501 -0.00000000000E+00  0.00000000000E+00  0.90889280488E+03  0.90889280488E+03  0.00000000000E+00 0. -1.
          2   -1    0    0  501    0  0.00000000000E+00 -0.00000000000E+00 -0.16670717752E+04  0.16670717752E+04  0.00000000000E+00 0.  1.
         23    2    1    2    0    0 -0.77030764223E+03 -0.15793902189E+03 -0.13683017986E+04  0.15806915201E+04  0.89539215805E+02 0.  0.
         13    1    3    3    0    0 -0.54464819875E+03 -0.72851959200E+02 -0.98205842428E+03  0.11253389787E+04  0.00000000000E+00 0.  1.
        -13    1    3    3    0    0 -0.22565944348E+03 -0.85087062694E+02 -0.38624337436E+03  0.45535254134E+03  0.00000000000E+00 0. -1.
         22    1    1    2    0    0  0.77030764223E+03  0.15793902189E+03  0.61012282833E+03  0.99527306000E+03  0.00000000000E+00 0. -1.
<mgrwt>
<rscale>  0 0.24618607E+04</rscale>
<asrwt>0</asrwt>
<pdfrwt beam="1">  1        2 0.25647258E+00 0.24618607E+04</pdfrwt>
<pdfrwt beam="2">  1       -2 0.13982966E+00 0.24618607E+04</pdfrwt>
<totfact> 0.32981991E+00</totfact>
</mgrwt>
</event>
<event>
 6    1  0.2436515E-005  0.2215735E+04  0.7818608E-02  0.8511907E-01
          2   -1    0    0  501    0  0.00000000000E+00  0.00000000000E+00  0.97105643733E+03  0.97105643733E+03  0.00000000000E+00 0.  1.
         -2   -1    0    0    0  501 -0.00000000000E+00 -0.00000000000E+00 -0.12639533808E+04  0.12639533808E+04  0.00000000000E+00 0. -1.
         23    2    1    2    0    0  0.85081944491E+03 -0.19520564853E+02 -0.85885110931E+03  0.12129633915E+04  0.96851333823E+02 0.  0.
         13    1    3    3    0    0  0.50306712745E+03 -0.23589789601E+02 -0.57232740028E+03  0.76235927620E+03  0.00000000000E+00 0. -1.
        -13    1    3    3    0    0  0.34775231746E+03  0.40692247476E+01 -0.28652370902E+03  0.45060411529E+03  0.00000000000E+00 0.  1.
         22    1    1    2    0    0 -0.85081944491E+03  0.19520564853E+02  0.56595416587E+03  0.10220464266E+04  0.00000000000E+00 0.  1.
<mgrwt>
<rscale>  0 0.22157347E+04</rscale>
<asrwt>0</asrwt>
<pdfrwt beam="1">  1        2 0.14939330E+00 0.22157347E+04</pdfrwt>
<pdfrwt beam="2">  1       -2 0.19445437E+00 0.22157347E+04</pdfrwt>
<totfact> 0.34736495E+00</totfact>
</mgrwt>
</event>
<event>
 6    1  0.2436515E-005  0.2676308E+04  0.7818608E-02  0.8342733E-01
          2   -1    0    0  501    0  0.00000000000E+00  0.00000000000E+00  0.15318625791E+04  0.15318625791E+04  0.00000000000E+00 0.  1.
         -2   -1    0    0    0  501 -0.00000000000E+00 -0.00000000000E+00 -0.11689408713E+04  0.11689408713E+04  0.00000000000E+00 0. -1.
         23    2    1    2    0    0 -0.84246882047E+03  0.54322502524E+03 -0.71048347974E+03  0.12321149749E+04  0.92051045133E+02 0.  0.
         13    1    3    3    0    0 -0.43565673112E+03  0.28061527283E+03 -0.42349165143E+03  0.66924352634E+03  0.00000000000E+00 0. -1.
        -13    1    3    3    0    0 -0.40681208935E+03  0.26260975241E+03 -0.28699182830E+03  0.56287144857E+03  0.00000000000E+00 0.  1.
         22    1    1    2    0    0  0.84246882047E+03 -0.54322502524E+03  0.10734051875E+04  0.14686884755E+04  0.00000000000E+00 0.  1.
<mgrwt>
<rscale>  0 0.26763085E+04</rscale>
<asrwt>0</asrwt>
<pdfrwt beam="1">  1        2 0.23567117E+00 0.26763085E+04</pdfrwt>
<pdfrwt beam="2">  1       -2 0.17983706E+00 0.26763085E+04</pdfrwt>
<totfact> 0.19465190E+00</totfact>
</mgrwt>
</event>
<event>
 6    1  0.2436515E-005  0.1680258E+04  0.7818608E-02  0.8772705E-01
          1   -1    0    0  501    0  0.00000000000E+00  0.00000000000E+00  0.42322381071E+04  0.42322381071E+04  0.00000000000E+00 0.  1.
         -1   -1    0    0    0  501 -0.00000000000E+00 -0.00000000000E+00 -0.16677149074E+03  0.16677149074E+03  0.00000000000E+00 0. -1.
         23    2    1    2    0    0  0.53126872149E+03 -0.64553615601E+03  0.19200836567E+04  0.20964824152E+04  0.97743979041E+02 0.  0.
         11    1    3    3    0    0  0.36826825866E+03 -0.37508811859E+03  0.12268526093E+04  0.13347209191E+04  0.00000000000E+00 0.  1.
        -11    1    3    3    0    0  0.16300046283E+03 -0.27044803742E+03  0.69323104742E+03  0.76176149610E+03  0.00000000000E+00 0. -1.
         22    1    1    2    0    0 -0.53126872149E+03  0.64553615601E+03  0.21453829597E+04  0.23025271826E+04  0.00000000000E+00 0. -1.
<mgrwt>
<rscale>  0 0.16802579E+04</rscale>
<asrwt>0</asrwt>
<pdfrwt beam="1">  1        1 0.65111347E+00 0.16802579E+04</pdfrwt>
<pdfrwt beam="2">  1       -1 0.25657156E-01 0.16802579E+04</pdfrwt>
<totfact> 0.76698137E-01</totfact>
</mgrwt>
</event>
<event>
 6    1  0.2436515E-005  0.2183313E+04  0.7818608E-02  0.8525406E-01
          2   -1    0    0  501    0  0.00000000000E+00  0.00000000000E+00  0.20312227899E+04  0.20312227899E+04  0.00000000000E+00 0.  1.
         -2   -1    0    0    0  501 -0.00000000000E+00 -0.00000000000E+00 -0.58669766148E+03  0.58669766148E+03  0.00000000000E+00 0. -1.
         23    2    1    2    0    0 -0.22156843869E+03 -0.10025445752E+04  0.11615705818E+04  0.15529080225E+04  0.89938376896E+02 0.  0.
         13    1    3    3    0    0 -0.15688271002E+03 -0.50157207324E+03  0.59067327671E+03  0.79062105283E+03  0.00000000000E+00 0. -1.
        -13    1    3    3    0    0 -0.64685728677E+02 -0.50097250192E+03  0.57089730507E+03  0.76228696966E+03  0.00000000000E+00 0.  1.
         22    1    1    2    0    0  0.22156843869E+03  0.10025445752E+04  0.28295454662E+03  0.10650124289E+04  0.00000000000E+00 0. -1.
<mgrwt>
<rscale>  0 0.21833128E+04</rscale>
<asrwt>0</asrwt>
<pdfrwt beam="1">  1        2 0.31249581E+00 0.21833128E+04</pdfrwt>
<pdfrwt beam="2">  1       -2 0.90261179E-01 0.21833128E+04</pdfrwt>
<totfact> 0.61669837E+00</totfact>
</mgrwt>
</event>
<event>
 6    1  0.2436515E-005  0.3444972E+04  0.7818608E-02  0.8126956E-01
         -1   -1    0    0    0  501 -0.00000000000E+00  0.00000000000E+00  0.94234032769E+03  0.94234032769E+03  0.00000000000E+00 0. -1.
          1   -1    0    0  501    0  0.00000000000E+00 -0.00000000000E+00 -0.31484999366E+04  0.31484999366E+04  0.00000000000E+00 0.  1.
         23    2    1    2    0    0  0.10741261970E+04  0.33260033376E+03  0.44371257084E+03  0.12122655062E+04  0.91305765981E+02 0.  0.
         11    1    3    3    0    0  0.19676048975E+03  0.67873501164E+02  0.12051491146E+03  0.24051059513E+03  0.00000000000E+00 0. -1.
        -11    1    3    3    0    0  0.87736570723E+03  0.26472683260E+03  0.32319765938E+03  0.97175491105E+03  0.00000000000E+00 0.  1.
         22    1    1    2    0    0 -0.10741261970E+04 -0.33260033376E+03 -0.26498721797E+04  0.28785747581E+04  0.00000000000E+00 0.  1.
<mgrwt>
<rscale>  0 0.34449723E+04</rscale>
<asrwt>0</asrwt>
<pdfrwt beam="1">  1        1 0.48438461E+00 0.34449723E+04</pdfrwt>
<pdfrwt beam="2">  1       -1 0.14497543E+00 0.34449723E+04</pdfrwt>
<totfact> 0.14538258E-01</totfact>
</mgrwt>
</event>
<event>
 6    1  0.2436515E-005  0.3157779E+04  0.7818608E-02  0.8200057E-01
          2   -1    0    0  501    0  0.00000000000E+00  0.00000000000E+00  0.26029979842E+04  0.26029979842E+04  0.00000000000E+00 0.  1.
         -2   -1    0    0    0  501 -0.00000000000E+00 -0.00000000000E+00 -0.95770055571E+03  0.95770055571E+03  0.00000000000E+00 0. -1.
         23    2    1    2    0    0  0.51442663448E+02  0.15725853910E+04  0.95168499413E+03  0.18411726259E+04  0.92418346335E+02 0.  0.
         13    1    3    3    0    0  0.10355045950E+02  0.71660593875E+03  0.38200867645E+03  0.81213418061E+03  0.00000000000E+00 0. -1.
        -13    1    3    3    0    0  0.41087617499E+02  0.85597945227E+03  0.56967631768E+03  0.10290384453E+04  0.00000000000E+00 0.  1.
         22    1    1    2    0    0 -0.51442663448E+02 -0.15725853910E+04  0.69361243432E+03  0.17195259139E+04  0.00000000000E+00 0.  1.
<mgrwt>
<rscale>  0 0.31577794E+04</rscale>
<asrwt>0</asrwt>
<pdfrwt beam="1">  1        2 0.40046122E+00 0.31577794E+04</pdfrwt>
<pdfrwt beam="2">  1       -2 0.14733855E+00 0.31577794E+04</pdfrwt>
<totfact> 0.80435412E-01</totfact>
</mgrwt>
</event>
<event>
 6    1  0.2436515E-005  0.2108182E+04  0.7818608E-02  0.8557648E-01
          2   -1    0    0  501    0  0.00000000000E+00  0.00000000000E+00  0.33637362429E+04  0.33637362429E+04  0.00000000000E+00 0.  1.
         -2   -1    0    0    0  501 -0.00000000000E+00 -0.00000000000E+00 -0.33031951825E+03  0.33031951825E+03  0.00000000000E+00 0. -1.
         23    2    1    2    0    0 -0.74504478559E+03  0.20183622384E+03  0.27723215274E+04  0.28791936282E+04  0.90331077470E+02 0.  0.
         13    1    3    3    0    0 -0.41565691523E+03  0.13118296648E+03  0.14096273438E+04  0.14754758182E+04  0.00000000000E+00 0.  1.
        -13    1    3    3    0    0 -0.32938787036E+03  0.70653257361E+02  0.13626941836E+04  0.14037178099E+04  0.00000000000E+00 0. -1.
         22    1    1    2    0    0  0.74504478559E+03 -0.20183622384E+03  0.26109519731E+03  0.81486213303E+03  0.00000000000E+00 0. -1.
<mgrwt>
<rscale>  0 0.21081819E+04</rscale>
<asrwt>0</asrwt>
<pdfrwt beam="1">  1        2 0.51749786E+00 0.21081819E+04</pdfrwt>
<pdfrwt beam="2">  1       -2 0.50818390E-01 0.21081819E+04</pdfrwt>
<totfact> 0.34142019E+00</totfact>
</mgrwt>
</event>
<event>
 6    1  0.2436515E-005  0.4631003E+04  0.7818608E-02  0.7888095E-01
         -2   -1    0    0    0  501 -0.00000000000E+00  0.00000000000E+00  0.21143498137E+04  0.21143498137E+04  0.00000000000E+00 0. -1.
          2   -1    0    0  501    0  0.00000000000E+00 -0.00000000000E+00 -0.25357899697E+04  0.25357899697E+04  0.00000000000E+00 0.  1.
         23    2    1    2    0    0  0.15406793493E+04  0.16480789138E+04  0.30840787175E+03  0.22789512402E+04  0.92985895009E+02 0.  0.
         13    1    3    3    0    0  0.71289819804E+03  0.82728226113E+03  0.13462583604E+03  0.11003380826E+04  0.00000000000E+00 0. -1.
        -13    1    3    3    0    0  0.82778115127E+03  0.82079665262E+03  0.17378203572E+03  0.11786131576E+04  0.00000000000E+00 0.  1.
         22    1    1    2    0    0 -0.15406793493E+04 -0.16480789138E+04 -0.72984802771E+03  0.23711885431E+04  0.00000000000E+00 0.  1.
<mgrwt>
<rscale>  0 0.46310029E+04</rscale>
<asrwt>0</asrwt>
<pdfrwt beam="1">  1        2 0.39012153E+00 0.46310029E+04</pdfrwt>
<pdfrwt beam="2">  1       -2 0.32528459E+00 0.46310029E+04</pdfrwt>
<totfact> 0.55245577E-02</totfact>
</mgrwt>
</event>
<event>
 6    1  0.2436515E-005  0.2242025E+04  0.7818608E-02  0.8501137E-01
         -2   -1    0    0    0  501 -0.00000000000E+00  0.00000000000E+00  0.44447734701E+03  0.44447734701E+03  0.00000000000E+00 0. -1.
          2   -1    0    0  501    0  0.00000000000E+00 -0.00000000000E+00 -0.28272966971E+04  0.28272966971E+04  0.00000000000E+00 0.  1.
         23    2    1    2    0    0 -0.12377823314E+03 -0.36020210909E+03 -0.27289571747E+04  0.27571110437E+04  0.96888781082E+02 0.  0.
         13    1    3    3    0    0 -0.78741293136E+02 -0.92238100242E+02 -0.84991079934E+03  0.85851990379E+03  0.00000000000E+00 0. -1.
        -13    1    3    3    0    0 -0.45036940007E+02 -0.26796400884E+03 -0.18790463753E+04  0.18985911399E+04  0.00000000000E+00 0.  1.
         22    1    1    2    0    0  0.12377823314E+03  0.36020210909E+03  0.34613782456E+03  0.51466300040E+03  0.00000000000E+00 0. -1.
<mgrwt>
<rscale>  0 0.22420253E+04</rscale>
<asrwt>0</asrwt>
<pdfrwt beam="1">  1        2 0.43496871E+00 0.22420253E+04</pdfrwt>
<pdfrwt beam="2">  1       -2 0.68381133E-01 0.22420253E+04</pdfrwt>
<totfact> 0.39686814E+00</totfact>
</mgrwt>
</event>
<event>
 6    1  0.2436515E-005  0.7766874E+03  0.7818608E-02  0.9594388E-01
         -2   -1    0    0    0  501 -0.00000000000E+00  0.00000000000E+00  0.10460233007E+03  0.10460233007E+03  0.00000000000E+00 0. -1.
          2   -1    0    0  501    0  0.00000000000E+00 -0.00000000000E+00 -0.14417541059E+04  0.14417541059E+04  0.00000000000E+00 0.  1.
         23    2    1    2    0    0 -0.34841036931E+03  0.15842063110E+03 -0.65429823809E+03  0.76355643864E+03  0.91789807804E+02 0.  0.
         11    1    3    3    0    0 -0.77921610615E+02  0.72288142602E+02 -0.13595640017E+03  0.17257316045E+03  0.00000000000E+00 0. -1.
        -11    1    3    3    0    0 -0.27048875870E+03  0.86132488498E+02 -0.51834183792E+03  0.59098327819E+03  0.00000000000E+00 0.  1.
         22    1    1    2    0    0  0.34841036931E+03 -0.15842063110E+03 -0.68285353771E+03  0.78279999730E+03  0.00000000000E+00 0. -1.
<mgrwt>
<rscale>  0 0.77668742E+03</rscale>
<asrwt>0</asrwt>
<pdfrwt beam="1">  1        2 0.22180831E+00 0.77668742E+03</pdfrwt>
<pdfrwt beam="2">  1       -2 0.16092667E-01 0.77668742E+03</pdfrwt>
<totfact> 0.43009292E+02</totfact>
</mgrwt>
</event>
<event>
 6    1  0.2436515E-005  0.8680663E+03  0.7818608E-02  0.9466405E-01
         -2   -1    0    0    0  501 -0.00000000000E+00  0.00000000000E+00  0.24899771500E+03  0.24899771500E+03  0.00000000000E+00 0. -1.
          2   -1    0    0  501    0  0.00000000000E+00 -0.00000000000E+00 -0.75657235650E+03  0.75657235650E+03  0.00000000000E+00 0.  1.
         23    2    1    2    0    0 -0.42614428789E+03 -0.46107105576E+02 -0.23650610029E+03  0.49841824678E+03  0.93599113036E+02 0.  0.
         11    1    3    3    0    0 -0.10897008324E+02  0.10871268026E+02  0.29911767832E+01  0.15680446341E+02  0.00000000000E+00 0.  1.
        -11    1    3    3    0    0 -0.41524727957E+03 -0.56978373602E+02 -0.23949727708E+03  0.48273780044E+03  0.00000000000E+00 0. -1.
         22    1    1    2    0    0  0.42614428789E+03  0.46107105576E+02 -0.27106854121E+03  0.50715182472E+03  0.00000000000E+00 0.  1.
<mgrwt>
<rscale>  0 0.86806633E+03</rscale>
<asrwt>0</asrwt>
<pdfrwt beam="1">  1        2 0.11639575E+00 0.86806633E+03</pdfrwt>
<pdfrwt beam="2">  1       -2 0.38307341E-01 0.86806633E+03</pdfrwt>
<totfact> 0.23940074E+02</totfact>
</mgrwt>
</event>
<event>
 6    1  0.2436515E-005  0.6326477E+03  0.7818608E-02  0.9839896E-01
         -2   -1    0    0    0  501 -0.00000000000E+00  0.00000000000E+00  0.37393057791E+02  0.37393057791E+02  0.00000000000E+00 0. -1.
          2   -1    0    0  501    0  0.00000000000E+00 -0.00000000000E+00 -0.26759184479E+04  0.26759184479E+04  0.00000000000E+00 0.  1.
         23    2    1    2    0    0  0.14069235353E+03  0.13030175721E+03 -0.23911457679E+04  0.24003106052E+04  0.84498706567E+02 0.  0.
         13    1    3    3    0    0  0.14876959955E+03  0.13163846284E+03 -0.21877505602E+04  0.21967506896E+04  0.00000000000E+00 0.  1.
        -13    1    3    3    0    0 -0.80772460135E+01 -0.13367056354E+01 -0.20339520778E+03  0.20355991558E+03  0.00000000000E+00 0. -1.
         22    1    1    2    0    0 -0.14069235353E+03 -0.13030175721E+03 -0.24737962219E+03  0.31300090055E+03  0.00000000000E+00 0. -1.
<mgrwt>
<rscale>  0 0.63264768E+03</rscale>
<asrwt>0</asrwt>
<pdfrwt beam="1">  1        2 0.41167985E+00 0.63264768E+03</pdfrwt>
<pdfrwt beam="2">  1       -2 0.57527768E-02 0.63264768E+03</pdfrwt>
<totfact> 0.48040809E+02</totfact>
</mgrwt>
</event>
<event>
 6    1  0.2436515E-005  0.9662247E+03  0.7818608E-02  0.9346385E-01
          2   -1    0    0  501    0  0.00000000000E+00  0.00000000000E+00  0.29598680956E+04  0.29598680956E+04  0.00000000000E+00 0.  1.
         -2   -1    0    0    0  501 -0.00000000000E+00 -0.00000000000E+00 -0.78854036719E+02  0.78854036719E+02  0.00000000000E+00 0. -1.
         23    2    1    2    0    0 -0.43997071472E+03  0.56804871650E+02  0.90560137236E+03  0.10141095014E+04  0.10725302762E+03 0.  0.
         13    1    3    3    0    0 -0.91654151731E+02  0.51421913090E+02  0.26173164726E+03  0.28204281919E+03  0.00000000000E+00 0. -1.
        -13    1    3    3    0    0 -0.34831656299E+03  0.53829585600E+01  0.64386972509E+03  0.73206668220E+03  0.00000000000E+00 0.  1.
         22    1    1    2    0    0  0.43997071472E+03 -0.56804871650E+02  0.19754126866E+04  0.20246126310E+04  0.00000000000E+00 0.  1.
<mgrwt>
<rscale>  0 0.96622471E+03</rscale>
<asrwt>0</asrwt>
<pdfrwt beam="1">  1        2 0.45536424E+00 0.96622471E+03</pdfrwt>
<pdfrwt beam="2">  1       -2 0.12131393E-01 0.96622471E+03</pdfrwt>
<totfact> 0.94811621E+01</totfact>
</mgrwt>
</event>
<event>
 6    1  0.2436515E-005  0.2285850E+04  0.7818608E-02  0.8483521E-01
          2   -1    0    0  501    0  0.00000000000E+00  0.00000000000E+00  0.10018593012E+04  0.10018593012E+04  0.00000000000E+00 0.  1.
         -2   -1    0    0    0  501 -0.00000000000E+00 -0.00000000000E+00 -0.13038537925E+04  0.13038537925E+04  0.00000000000E+00 0. -1.
         23    2    1    2    0    0  0.96615264596E+03  0.29759954349E+03  0.38269723943E+03  0.10847220251E+04  0.90267773878E+02 0.  0.
         11    1    3    3    0    0  0.43383700386E+03  0.10314097549E+03  0.13224524471E+03  0.46512515681E+03  0.00000000000E+00 0.  1.
        -11    1    3    3    0    0  0.53231564210E+03  0.19445856800E+03  0.25045199472E+03  0.61959686825E+03  0.00000000000E+00 0. -1.
         22    1    1    2    0    0 -0.96615264596E+03 -0.29759954349E+03 -0.68469173069E+03  0.12209910686E+04  0.00000000000E+00 0. -1.
<mgrwt>
<rscale>  0 0.22858504E+04</rscale>
<asrwt>0</asrwt>
<pdfrwt beam="1">  1        2 0.15413220E+00 0.22858504E+04</pdfrwt>
<pdfrwt beam="2">  1       -2 0.20059289E+00 0.22858504E+04</pdfrwt>
<totfact> 0.30046103E+00</totfact>
</mgrwt>
</event>
<event>
 6    1  0.2436515E-005  0.2333118E+04  0.7818608E-02  0.8464976E-01
          2   -1    0    0  501    0  0.00000000000E+00  0.00000000000E+00  0.10356347696E+04  0.10356347696E+04  0.00000000000E+00 0.  1.
         -2   -1    0    0    0  501 -0.00000000000E+00 -0.00000000000E+00 -0.13140346484E+04  0.13140346484E+04  0.00000000000E+00 0. -1.
         23    2    1    2    0    0  0.69251057333E+03 -0.81294175457E+03 -0.60827659089E+03  0.12319647005E+04  0.85389821577E+02 0.  0.
         13    1    3    3    0    0  0.23241173092E+03 -0.22717028603E+03 -0.15544701583E+03  0.36025730562E+03  0.00000000000E+00 0. -1.
        -13    1    3    3    0    0  0.46009884241E+03 -0.58577146855E+03 -0.45282957507E+03  0.87170739483E+03  0.00000000000E+00 0.  1.
         22    1    1    2    0    0 -0.69251057333E+03  0.81294175457E+03  0.32987671207E+03  0.11177047176E+04  0.00000000000E+00 0. -1.
<mgrwt>
<rscale>  0 0.23331181E+04</rscale>
<asrwt>0</asrwt>
<pdfrwt beam="1">  1        2 0.15932843E+00 0.23331181E+04</pdfrwt>
<pdfrwt beam="2">  1       -2 0.20215918E+00 0.23331181E+04</pdfrwt>
<totfact> 0.27816924E+00</totfact>
</mgrwt>
</event>
<event>
 6    1  0.2436515E-005  0.4490065E+04  0.7818608E-02  0.7912378E-01
         -2   -1    0    0    0  501 -0.00000000000E+00  0.00000000000E+00  0.14581376327E+04  0.14581376327E+04  0.00000000000E+00 0. -1.
          2   -1    0    0  501    0  0.00000000000E+00 -0.00000000000E+00 -0.34565808019E+04  0.34565808019E+04  0.00000000000E+00 0.  1.
         23    2    1    2    0    0 -0.74758569784E+03  0.21080703270E+04 -0.11997634769E+04  0.25396954600E+04  0.88180210416E+02 0.  0.
         11    1    3    3    0    0 -0.41318266896E+03  0.12531426049E+04 -0.74359194792E+03  0.15146007035E+04  0.00000000000E+00 0. -1.
        -11    1    3    3    0    0 -0.33440302888E+03  0.85492772217E+03 -0.45617152901E+03  0.10250947565E+04  0.00000000000E+00 0.  1.
         22    1    1    2    0    0  0.74758569784E+03 -0.21080703270E+04 -0.79867969223E+03  0.23750229746E+04  0.00000000000E+00 0. -1.
<mgrwt>
<rscale>  0 0.44900648E+04</rscale>
<asrwt>0</asrwt>
<pdfrwt beam="1">  1        2 0.53178165E+00 0.44900648E+04</pdfrwt>
<pdfrwt beam="2">  1       -2 0.22432887E+00 0.44900648E+04</pdfrwt>
<totfact> 0.61232532E-02</totfact>
</mgrwt>
</event>
<event>
 6    1  0.2436515E-005  0.7939562E+03  0.7818608E-02  0.9568807E-01
          2   -1    0    0  501    0  0.00000000000E+00  0.00000000000E+00  0.79086193048E+03  0.79086193048E+03  0.00000000000E+00 0.  1.
         -2   -1    0    0    0  501 -0.00000000000E+00 -0.00000000000E+00 -0.19926564035E+03  0.19926564035E+03  0.00000000000E+00 0. -1.
         23    2    1    2    0    0 -0.19674037155E+03 -0.14572238331E+03  0.68126693274E+03  0.72939281876E+03  0.89148547987E+02 0.  0.
         11    1    3    3    0    0 -0.98490237793E+02 -0.12376582912E+03  0.37462071288E+03  0.40664356127E+03  0.00000000000E+00 0. -1.
        -11    1    3    3    0    0 -0.98250133754E+02 -0.21956554186E+02  0.30664621986E+03  0.32274925749E+03  0.00000000000E+00 0.  1.
         22    1    1    2    0    0  0.19674037155E+03  0.14572238331E+03 -0.89670642619E+02  0.26073475208E+03  0.00000000000E+00 0. -1.
<mgrwt>
<rscale>  0 0.79395619E+03</rscale>
<asrwt>0</asrwt>
<pdfrwt beam="1">  1        2 0.12167106E+00 0.79395619E+03</pdfrwt>
<pdfrwt beam="2">  1       -2 0.30656253E-01 0.79395619E+03</pdfrwt>
<totfact> 0.34599856E+02</totfact>
</mgrwt>
</event>
<event>
 6    1  0.2436515E-005  0.6217314E+03  0.7818608E-02  0.9861319E-01
         -2   -1    0    0    0  501 -0.00000000000E+00  0.00000000000E+00  0.16637604187E+03  0.16637604187E+03  0.00000000000E+00 0. -1.
          2   -1    0    0  501    0  0.00000000000E+00 -0.00000000000E+00 -0.58083766725E+03  0.58083766725E+03  0.00000000000E+00 0.  1.
         23    2    1    2    0    0 -0.27630320014E+03 -0.88385754334E+02 -0.32177924719E+03  0.44267221244E+03  0.90891714522E+02 0.  0.
         11    1    3    3    0    0 -0.11054963527E+03 -0.73776076378E+02 -0.10491107938E+03  0.16932355383E+03  0.00000000000E+00 0. -1.
        -11    1    3    3    0    0 -0.16575356487E+03 -0.14609677957E+02 -0.21686816781E+03  0.27334865861E+03  0.00000000000E+00 0.  1.
         22    1    1    2    0    0  0.27630320014E+03  0.88385754334E+02 -0.92682378190E+02  0.30454149668E+03  0.00000000000E+00 0. -1.
<mgrwt>
<rscale>  0 0.62173136E+03</rscale>
<asrwt>0</asrwt>
<pdfrwt beam="1">  1        2 0.89359640E-01 0.62173136E+03</pdfrwt>
<pdfrwt beam="2">  1       -2 0.25596314E-01 0.62173136E+03</pdfrwt>
<totfact> 0.71213129E+02</totfact>
</mgrwt>
</event>
<event>
 6    1  0.2436515E-005  0.3450448E+04  0.7818608E-02  0.8125635E-01
          2   -1    0    0  501    0  0.00000000000E+00  0.00000000000E+00  0.22284085384E+04  0.22284085384E+04  0.00000000000E+00 0.  1.
         -2   -1    0    0    0  501 -0.00000000000E+00 -0.00000000000E+00 -0.13356607412E+04  0.13356607412E+04  0.00000000000E+00 0. -1.
         23    2    1    2    0    0  0.23542006624E+03  0.17052776504E+04  0.54414338993E+03  0.18076753872E+04  0.90574854024E+02 0.  0.
         11    1    3    3    0    0  0.14471303994E+03  0.73580377206E+03  0.25123268786E+03  0.79086466501E+03  0.00000000000E+00 0.  1.
        -11    1    3    3    0    0  0.90707026307E+02  0.96947387835E+03  0.29291070207E+03  0.10168107222E+04  0.00000000000E+00 0. -1.
         22    1    1    2    0    0 -0.23542006624E+03 -0.17052776504E+04  0.34860440729E+03  0.17563938924E+04  0.00000000000E+00 0.  1.
<mgrwt>
<rscale>  0 0.34504480E+04</rscale>
<asrwt>0</asrwt>
<pdfrwt beam="1">  1        2 0.34283208E+00 0.34504480E+04</pdfrwt>
<pdfrwt beam="2">  1       -2 0.20548627E+00 0.34504480E+04</pdfrwt>
<totfact> 0.50287151E-01</totfact>
</mgrwt>
</event>
<event>
 6    1  0.2436515E-005  0.1879146E+04  0.7818608E-02  0.8665307E-01
          2   -1    0    0  501    0  0.00000000000E+00  0.00000000000E+00  0.12164394149E+04  0.12164394149E+04  0.00000000000E+00 0.  1.
         -2   -1    0    0    0  501 -0.00000000000E+00 -0.00000000000E+00 -0.72572275062E+03  0.72572275062E+03  0.00000000000E+00 0. -1.
         23    2    1    2    0    0  0.66943969197E+03 -0.42730876233E+03 -0.26855851472E+03  0.84341693708E+03  0.92120434089E+02 0.  0.
         13    1    3    3    0    0  0.42912062539E+03 -0.22082381797E+03 -0.16757052336E+03  0.51086940603E+03  0.00000000000E+00 0. -1.
        -13    1    3    3    0    0  0.24031906658E+03 -0.20648494436E+03 -0.10098799136E+03  0.33254753105E+03  0.00000000000E+00 0.  1.
         22    1    1    2    0    0 -0.66943969197E+03  0.42730876233E+03  0.75927517896E+03  0.10987452284E+04  0.00000000000E+00 0.  1.
<mgrwt>
<rscale>  0 0.18791464E+04</rscale>
<asrwt>0</asrwt>
<pdfrwt beam="1">  1        2 0.18714453E+00 0.18791464E+04</pdfrwt>
<pdfrwt beam="2">  1       -2 0.11164965E+00 0.18791464E+04</pdfrwt>
<totfact> 0.11010468E+01</totfact>
</mgrwt>
</event>
<event>
 6    1  0.2436515E-005  0.3574115E+04  0.7818608E-02  0.8096447E-01
          2   -1    0    0  501    0  0.00000000000E+00  0.00000000000E+00  0.15508621695E+04  0.15508621695E+04  0.00000000000E+00 0. -1.
         -2   -1    0    0    0  501 -0.00000000000E+00 -0.00000000000E+00 -0.20592249103E+04  0.20592249103E+04  0.00000000000E+00 0.  1.
         23    2    1    2    0    0  0.87434513452E+03 -0.13190775988E+04 -0.10903349600E+04  0.19239267109E+04  0.90656152875E+02 0.  0.
         13    1    3    3    0    0  0.43329948817E+03 -0.58515396285E+03 -0.53102668863E+03  0.90118974181E+03  0.00000000000E+00 0.  1.
        -13    1    3    3    0    0  0.44104564634E+03 -0.73392363592E+03 -0.55930827136E+03  0.10227369691E+04  0.00000000000E+00 0. -1.
         22    1    1    2    0    0 -0.87434513452E+03  0.13190775988E+04  0.58197221915E+03  0.16861603689E+04  0.00000000000E+00 0. -1.
<mgrwt>
<rscale>  0 0.35741147E+04</rscale>
<asrwt>0</asrwt>
<pdfrwt beam="1">  1        2 0.23859418E+00 0.35741147E+04</pdfrwt>
<pdfrwt beam="2">  1       -2 0.31680383E+00 0.35741147E+04</pdfrwt>
<totfact> 0.24314637E-01</totfact>
</mgrwt>
</event>
<event>
 6    1  0.2436515E-005  0.2634723E+04  0.7818608E-02  0.8356501E-01
         -1   -1    0    0    0  501 -0.00000000000E+00  0.00000000000E+00  0.11345358925E+04  0.11345358925E+04  0.00000000000E+00 0. -1.
          1   -1    0    0  501    0  0.00000000000E+00 -0.00000000000E+00 -0.15296488666E+04  0.15296488666E+04  0.00000000000E+00 0.  1.
         23    2    1    2    0    0  0.78085800047E+03  0.40003891558E+03  0.79367392192E+03  0.11866920739E+04  0.92463143816E+02 0.  0.
         11    1    3    3    0    0  0.29264737231E+03  0.14935555153E+03  0.23809609945E+03  0.40575770832E+03  0.00000000000E+00 0. -1.
        -11    1    3    3    0    0  0.48821062816E+03  0.25068336404E+03  0.55557782248E+03  0.78093436554E+03  0.00000000000E+00 0.  1.
         22    1    1    2    0    0 -0.78085800047E+03 -0.40003891558E+03 -0.11887868960E+04  0.14774926852E+04  0.00000000000E+00 0.  1.
<mgrwt>
<rscale>  0 0.26347232E+04</rscale>
<asrwt>0</asrwt>
<pdfrwt beam="1">  1        1 0.23533059E+00 0.26347232E+04</pdfrwt>
<pdfrwt beam="2">  1       -1 0.17454398E+00 0.26347232E+04</pdfrwt>
<totfact> 0.12488273E+00</totfact>
</mgrwt>
</event>
<event>
 6    1  0.2436515E-005  0.1144869E+04  0.7818608E-02  0.9162530E-01
          2   -1    0    0  501    0  0.00000000000E+00  0.00000000000E+00  0.13302117595E+04  0.13302117595E+04  0.00000000000E+00 0.  1.
         -2   -1    0    0    0  501 -0.00000000000E+00 -0.00000000000E+00 -0.24633776040E+03  0.24633776040E+03  0.00000000000E+00 0. -1.
         23    2    1    2    0    0 -0.46256572317E+03 -0.32462844896E+03  0.63901303798E+03  0.85734721674E+03  0.85766597356E+02 0.  0.
         11    1    3    3    0    0 -0.16577767904E+03 -0.80103504644E+02  0.24857084029E+03  0.30933197857E+03  0.00000000000E+00 0. -1.
        -11    1    3    3    0    0 -0.29678804412E+03 -0.24452494432E+03  0.39044219769E+03  0.54801523817E+03  0.00000000000E+00 0.  1.
         22    1    1    2    0    0  0.46256572317E+03  0.32462844896E+03  0.44486096111E+03  0.71920230314E+03  0.00000000000E+00 0.  1.
<mgrwt>
<rscale>  0 0.11448692E+04</rscale>
<asrwt>0</asrwt>
<pdfrwt beam="1">  1        2 0.20464796E+00 0.11448692E+04</pdfrwt>
<pdfrwt beam="2">  1       -2 0.37898118E-01 0.11448692E+04</pdfrwt>
<totfact> 0.10321484E+02</totfact>
</mgrwt>
</event>
<event>
 6    1  0.2436515E-005  0.2211871E+04  0.7818608E-02  0.8513503E-01
          1   -1    0    0  501    0  0.00000000000E+00  0.00000000000E+00  0.13571076689E+04  0.13571076689E+04  0.00000000000E+00 0.  1.
         -1   -1    0    0    0  501 -0.00000000000E+00 -0.00000000000E+00 -0.90124996292E+03  0.90124996292E+03  0.00000000000E+00 0. -1.
         23    2    1    2    0    0  0.47612962702E+03  0.29271644397E+03  0.12005191686E+04  0.13272813556E+04  0.89706099711E+02 0.  0.
         11    1    3    3    0    0  0.35337226388E+03  0.18985033539E+03  0.93139337434E+03  0.10141048883E+04  0.00000000000E+00 0.  1.
        -11    1    3    3    0    0  0.12275736314E+03  0.10286610858E+03  0.26912579427E+03  0.31317646726E+03  0.00000000000E+00 0. -1.
         22    1    1    2    0    0 -0.47612962702E+03 -0.29271644397E+03 -0.74466146263E+03  0.93107627626E+03  0.00000000000E+00 0. -1.
<mgrwt>
<rscale>  0 0.22118709E+04</rscale>
<asrwt>0</asrwt>
<pdfrwt beam="1">  1        1 0.20878579E+00 0.22118709E+04</pdfrwt>
<pdfrwt beam="2">  1       -1 0.13865384E+00 0.22118709E+04</pdfrwt>
<totfact> 0.32253477E+00</totfact>
</mgrwt>
</event>
<event>
 6    1  0.2436515E-005  0.2955355E+04  0.7818608E-02  0.8256596E-01
          2   -1    0    0  501    0  0.00000000000E+00  0.00000000000E+00  0.93755468955E+03  0.93755468955E+03  0.00000000000E+00 0.  1.
         -2   -1    0    0    0  501 -0.00000000000E+00 -0.00000000000E+00 -0.23289637722E+04  0.23289637722E+04  0.00000000000E+00 0. -1.
         23    2    1    2    0    0  0.66740259532E+03 -0.10266103072E+02 -0.21517010514E+04  0.22547993828E+04  0.93654817388E+02 0.  0.
         11    1    3    3    0    0  0.37138850679E+03 -0.17094904178E+02 -0.13464933923E+04  0.13968772724E+04  0.00000000000E+00 0.  1.
        -11    1    3    3    0    0  0.29601408853E+03  0.68288011054E+01 -0.80520765912E+03  0.85792211035E+03  0.00000000000E+00 0. -1.
         22    1    1    2    0    0 -0.66740259532E+03  0.10266103072E+02  0.76029196873E+03  0.10117190790E+04  0.00000000000E+00 0.  1.
<mgrwt>
<rscale>  0 0.29553551E+04</rscale>
<asrwt>0</asrwt>
<pdfrwt beam="1">  1        2 0.14423918E+00 0.29553551E+04</pdfrwt>
<pdfrwt beam="2">  1       -2 0.35830211E+00 0.29553551E+04</pdfrwt>
<totfact> 0.32763420E-01</totfact>
</mgrwt>
</event>
<event>
 6    1  0.2436515E-005  0.1534789E+04  0.7818608E-02  0.8861642E-01
          2   -1    0    0  501    0  0.00000000000E+00  0.00000000000E+00  0.58337458402E+03  0.58337458402E+03  0.00000000000E+00 0.  1.
         -2   -1    0    0    0  501 -0.00000000000E+00 -0.00000000000E+00 -0.10094622620E+04  0.10094622620E+04  0.00000000000E+00 0. -1.
         23    2    1    2    0    0  0.13671576991E+03 -0.56922067692E+01 -0.99460802346E+03  0.10080813533E+04  0.90880644627E+02 0.  0.
         13    1    3    3    0    0  0.96907984707E+02  0.37880029462E+02 -0.69106509936E+03  0.69885408040E+03  0.00000000000E+00 0. -1.
        -13    1    3    3    0    0  0.39807785203E+02 -0.43572236231E+02 -0.30354292410E+03  0.30922727290E+03  0.00000000000E+00 0.  1.
         22    1    1    2    0    0 -0.13671576991E+03  0.56922067692E+01  0.56852034551E+03  0.58475549268E+03  0.00000000000E+00 0.  1.
<mgrwt>
<rscale>  0 0.15347894E+04</rscale>
<asrwt>0</asrwt>
<pdfrwt beam="1">  1        2 0.89749937E-01 0.15347894E+04</pdfrwt>
<pdfrwt beam="2">  1       -2 0.15530189E+00 0.15347894E+04</pdfrwt>
<totfact> 0.13491858E+01</totfact>
</mgrwt>
</event>
<event>
 6    1  0.2436515E-005  0.2438937E+04  0.7818608E-02  0.8425068E-01
          2   -1    0    0  501    0  0.00000000000E+00  0.00000000000E+00  0.22915231802E+04  0.22915231802E+04  0.00000000000E+00 0.  1.
         -2   -1    0    0    0  501 -0.00000000000E+00 -0.00000000000E+00 -0.64895842266E+03  0.64895842266E+03  0.00000000000E+00 0. -1.
         23    2    1    2    0    0  0.54742973328E+03 -0.18533498600E+03 -0.46990966463E+03  0.75037280323E+03  0.90641497116E+02 0.  0.
         13    1    3    3    0    0  0.34220321231E+03 -0.13867168480E+03 -0.24955627842E+03  0.44565817706E+03  0.00000000000E+00 0.  1.
        -13    1    3    3    0    0  0.20522652096E+03 -0.46663301203E+02 -0.22035338621E+03  0.30471462617E+03  0.00000000000E+00 0. -1.
         22    1    1    2    0    0 -0.54742973328E+03  0.18533498600E+03  0.21124744222E+04  0.21901087997E+04  0.00000000000E+00 0.  1.
<mgrwt>
<rscale>  0 0.24389369E+04</rscale>
<asrwt>0</asrwt>
<pdfrwt beam="1">  1        2 0.35254202E+00 0.24389369E+04</pdfrwt>
<pdfrwt beam="2">  1       -2 0.99839758E-01 0.24389369E+04</pdfrwt>
<totfact> 0.34065466E+00</totfact>
</mgrwt>
</event>
<event>
 6    1  0.2436515E-005  0.4069058E+04  0.7818608E-02  0.7990758E-01
          2   -1    0    0  501    0  0.00000000000E+00  0.00000000000E+00  0.20687784484E+04  0.20687784484E+04  0.00000000000E+00 0.  1.
         -2   -1    0    0    0  501 -0.00000000000E+00 -0.00000000000E+00 -0.20008466817E+04  0.20008466817E+04  0.00000000000E+00 0. -1.
         23    2    1    2    0    0 -0.54258858070E+03 -0.67712369979E+03  0.18733344055E+04  0.20665331299E+04  0.90986312864E+02 0.  0.
         11    1    3    3    0    0 -0.20846967912E+03 -0.32428177020E+03  0.77961836014E+03  0.86972585397E+03  0.00000000000E+00 0.  1.
        -11    1    3    3    0    0 -0.33411890159E+03 -0.35284192958E+03  0.10937160454E+04  0.11968072759E+04  0.00000000000E+00 0. -1.
         22    1    1    2    0    0  0.54258858070E+03  0.67712369979E+03 -0.18054026389E+04  0.20030920002E+04  0.00000000000E+00 0. -1.
<mgrwt>
<rscale>  0 0.40690581E+04</rscale>
<asrwt>0</asrwt>
<pdfrwt beam="1">  1        2 0.31827361E+00 0.40690581E+04</pdfrwt>
<pdfrwt beam="2">  1       -2 0.30782257E+00 0.40690581E+04</pdfrwt>
<totfact> 0.13656285E-01</totfact>
</mgrwt>
</event>
<event>
 6    1  0.2436515E-005  0.3254552E+04  0.7818608E-02  0.8174557E-01
         -2   -1    0    0    0  501 -0.00000000000E+00  0.00000000000E+00  0.11285358392E+04  0.11285358392E+04  0.00000000000E+00 0. -1.
          2   -1    0    0  501    0  0.00000000000E+00 -0.00000000000E+00 -0.23464275973E+04  0.23464275973E+04  0.00000000000E+00 0.  1.
         23    2    1    2    0    0 -0.12737898771E+04 -0.35997771199E+03  0.39881414170E+03  0.13854987753E+04  0.91812485913E+02 0.  0.
         11    1    3    3    0    0 -0.17651871988E+03 -0.38327004019E+02  0.85873568900E+02  0.20000521878E+03  0.00000000000E+00 0. -1.
        -11    1    3    3    0    0 -0.10972711572E+04 -0.32165070797E+03  0.31294057280E+03  0.11854935565E+04  0.00000000000E+00 0.  1.
         22    1    1    2    0    0  0.12737898771E+04  0.35997771199E+03 -0.16167058998E+04  0.20894646612E+04  0.00000000000E+00 0.  1.
<mgrwt>
<rscale>  0 0.32545523E+04</rscale>
<asrwt>0</asrwt>
<pdfrwt beam="1">  1        2 0.36098886E+00 0.32545523E+04</pdfrwt>
<pdfrwt beam="2">  1       -2 0.17362090E+00 0.32545523E+04</pdfrwt>
<totfact> 0.71849481E-01</totfact>
</mgrwt>
</event>
<event>
 6    1  0.2436515E-005  0.2802583E+04  0.7818608E-02  0.8302467E-01
         -2   -1    0    0    0  501 -0.00000000000E+00  0.00000000000E+00  0.12913723385E+04  0.12913723385E+04  0.00000000000E+00 0.  1.
          2   -1    0    0  501    0  0.00000000000E+00 -0.00000000000E+00 -0.15205672460E+04  0.15205672460E+04  0.00000000000E+00 0. -1.
         23    2    1    2    0    0  0.93991323694E+03  0.10351754326E+04 -0.17152058018E+03  0.14125284950E+04  0.10388633419E+03 0.  0.
         11    1    3    3    0    0  0.39233558538E+03  0.38208612895E+03 -0.28924402072E+02  0.54841010433E+03  0.00000000000E+00 0.  1.
        -11    1    3    3    0    0  0.54757765156E+03  0.65308930367E+03 -0.14259617811E+03  0.86411839065E+03  0.00000000000E+00 0. -1.
         22    1    1    2    0    0 -0.93991323694E+03 -0.10351754326E+04 -0.57674327326E+02  0.13994110895E+04  0.00000000000E+00 0. -1.
<mgrwt>
<rscale>  0 0.28025834E+04</rscale>
<asrwt>0</asrwt>
<pdfrwt beam="1">  1        2 0.23393342E+00 0.28025834E+04</pdfrwt>
<pdfrwt beam="2">  1       -2 0.19867267E+00 0.28025834E+04</pdfrwt>
<totfact> 0.14592237E+00</totfact>
</mgrwt>
</event>
<event>
 6    1  0.2436515E-005  0.1269342E+04  0.7818608E-02  0.9054237E-01
          2   -1    0    0  501    0  0.00000000000E+00  0.00000000000E+00  0.10127328239E+04  0.10127328239E+04  0.00000000000E+00 0.  1.
         -2   -1    0    0    0  501 -0.00000000000E+00 -0.00000000000E+00 -0.39774272873E+03  0.39774272873E+03  0.00000000000E+00 0. -1.
         23    2    1    2    0    0  0.15455299193E+03  0.57858529276E+03  0.53286452203E+03  0.80599877224E+03  0.83915753596E+02 0.  0.
         11    1    3    3    0    0  0.18659698898E+02  0.17245073664E+03  0.19107521231E+03  0.25806428984E+03  0.00000000000E+00 0. -1.
        -11    1    3    3    0    0  0.13589329303E+03  0.40613455612E+03  0.34178930972E+03  0.54793448240E+03  0.00000000000E+00 0.  1.
         22    1    1    2    0    0 -0.15455299193E+03 -0.57858529276E+03  0.82125573186E+02  0.60447678043E+03  0.00000000000E+00 0.  1.
<mgrwt>
<rscale>  0 0.12693417E+04</rscale>
<asrwt>0</asrwt>
<pdfrwt beam="1">  1        2 0.15580505E+00 0.12693417E+04</pdfrwt>
<pdfrwt beam="2">  1       -2 0.61191189E-01 0.12693417E+04</pdfrwt>
<totfact> 0.60321831E+01</totfact>
</mgrwt>
</event>
<event>
 6    1  0.2436515E-005  0.3055170E+04  0.7818608E-02  0.8228150E-01
          2   -1    0    0  501    0  0.00000000000E+00  0.00000000000E+00  0.13537983275E+04  0.13537983275E+04  0.00000000000E+00 0.  1.
         -2   -1    0    0    0  501 -0.00000000000E+00 -0.00000000000E+00 -0.17236811269E+04  0.17236811269E+04  0.00000000000E+00 0. -1.
         23    2    1    2    0    0 -0.86553536068E+03  0.87943573630E+02  0.10781293181E+04  0.13882119726E+04  0.88792577249E+02 0.  0.
         13    1    3    3    0    0 -0.57952577820E+03  0.96199437920E+02  0.69462595299E+03  0.90973055024E+03  0.00000000000E+00 0.  1.
        -13    1    3    3    0    0 -0.28600958248E+03 -0.82558642906E+01  0.38350336509E+03  0.47848142241E+03  0.00000000000E+00 0. -1.
         22    1    1    2    0    0  0.86553536068E+03 -0.87943573630E+02 -0.14480121174E+04  0.16892674818E+04  0.00000000000E+00 0. -1.
<mgrwt>
<rscale>  0 0.30551705E+04</rscale>
<asrwt>0</asrwt>
<pdfrwt beam="1">  1        2 0.20827667E+00 0.30551705E+04</pdfrwt>
<pdfrwt beam="2">  1       -2 0.26518171E+00 0.30551705E+04</pdfrwt>
<totfact> 0.67994590E-01</totfact>
</mgrwt>
</event>
<event>
 6    1  0.2436515E-005  0.1637561E+04  0.7818608E-02  0.8797800E-01
          2   -1    0    0  501    0  0.00000000000E+00  0.00000000000E+00  0.25930398629E+04  0.25930398629E+04  0.00000000000E+00 0.  1.
         -2   -1    0    0    0  501 -0.00000000000E+00 -0.00000000000E+00 -0.25853877014E+03  0.25853877014E+03  0.00000000000E+00 0. -1.
         23    2    1    2    0    0  0.29836940261E+03 -0.60036084122E+03  0.36008915015E+03  0.76645034941E+03  0.91238708715E+02 0.  0.
         11    1    3    3    0    0  0.99136525282E+02 -0.23959225206E+03  0.93589765804E+02  0.27566563470E+03  0.00000000000E+00 0.  1.
        -11    1    3    3    0    0  0.19923287733E+03 -0.36076858916E+03  0.26649938435E+03  0.49078471471E+03  0.00000000000E+00 0. -1.
         22    1    1    2    0    0 -0.29836940261E+03  0.60036084122E+03  0.19744119426E+04  0.20851282836E+04  0.00000000000E+00 0.  1.
<mgrwt>
<rscale>  0 0.16375608E+04</rscale>
<asrwt>0</asrwt>
<pdfrwt beam="1">  1        2 0.39892919E+00 0.16375608E+04</pdfrwt>
<pdfrwt beam="2">  1       -2 0.39775197E-01 0.16375608E+04</pdfrwt>
<totfact> 0.17608912E+01</totfact>
</mgrwt>
</event>
<event>
 6    1  0.2436515E-005  0.1469504E+04  0.7818608E-02  0.8904990E-01
         -2   -1    0    0    0  501 -0.00000000000E+00  0.00000000000E+00  0.36836948367E+03  0.36836948367E+03  0.00000000000E+00 0. -1.
          2   -1    0    0  501    0  0.00000000000E+00 -0.00000000000E+00 -0.14655402698E+04  0.14655402698E+04  0.00000000000E+00 0.  1.
         23    2    1    2    0    0  0.40973678985E+03  0.19992377693E+03 -0.12653331077E+04  0.13479752723E+04  0.90087223507E+02 0.  0.
         13    1    3    3    0    0  0.30856994720E+03  0.10865235279E+03 -0.84532042027E+03  0.90641456244E+03  0.00000000000E+00 0. -1.
        -13    1    3    3    0    0  0.10116684265E+03  0.91271424142E+02 -0.42001268742E+03  0.44156070988E+03  0.00000000000E+00 0.  1.
         22    1    1    2    0    0 -0.40973678985E+03 -0.19992377693E+03  0.16816232159E+03  0.48593448112E+03  0.00000000000E+00 0. -1.
<mgrwt>
<rscale>  0 0.14695037E+04</rscale>
<asrwt>0</asrwt>
<pdfrwt beam="1">  1        2 0.22546773E+00 0.14695037E+04</pdfrwt>
<pdfrwt beam="2">  1       -2 0.56672229E-01 0.14695037E+04</pdfrwt>
<totfact> 0.37545057E+01</totfact>
</mgrwt>
</event>
<event>
 6    1  0.2436515E-005  0.2280851E+04  0.7818608E-02  0.8485510E-01
          2   -1    0    0  501    0  0.00000000000E+00  0.00000000000E+00  0.12747002160E+04  0.12747002160E+04  0.00000000000E+00 0.  1.
         -2   -1    0    0    0  501 -0.00000000000E+00 -0.00000000000E+00 -0.10202948303E+04  0.10202948303E+04  0.00000000000E+00 0. -1.
         23    2    1    2    0    0  0.49322928869E+03  0.90151257213E+03  0.62075665700E+03  0.12040260720E+04  0.91323084910E+02 0.  0.
         13    1    3    3    0    0  0.23953867376E+03  0.39711259397E+03  0.23225613768E+03  0.51867147792E+03  0.00000000000E+00 0.  1.
        -13    1    3    3    0    0  0.25369061493E+03  0.50439997816E+03  0.38850051932E+03  0.68535459405E+03  0.00000000000E+00 0. -1.
         22    1    1    2    0    0 -0.49322928869E+03 -0.90151257213E+03 -0.36635127126E+03  0.10909689743E+04  0.00000000000E+00 0. -1.
<mgrwt>
<rscale>  0 0.22808508E+04</rscale>
<asrwt>0</asrwt>
<pdfrwt beam="1">  1        2 0.19610772E+00 0.22808508E+04</pdfrwt>
<pdfrwt beam="2">  1       -2 0.15696844E+00 0.22808508E+04</pdfrwt>
<totfact> 0.41214689E+00</totfact>
</mgrwt>
</event>
<event>
 6    1  0.2436515E-005  0.2021768E+04  0.7818608E-02  0.8596510E-01
          2   -1    0    0  501    0  0.00000000000E+00  0.00000000000E+00  0.10786769269E+04  0.10786769269E+04  0.00000000000E+00 0.  1.
         -2   -1    0    0    0  501 -0.00000000000E+00 -0.00000000000E+00 -0.94735186592E+03  0.94735186592E+03  0.00000000000E+00 0. -1.
         23    2    1    2    0    0 -0.44984749571E+03  0.46059853418E+03 -0.71258558701E+03  0.96456802535E+03  0.89997097891E+02 0.  0.
         13    1    3    3    0    0 -0.43486264746E+02  0.90359078809E+02 -0.10469236281E+03  0.14497002854E+03  0.00000000000E+00 0. -1.
        -13    1    3    3    0    0 -0.40636123096E+03  0.37023945537E+03 -0.60789322421E+03  0.81959799681E+03  0.00000000000E+00 0.  1.
         22    1    1    2    0    0  0.44984749571E+03 -0.46059853418E+03  0.84391064803E+03  0.10614607675E+04  0.00000000000E+00 0.  1.
<mgrwt>
<rscale>  0 0.20217681E+04</rscale>
<asrwt>0</asrwt>
<pdfrwt beam="1">  1        2 0.16595030E+00 0.20217681E+04</pdfrwt>
<pdfrwt beam="2">  1       -2 0.14574644E+00 0.20217681E+04</pdfrwt>
<totfact> 0.67339542E+00</totfact>
</mgrwt>
</event>
<event>
 6    1  0.2436515E-005  0.2098774E+04  0.7818608E-02  0.8561783E-01
          2   -1    0    0  501    0  0.00000000000E+00  0.00000000000E+00  0.19493323854E+04  0.19493323854E+04  0.00000000000E+00 0.  1.
         -2   -1    0    0    0  501 -0.00000000000E+00 -0.00000000000E+00 -0.56491828377E+03  0.56491828377E+03  0.00000000000E+00 0. -1.
         23    2    1    2    0    0 -0.37126587788E+03 -0.97272723964E+03  0.83061051348E+03  0.13349563679E+04  0.90321892040E+02 0.  0.
         11    1    3    3    0    0 -0.24159571504E+03 -0.71603996606E+03  0.56599129413E+03  0.94415457821E+03  0.00000000000E+00 0.  1.
        -11    1    3    3    0    0 -0.12967016283E+03 -0.25668727358E+03  0.26461921935E+03  0.39080178965E+03  0.00000000000E+00 0. -1.
         22    1    1    2    0    0  0.37126587788E+03  0.97272723964E+03  0.55380358810E+03  0.11792943013E+04  0.00000000000E+00 0.  1.
<mgrwt>
<rscale>  0 0.20987744E+04</rscale>
<asrwt>0</asrwt>
<pdfrwt beam="1">  1        2 0.29989729E+00 0.20987744E+04</pdfrwt>
<pdfrwt beam="2">  1       -2 0.86910506E-01 0.20987744E+04</pdfrwt>
<totfact> 0.75241205E+00</totfact>
</mgrwt>
</event>
<event>
 6    1  0.3229915E-005  0.3708608E+04  0.7818608E-02  0.8066057E-01
         -2   -1    0    0    0  501 -0.00000000000E+00  0.00000000000E+00  0.13577386395E+04  0.13577386395E+04  0.00000000000E+00 0.  1.
          2   -1    0    0  501    0  0.00000000000E+00 -0.00000000000E+00 -0.25324775520E+04  0.25324775520E+04  0.00000000000E+00 0. -1.
         23    2    1    2    0    0 -0.12913787337E+04  0.24995040092E+03 -0.19567120777E+04  0.23599821349E+04  0.10324381401E+03 0.  0.
         13    1    3    3    0    0 -0.33086003168E+03  0.45620450567E+02 -0.42544224255E+03  0.54087955020E+03  0.00000000000E+00 0. -1.
        -13    1    3    3    0    0 -0.96051870204E+03  0.20432995036E+03 -0.15312698352E+04  0.18191025847E+04  0.00000000000E+00 0.  1.
         22    1    1    2    0    0  0.12913787337E+04 -0.24995040092E+03  0.78197316527E+03  0.15302340566E+04  0.00000000000E+00 0.  1.
<mgrwt>
<rscale>  0 0.37086076E+04</rscale>
<asrwt>0</asrwt>
<pdfrwt beam="1">  1        2 0.38961193E+00 0.37086076E+04</pdfrwt>
<pdfrwt beam="2">  1       -2 0.20888287E+00 0.37086076E+04</pdfrwt>
<totfact> 0.31344546E-01</totfact>
</mgrwt>
</event>
<event>
 6    1  0.2436515E-005  0.1933638E+04  0.7818608E-02  0.8638291E-01
         -2   -1    0    0    0  501 -0.00000000000E+00  0.00000000000E+00  0.69618598013E+03  0.69618598013E+03  0.00000000000E+00 0. -1.
          2   -1    0    0  501    0  0.00000000000E+00 -0.00000000000E+00 -0.13426569241E+04  0.13426569241E+04  0.00000000000E+00 0.  1.
         23    2    1    2    0    0 -0.16990753865E+03  0.59273287118E+03 -0.11060747251E+04  0.12697938395E+04  0.93671068969E+02 0.  0.
         11    1    3    3    0    0 -0.14104584822E+03  0.40378981505E+03 -0.83415720102E+03  0.93742113378E+03  0.00000000000E+00 0.  1.
        -11    1    3    3    0    0 -0.28861690431E+02  0.18894305613E+03 -0.27191752407E+03  0.33237270576E+03  0.00000000000E+00 0. -1.
         22    1    1    2    0    0  0.16990753865E+03 -0.59273287118E+03  0.45960378113E+03  0.76904906469E+03  0.00000000000E+00 0. -1.
<mgrwt>
<rscale>  0 0.19336379E+04</rscale>
<asrwt>0</asrwt>
<pdfrwt beam="1">  1        2 0.20656260E+00 0.19336379E+04</pdfrwt>
<pdfrwt beam="2">  1       -2 0.10710554E+00 0.19336379E+04</pdfrwt>
<totfact> 0.10221851E+01</totfact>
</mgrwt>
</event>
<event>
 6    1  0.2436515E-005  0.3458973E+04  0.7818608E-02  0.8123582E-01
         -2   -1    0    0    0  501 -0.00000000000E+00  0.00000000000E+00  0.85198220259E+03  0.85198220259E+03  0.00000000000E+00 0. -1.
          2   -1    0    0  501    0  0.00000000000E+00 -0.00000000000E+00 -0.35107825905E+04  0.35107825905E+04  0.00000000000E+00 0.  1.
         23    2    1    2    0    0  0.15520418937E+04 -0.45964448071E+03 -0.56636709309E+03  0.17173188606E+04  0.91133397733E+02 0.  0.
         13    1    3    3    0    0  0.12741852543E+04 -0.35159572478E+03 -0.48858436763E+03  0.14092133622E+04  0.00000000000E+00 0.  1.
        -13    1    3    3    0    0  0.27785663947E+03 -0.10804875593E+03 -0.77782725466E+02  0.30810549839E+03  0.00000000000E+00 0. -1.
         22    1    1    2    0    0 -0.15520418937E+04  0.45964448071E+03 -0.20924332948E+04  0.26454459325E+04  0.00000000000E+00 0.  1.
<mgrwt>
<rscale>  0 0.34589734E+04</rscale>
<asrwt>0</asrwt>
<pdfrwt beam="1">  1        2 0.54012039E+00 0.34589734E+04</pdfrwt>
<pdfrwt beam="2">  1       -2 0.13107419E+00 0.34589734E+04</pdfrwt>
<totfact> 0.27971525E-01</totfact>
</mgrwt>
</event>
<event>
 6    1  0.2436515E-005  0.2046345E+04  0.7818608E-02  0.8585254E-01
          2   -1    0    0  501    0  0.00000000000E+00  0.00000000000E+00  0.24528711879E+04  0.24528711879E+04  0.00000000000E+00 0.  1.
         -2   -1    0    0    0  501 -0.00000000000E+00 -0.00000000000E+00 -0.42679865208E+03  0.42679865208E+03  0.00000000000E+00 0. -1.
         23    2    1    2    0    0  0.58353903229E+03 -0.79515686327E+03  0.64227545289E+03  0.11803503862E+04  0.88977734852E+02 0.  0.
         13    1    3    3    0    0  0.51572178290E+03 -0.64973954514E+03  0.52701782191E+03  0.98279103500E+03  0.00000000000E+00 0. -1.
        -13    1    3    3    0    0  0.67817249386E+02 -0.14541731813E+03  0.11525763099E+03  0.19755935115E+03  0.00000000000E+00 0.  1.
         22    1    1    2    0    0 -0.58353903229E+03  0.79515686327E+03  0.13837970829E+04  0.16993194538E+04  0.00000000000E+00 0.  1.
<mgrwt>
<rscale>  0 0.20463451E+04</rscale>
<asrwt>0</asrwt>
<pdfrwt beam="1">  1        2 0.37736479E+00 0.20463451E+04</pdfrwt>
<pdfrwt beam="2">  1       -2 0.65661333E-01 0.20463451E+04</pdfrwt>
<totfact> 0.73308029E+00</totfact>
</mgrwt>
</event>
<event>
 6    1  0.2436515E-005  0.2288007E+04  0.7818608E-02  0.8482665E-01
         -2   -1    0    0    0  501 -0.00000000000E+00  0.00000000000E+00  0.30255359775E+03  0.30255359775E+03  0.00000000000E+00 0. -1.
          2   -1    0    0  501    0  0.00000000000E+00 -0.00000000000E+00 -0.43256602703E+04  0.43256602703E+04  0.00000000000E+00 0.  1.
         23    2    1    2    0    0 -0.19969873727E+03  0.11201616130E+04 -0.22151028726E+04  0.24919743296E+04  0.92810012070E+02 0.  0.
         13    1    3    3    0    0 -0.15337172599E+03  0.78836425378E+03 -0.14721721558E+04  0.16770008764E+04  0.00000000000E+00 0.  1.
        -13    1    3    3    0    0 -0.46327011287E+02  0.33179735924E+03 -0.74293071674E+03  0.81497345321E+03  0.00000000000E+00 0. -1.
         22    1    1    2    0    0  0.19969873727E+03 -0.11201616130E+04 -0.18080038000E+04  0.21362395385E+04  0.00000000000E+00 0. -1.
<mgrwt>
<rscale>  0 0.22880071E+04</rscale>
<asrwt>0</asrwt>
<pdfrwt beam="1">  1        2 0.66548617E+00 0.22880071E+04</pdfrwt>
<pdfrwt beam="2">  1       -2 0.46546709E-01 0.22880071E+04</pdfrwt>
<totfact> 0.71994646E-01</totfact>
</mgrwt>
</event>
<event>
 6    1  0.2436515E-005  0.2899629E+04  0.7818608E-02  0.8272988E-01
         -2   -1    0    0    0  501 -0.00000000000E+00  0.00000000000E+00  0.11771802522E+04  0.11771802522E+04  0.00000000000E+00 0. -1.
          2   -1    0    0  501    0  0.00000000000E+00 -0.00000000000E+00 -0.17855901764E+04  0.17855901764E+04  0.00000000000E+00 0.  1.
         23    2    1    2    0    0  0.40305263155E+03 -0.78642441818E+03  0.86806824451E+03  0.12420430906E+04  0.90629865307E+02 0.  0.
         13    1    3    3    0    0  0.32874406294E+03 -0.68872756814E+03  0.77783522076E+03  0.10896999370E+04  0.00000000000E+00 0. -1.
        -13    1    3    3    0    0  0.74308568607E+02 -0.97696850042E+02  0.90233023743E+02  0.15234315361E+03  0.00000000000E+00 0.  1.
         22    1    1    2    0    0 -0.40305263155E+03  0.78642441818E+03 -0.14764781687E+04  0.17207273381E+04  0.00000000000E+00 0.  1.
<mgrwt>
<rscale>  0 0.28996286E+04</rscale>
<asrwt>0</asrwt>
<pdfrwt beam="1">  1        2 0.27470618E+00 0.28996286E+04</pdfrwt>
<pdfrwt beam="2">  1       -2 0.18110466E+00 0.28996286E+04</pdfrwt>
<totfact> 0.13517731E+00</totfact>
</mgrwt>
</event>
<event>
 6    1  0.2436515E-005  0.8380860E+03  0.7818608E-02  0.9506468E-01
          2   -1    0    0  501    0  0.00000000000E+00  0.00000000000E+00  0.24313686773E+04  0.24313686773E+04  0.00000000000E+00 0.  1.
         -2   -1    0    0    0  501 -0.00000000000E+00 -0.00000000000E+00 -0.72221484229E+02  0.72221484229E+02  0.00000000000E+00 0. -1.
         23    2    1    2    0    0 -0.18456972988E+03 -0.37087436324E+03  0.12119206877E+04  0.12838596859E+04  0.89051453550E+02 0.  0.
         11    1    3    3    0    0 -0.11361756061E+03 -0.29800784676E+03  0.98078814506E+03  0.10313403959E+04  0.00000000000E+00 0.  1.
        -11    1    3    3    0    0 -0.70952169266E+02 -0.72866516476E+02  0.23113254260E+03  0.25251928995E+03  0.00000000000E+00 0. -1.
         22    1    1    2    0    0  0.18456972988E+03  0.37087436324E+03  0.11472265055E+04  0.12197304757E+04  0.00000000000E+00 0.  1.
<mgrwt>
<rscale>  0 0.83808604E+03</rscale>
<asrwt>0</asrwt>
<pdfrwt beam="1">  1        2 0.37405666E+00 0.83808604E+03</pdfrwt>
<pdfrwt beam="2">  1       -2 0.11110999E-01 0.83808604E+03</pdfrwt>
<totfact> 0.22638858E+02</totfact>
</mgrwt>
</event>
<event>
 6    1  0.2436515E-005  0.1440468E+04  0.7818608E-02  0.8925035E-01
         -2   -1    0    0    0  501 -0.00000000000E+00  0.00000000000E+00  0.85879401616E+03  0.85879401616E+03  0.00000000000E+00 0. -1.
          2   -1    0    0  501    0  0.00000000000E+00 -0.00000000000E+00 -0.60402997188E+03  0.60402997188E+03  0.00000000000E+00 0.  1.
         23    2    1    2    0    0  0.32907798501E+03  0.23608851387E+03  0.72919453306E+03  0.83903364242E+03  0.90678991346E+02 0.  0.
         11    1    3    3    0    0  0.11922221110E+03  0.57937291087E+02  0.16832490312E+03  0.21425204393E+03  0.00000000000E+00 0. -1.
        -11    1    3    3    0    0  0.20985577390E+03  0.17815122278E+03  0.56086962995E+03  0.62478159850E+03  0.00000000000E+00 0.  1.
         22    1    1    2    0    0 -0.32907798501E+03 -0.23608851387E+03 -0.47443048878E+03  0.62379034561E+03  0.00000000000E+00 0.  1.
<mgrwt>
<rscale>  0 0.14404684E+04</rscale>
<asrwt>0</asrwt>
<pdfrwt beam="1">  1        2 0.92927689E-01 0.14404684E+04</pdfrwt>
<pdfrwt beam="2">  1       -2 0.13212216E+00 0.14404684E+04</pdfrwt>
<totfact> 0.19890134E+01</totfact>
</mgrwt>
</event>
<event>
 6    1  0.2436515E-005  0.2630351E+04  0.7818608E-02  0.8357964E-01
         -2   -1    0    0    0  501 -0.00000000000E+00  0.00000000000E+00  0.12615894172E+04  0.12615894172E+04  0.00000000000E+00 0. -1.
          2   -1    0    0  501    0  0.00000000000E+00 -0.00000000000E+00 -0.13710378520E+04  0.13710378520E+04  0.00000000000E+00 0.  1.
         23    2    1    2    0    0  0.29632584753E+03 -0.12719679358E+04  0.86200522908E+02  0.13120251519E+04  0.90928716142E+02 0.  0.
         11    1    3    3    0    0  0.15710878828E+03 -0.68333923490E+03  0.86920454730E+00  0.70116790915E+03  0.00000000000E+00 0. -1.
        -11    1    3    3    0    0  0.13921705926E+03 -0.58862870091E+03  0.85331318361E+02  0.61085724275E+03  0.00000000000E+00 0.  1.
         22    1    1    2    0    0 -0.29632584753E+03  0.12719679358E+04 -0.19564895776E+03  0.13206021173E+04  0.00000000000E+00 0.  1.
<mgrwt>
<rscale>  0 0.26303512E+04</rscale>
<asrwt>0</asrwt>
<pdfrwt beam="1">  1        2 0.21092890E+00 0.26303512E+04</pdfrwt>
<pdfrwt beam="2">  1       -2 0.19409068E+00 0.26303512E+04</pdfrwt>
<totfact> 0.19309047E+00</totfact>
</mgrwt>
</event>
<event>
 6    1  0.2436515E-005  0.2136436E+04  0.7818608E-02  0.8545361E-01
          2   -1    0    0  501    0  0.00000000000E+00  0.00000000000E+00  0.33172442327E+04  0.33172442327E+04  0.00000000000E+00 0.  1.
         -2   -1    0    0    0  501 -0.00000000000E+00 -0.00000000000E+00 -0.34398738472E+03  0.34398738472E+03  0.00000000000E+00 0. -1.
         23    2    1    2    0    0 -0.10007898083E+04  0.24411724380E+03  0.19609520195E+04  0.22169551429E+04  0.91563168092E+02 0.  0.
         13    1    3    3    0    0 -0.85360121055E+03  0.19816582312E+03  0.17296694886E+04  0.19389845950E+04  0.00000000000E+00 0. -1.
        -13    1    3    3    0    0 -0.14718859772E+03  0.45951420672E+02  0.23128253096E+03  0.27797054788E+03  0.00000000000E+00 0.  1.
         22    1    1    2    0    0  0.10007898083E+04 -0.24411724380E+03  0.10123048284E+04  0.14442764745E+04  0.00000000000E+00 0. -1.
<mgrwt>
<rscale>  0 0.21364364E+04</rscale>
<asrwt>0</asrwt>
<pdfrwt beam="1">  1        2 0.51034524E+00 0.21364364E+04</pdfrwt>
<pdfrwt beam="2">  1       -2 0.52921138E-01 0.21364364E+04</pdfrwt>
<totfact> 0.33663975E+00</totfact>
</mgrwt>
</event>
<event>
 6    1  0.2436515E-005  0.9869360E+03  0.7818608E-02  0.9322990E-01
         -2   -1    0    0    0  501 -0.00000000000E+00  0.00000000000E+00  0.23724596313E+03  0.23724596313E+03  0.00000000000E+00 0.  1.
          2   -1    0    0  501    0  0.00000000000E+00 -0.00000000000E+00 -0.10264059016E+04  0.10264059016E+04  0.00000000000E+00 0. -1.
         23    2    1    2    0    0 -0.31736732839E+03  0.97024437798E+02  0.62147916315E+02  0.34994467625E+03  0.91995381815E+02 0.  0.
         11    1    3    3    0    0 -0.21586781963E+03  0.66020921034E+02  0.85305213990E+02  0.24131858009E+03  0.00000000000E+00 0.  1.
        -11    1    3    3    0    0 -0.10149950876E+03  0.31003516764E+02 -0.23157297675E+02  0.10862609616E+03  0.00000000000E+00 0. -1.
         22    1    1    2    0    0  0.31736732839E+03 -0.97024437798E+02 -0.85130785478E+03  0.91370718847E+03  0.00000000000E+00 0. -1.
<mgrwt>
<rscale>  0 0.98693598E+03</rscale>
<asrwt>0</asrwt>
<pdfrwt beam="1">  1        2 0.15790860E+00 0.98693598E+03</pdfrwt>
<pdfrwt beam="2">  1       -2 0.36499380E-01 0.98693598E+03</pdfrwt>
<totfact> 0.17085590E+02</totfact>
</mgrwt>
</event>
<event>
 6    1  0.2436515E-005  0.3766710E+04  0.7818608E-02  0.8053337E-01
          2   -1    0    0  501    0  0.00000000000E+00  0.00000000000E+00  0.27166213939E+04  0.27166213939E+04  0.00000000000E+00 0.  1.
         -2   -1    0    0    0  501 -0.00000000000E+00 -0.00000000000E+00 -0.13056753778E+04  0.13056753778E+04  0.00000000000E+00 0. -1.
         23    2    1    2    0    0 -0.31571049245E+03 -0.44806044585E+03  0.26291672546E+04  0.26864471304E+04  0.63611743029E+02 0.  0.
         13    1    3    3    0    0 -0.66371666777E+02 -0.79669553945E+02  0.39202350304E+03  0.40550568789E+03  0.00000000000E+00 0. -1.
        -13    1    3    3    0    0 -0.24933882568E+03 -0.36839089190E+03  0.22371437515E+04  0.22809414425E+04  0.00000000000E+00 0.  1.
         22    1    1    2    0    0  0.31571049245E+03  0.44806044585E+03 -0.12182212384E+04  0.13358496412E+04  0.00000000000E+00 0. -1.
<mgrwt>
<rscale>  0 0.37667098E+04</rscale>
<asrwt>0</asrwt>
<pdfrwt beam="1">  1        2 0.41794175E+00 0.37667098E+04</pdfrwt>
<pdfrwt beam="2">  1       -2 0.20087314E+00 0.37667098E+04</pdfrwt>
<totfact> 0.27383965E-01</totfact>
</mgrwt>
</event>
<event>
 6    1  0.2436515E-005  0.1295908E+04  0.7818608E-02  0.9032816E-01
          2   -1    0    0  501    0  0.00000000000E+00  0.00000000000E+00  0.13711202051E+04  0.13711202051E+04  0.00000000000E+00 0.  1.
         -2   -1    0    0    0  501 -0.00000000000E+00 -0.00000000000E+00 -0.30620561575E+03  0.30620561575E+03  0.00000000000E+00 0. -1.
         23    2    1    2    0    0  0.62502065051E+03 -0.25563581388E+02  0.74001248203E+03  0.97243881599E+03  0.81941851500E+02 0.  0.
         11    1    3    3    0    0  0.22344092501E+03  0.22128077957E+02  0.22821411378E+03  0.32015180857E+03  0.00000000000E+00 0. -1.
        -11    1    3    3    0    0  0.40157972550E+03 -0.47691659345E+02  0.51179836825E+03  0.65228700742E+03  0.00000000000E+00 0.  1.
         22    1    1    2    0    0 -0.62502065051E+03  0.25563581388E+02  0.32490210731E+03  0.70488700484E+03  0.00000000000E+00 0.  1.
<mgrwt>
<rscale>  0 0.12959085E+04</rscale>
<asrwt>0</asrwt>
<pdfrwt beam="1">  1        2 0.21094157E+00 0.12959085E+04</pdfrwt>
<pdfrwt beam="2">  1       -2 0.47108557E-01 0.12959085E+04</pdfrwt>
<totfact> 0.62934668E+01</totfact>
</mgrwt>
</event>
<event>
 6    1  0.2436515E-005  0.3490260E+04  0.7818608E-02  0.8116102E-01
         -2   -1    0    0    0  501 -0.00000000000E+00  0.00000000000E+00  0.19784154182E+04  0.19784154182E+04  0.00000000000E+00 0. -1.
          2   -1    0    0  501    0  0.00000000000E+00 -0.00000000000E+00 -0.15393521506E+04  0.15393521506E+04  0.00000000000E+00 0.  1.
         23    2    1    2    0    0 -0.80343496980E+03  0.15305435832E+04 -0.12643589446E+02  0.17311197313E+04  0.92435126920E+02 0.  0.
         11    1    3    3    0    0 -0.41908311582E+03  0.85539111892E+03  0.30604886620E+02  0.95302743055E+03  0.00000000000E+00 0. -1.
        -11    1    3    3    0    0 -0.38435185398E+03  0.67515246431E+03 -0.43248476066E+02  0.77809230070E+03  0.00000000000E+00 0.  1.
         22    1    1    2    0    0  0.80343496980E+03 -0.15305435832E+04  0.45170685703E+03  0.17866478376E+04  0.00000000000E+00 0.  1.
<mgrwt>
<rscale>  0 0.34902596E+04</rscale>
<asrwt>0</asrwt>
<pdfrwt beam="1">  1        2 0.23682341E+00 0.34902596E+04</pdfrwt>
<pdfrwt beam="2">  1       -2 0.30437160E+00 0.34902596E+04</pdfrwt>
<totfact> 0.29635807E-01</totfact>
</mgrwt>
</event>
<event>
 6    1  0.2436515E-005  0.1631069E+04  0.7818608E-02  0.8801685E-01
          2   -1    0    0  501    0  0.00000000000E+00  0.00000000000E+00  0.18742766086E+04  0.18742766086E+04  0.00000000000E+00 0.  1.
         -2   -1    0    0    0  501 -0.00000000000E+00 -0.00000000000E+00 -0.35485495897E+03  0.35485495897E+03  0.00000000000E+00 0. -1.
         23    2    1    2    0    0  0.13286813410E+03 -0.67754447087E+03  0.13490041138E+04  0.15179616950E+04  0.87607976336E+02 0.  0.
         11    1    3    3    0    0  0.21726322569E+02 -0.31000946997E+03  0.55858778207E+03  0.63921687622E+03  0.00000000000E+00 0.  1.
        -11    1    3    3    0    0  0.11114181153E+03 -0.36753500090E+03  0.79041633169E+03  0.87874481880E+03  0.00000000000E+00 0. -1.
         22    1    1    2    0    0 -0.13286813410E+03  0.67754447087E+03  0.17041753583E+03  0.71116987253E+03  0.00000000000E+00 0. -1.
<mgrwt>
<rscale>  0 0.16310688E+04</rscale>
<asrwt>0</asrwt>
<pdfrwt beam="1">  1        2 0.28835024E+00 0.16310688E+04</pdfrwt>
<pdfrwt beam="2">  1       -2 0.54593071E-01 0.16310688E+04</pdfrwt>
<totfact> 0.23702801E+01</totfact>
</mgrwt>
</event>
<event>
 6    1  0.2436515E-005  0.2621427E+04  0.7818608E-02  0.8360959E-01
         -2   -1    0    0    0  501 -0.00000000000E+00  0.00000000000E+00  0.12564172298E+04  0.12564172298E+04  0.00000000000E+00 0. -1.
          2   -1    0    0  501    0  0.00000000000E+00 -0.00000000000E+00 -0.13673564103E+04  0.13673564103E+04  0.00000000000E+00 0.  1.
         23    2    1    2    0    0  0.13233203186E+03 -0.10020281760E+04  0.77730942727E+03  0.12782039387E+04  0.89571931948E+02 0.  0.
         13    1    3    3    0    0 -0.71680583561E+01 -0.13044009932E+03  0.12329184801E+03  0.17962984261E+03  0.00000000000E+00 0. -1.
        -13    1    3    3    0    0  0.13950009021E+03 -0.87158807667E+03  0.65401757926E+03  0.10985740961E+04  0.00000000000E+00 0.  1.
         22    1    1    2    0    0 -0.13233203186E+03  0.10020281760E+04 -0.88824860782E+03  0.13455697014E+04  0.00000000000E+00 0.  1.
<mgrwt>
<rscale>  0 0.26214272E+04</rscale>
<asrwt>0</asrwt>
<pdfrwt beam="1">  1        2 0.21036252E+00 0.26214272E+04</pdfrwt>
<pdfrwt beam="2">  1       -2 0.19329496E+00 0.26214272E+04</pdfrwt>
<totfact> 0.19656696E+00</totfact>
</mgrwt>
</event>
<event>
 6    1  0.2436515E-005  0.1627245E+04  0.7818608E-02  0.8803983E-01
         -2   -1    0    0    0  501 -0.00000000000E+00  0.00000000000E+00  0.31785863505E+03  0.31785863505E+03  0.00000000000E+00 0. -1.
          2   -1    0    0  501    0  0.00000000000E+00 -0.00000000000E+00 -0.20826288439E+04  0.20826288439E+04  0.00000000000E+00 0.  1.
         23    2    1    2    0    0 -0.62753755025E+03  0.30839474571E+03 -0.14912886543E+04  0.16496860026E+04  0.92797417975E+02 0.  0.
         11    1    3    3    0    0 -0.24682508760E+03  0.15697019497E+03 -0.69871788524E+03  0.75747537856E+03  0.00000000000E+00 0. -1.
        -11    1    3    3    0    0 -0.38071246266E+03  0.15142455074E+03 -0.79257076903E+03  0.89221062408E+03  0.00000000000E+00 0.  1.
         22    1    1    2    0    0  0.62753755025E+03 -0.30839474571E+03 -0.27348155458E+03  0.75080147632E+03  0.00000000000E+00 0. -1.
<mgrwt>
<rscale>  0 0.16272450E+04</rscale>
<asrwt>0</asrwt>
<pdfrwt beam="1">  1        2 0.32040445E+00 0.16272450E+04</pdfrwt>
<pdfrwt beam="2">  1       -2 0.48901326E-01 0.16272450E+04</pdfrwt>
<totfact> 0.22775925E+01</totfact>
</mgrwt>
</event>
<event>
 6    1  0.2436515E-005  0.4191111E+04  0.7818608E-02  0.7967065E-01
          2   -1    0    0  501    0  0.00000000000E+00  0.00000000000E+00  0.36848713349E+04  0.36848713349E+04  0.00000000000E+00 0.  1.
         -2   -1    0    0    0  501 -0.00000000000E+00 -0.00000000000E+00 -0.11917250934E+04  0.11917250934E+04  0.00000000000E+00 0. -1.
         23    2    1    2    0    0 -0.18952478337E+03 -0.17361237224E+04  0.25926359605E+04  0.31273270302E+04  0.91476267502E+02 0.  0.
         11    1    3    3    0    0 -0.10543357587E+03 -0.11054511064E+04  0.15734890429E+04  0.19258780220E+04  0.00000000000E+00 0. -1.
        -11    1    3    3    0    0 -0.84091207505E+02 -0.63067261598E+03  0.10191469176E+04  0.12014490082E+04  0.00000000000E+00 0.  1.
         22    1    1    2    0    0  0.18952478337E+03  0.17361237224E+04 -0.99489718959E+02  0.17492693981E+04  0.00000000000E+00 0. -1.
<mgrwt>
<rscale>  0 0.41911114E+04</rscale>
<asrwt>0</asrwt>
<pdfrwt beam="1">  1        2 0.56690328E+00 0.41911114E+04</pdfrwt>
<pdfrwt beam="2">  1       -2 0.18334232E+00 0.41911114E+04</pdfrwt>
<totfact> 0.79808836E-02</totfact>
</mgrwt>
</event>
<event>
 6    1  0.2436515E-005  0.1548952E+04  0.7818608E-02  0.8852537E-01
         -1   -1    0    0    0  501 -0.00000000000E+00  0.00000000000E+00  0.31241720589E+03  0.31241720589E+03  0.00000000000E+00 0. -1.
          1   -1    0    0  501    0  0.00000000000E+00 -0.00000000000E+00 -0.19199110881E+04  0.19199110881E+04  0.00000000000E+00 0.  1.
         23    2    1    2    0    0  0.40585755813E+03  0.63847472530E+03 -0.10252185875E+04  0.12776477971E+04  0.94553735563E+02 0.  0.
         13    1    3    3    0    0  0.56676603699E+02  0.16159395216E+03 -0.24064099632E+03  0.29535221667E+03  0.00000000000E+00 0.  1.
        -13    1    3    3    0    0  0.34918095443E+03  0.47688077314E+03 -0.78457759121E+03  0.98229558044E+03  0.00000000000E+00 0. -1.
         22    1    1    2    0    0 -0.40585755813E+03 -0.63847472530E+03 -0.58227529471E+03  0.95468049690E+03  0.00000000000E+00 0.  1.
<mgrwt>
<rscale>  0 0.15489522E+04</rscale>
<asrwt>0</asrwt>
<pdfrwt beam="1">  1        1 0.29537093E+00 0.15489522E+04</pdfrwt>
<pdfrwt beam="2">  1       -1 0.48064186E-01 0.15489522E+04</pdfrwt>
<totfact> 0.14084269E+01</totfact>
</mgrwt>
</event>
<event>
 6    1  0.2436515E-005  0.1962505E+04  0.7818608E-02  0.8624354E-01
          2   -1    0    0  501    0  0.00000000000E+00  0.00000000000E+00  0.50168871812E+03  0.50168871812E+03  0.00000000000E+00 0.  1.
         -2   -1    0    0    0  501 -0.00000000000E+00 -0.00000000000E+00 -0.19192312235E+04  0.19192312235E+04  0.00000000000E+00 0. -1.
         23    2    1    2    0    0 -0.27505815703E+02 -0.63369557444E+03  0.20996550056E+03  0.67417755639E+03  0.90017860169E+02 0.  0.
         11    1    3    3    0    0 -0.19838021845E+02 -0.69039296679E+02  0.49077240380E+02  0.86997397203E+02  0.00000000000E+00 0. -1.
        -11    1    3    3    0    0 -0.76677938572E+01 -0.56465627776E+03  0.16088826018E+03  0.58718015919E+03  0.00000000000E+00 0.  1.
         22    1    1    2    0    0  0.27505815703E+02  0.63369557444E+03 -0.16275080059E+04  0.17467423852E+04  0.00000000000E+00 0. -1.
<mgrwt>
<rscale>  0 0.19625052E+04</rscale>
<asrwt>0</asrwt>
<pdfrwt beam="1">  1        2 0.77182879E-01 0.19625052E+04</pdfrwt>
<pdfrwt beam="2">  1       -2 0.29526634E+00 0.19625052E+04</pdfrwt>
<totfact> 0.19439757E+00</totfact>
</mgrwt>
</event>
<event>
 6    1  0.2436515E-005  0.3085210E+04  0.7818608E-02  0.8219809E-01
         -2   -1    0    0    0  501 -0.00000000000E+00  0.00000000000E+00  0.52150501024E+03  0.52150501024E+03  0.00000000000E+00 0. -1.
          2   -1    0    0  501    0  0.00000000000E+00 -0.00000000000E+00 -0.45630058801E+04  0.45630058801E+04  0.00000000000E+00 0.  1.
         23    2    1    2    0    0  0.25601917708E+03 -0.34134438390E+03 -0.44632949993E+04  0.44845341448E+04  0.89344487054E+02 0.  0.
         11    1    3    3    0    0  0.57905540237E+02 -0.13381586087E+03 -0.17722032170E+04  0.17781912098E+04  0.00000000000E+00 0. -1.
        -11    1    3    3    0    0  0.19811363685E+03 -0.20752852302E+03 -0.26910917823E+04  0.27063429350E+04  0.00000000000E+00 0.  1.
         22    1    1    2    0    0 -0.25601917708E+03  0.34134438390E+03  0.42179412951E+03  0.59997674550E+03  0.00000000000E+00 0. -1.
<mgrwt>
<rscale>  0 0.30852102E+04</rscale>
<asrwt>0</asrwt>
<pdfrwt beam="1">  1        2 0.70200091E+00 0.30852102E+04</pdfrwt>
<pdfrwt beam="2">  1       -2 0.80231539E-01 0.30852102E+04</pdfrwt>
<totfact> 0.12418414E-01</totfact>
</mgrwt>
</event>
<event>
 6    1  0.2436515E-005  0.2850588E+04  0.7818608E-02  0.8287733E-01
         -2   -1    0    0    0  501 -0.00000000000E+00  0.00000000000E+00  0.12421119578E+04  0.12421119578E+04  0.00000000000E+00 0. -1.
          2   -1    0    0  501    0  0.00000000000E+00 -0.00000000000E+00 -0.16354909025E+04  0.16354909025E+04  0.00000000000E+00 0.  1.
         23    2    1    2    0    0  0.67249451482E+03 -0.25929142736E+03 -0.14364877239E+04  0.16097082109E+04  0.90457871278E+02 0.  0.
         11    1    3    3    0    0  0.26835297669E+03 -0.98538087910E+02 -0.66954934305E+03  0.72802431116E+03  0.00000000000E+00 0.  1.
        -11    1    3    3    0    0  0.40414153813E+03 -0.16075333945E+03 -0.76693838083E+03  0.88168389970E+03  0.00000000000E+00 0. -1.
         22    1    1    2    0    0 -0.67249451482E+03  0.25929142736E+03  0.10431087792E+04  0.12678946494E+04  0.00000000000E+00 0. -1.
<mgrwt>
<rscale>  0 0.28505879E+04</rscale>
<asrwt>0</asrwt>
<pdfrwt beam="1">  1        2 0.25161398E+00 0.28505879E+04</pdfrwt>
<pdfrwt beam="2">  1       -2 0.19109415E+00 0.28505879E+04</pdfrwt>
<totfact> 0.14071955E+00</totfact>
</mgrwt>
</event>
<event>
 6    1  0.2436515E-005  0.2039947E+04  0.7818608E-02  0.8588169E-01
         -2   -1    0    0    0  501 -0.00000000000E+00  0.00000000000E+00  0.36321307563E+03  0.36321307563E+03  0.00000000000E+00 0. -1.
          2   -1    0    0  501    0  0.00000000000E+00 -0.00000000000E+00 -0.28642855004E+04  0.28642855004E+04  0.00000000000E+00 0.  1.
         23    2    1    2    0    0 -0.58342965176E+03  0.82542966484E+03 -0.14435917639E+04  0.17646282338E+04  0.90726691332E+02 0.  0.
         13    1    3    3    0    0 -0.12405406792E+03  0.23859240372E+03 -0.41211932292E+03  0.49209560372E+03  0.00000000000E+00 0.  1.
        -13    1    3    3    0    0 -0.45937558385E+03  0.58683726112E+03 -0.10314724410E+04  0.12725326300E+04  0.00000000000E+00 0. -1.
         22    1    1    2    0    0  0.58342965176E+03 -0.82542966484E+03 -0.10574806609E+04  0.14628703423E+04  0.00000000000E+00 0. -1.
<mgrwt>
<rscale>  0 0.20399470E+04</rscale>
<asrwt>0</asrwt>
<pdfrwt beam="1">  1        2 0.44065930E+00 0.20399470E+04</pdfrwt>
<pdfrwt beam="2">  1       -2 0.55878935E-01 0.20399470E+04</pdfrwt>
<totfact> 0.58952894E+00</totfact>
</mgrwt>
</event>
<event>
 6    1  0.2436515E-005  0.5468036E+03  0.7818608E-02  0.1002236E+00
          2   -1    0    0  501    0  0.00000000000E+00  0.00000000000E+00  0.86514825677E+03  0.86514825677E+03  0.00000000000E+00 0.  1.
         -2   -1    0    0    0  501 -0.00000000000E+00 -0.00000000000E+00 -0.86399706076E+02  0.86399706076E+02  0.00000000000E+00 0. -1.
         23    2    1    2    0    0 -0.48526144246E+02 -0.16112812725E+03  0.75539319927E+03  0.78165819710E+03  0.10978884972E+03 0.  0.
         11    1    3    3    0    0 -0.46874943824E+02 -0.98900642696E+02  0.25619482026E+03  0.27859358107E+03  0.00000000000E+00 0.  1.
        -11    1    3    3    0    0 -0.16512004225E+01 -0.62227484550E+02  0.49919837901E+03  0.50306461603E+03  0.00000000000E+00 0. -1.
         22    1    1    2    0    0  0.48526144246E+02  0.16112812725E+03  0.23355351424E+02  0.16988976575E+03  0.00000000000E+00 0. -1.
<mgrwt>
<rscale>  0 0.54680364E+03</rscale>
<asrwt>0</asrwt>
<pdfrwt beam="1">  1        2 0.13309973E+00 0.54680364E+03</pdfrwt>
<pdfrwt beam="2">  1       -2 0.13292263E-01 0.54680364E+03</pdfrwt>
<totfact> 0.13369735E+03</totfact>
</mgrwt>
</event>
<event>
 6    1  0.2436515E-005  0.2862399E+04  0.7818608E-02  0.8284154E-01
          2   -1    0    0  501    0  0.00000000000E+00  0.00000000000E+00  0.23433668746E+04  0.23433668746E+04  0.00000000000E+00 0.  1.
         -2   -1    0    0    0  501 -0.00000000000E+00 -0.00000000000E+00 -0.87409793317E+03  0.87409793317E+03  0.00000000000E+00 0. -1.
         23    2    1    2    0    0 -0.71504347756E+03  0.12011344012E+04  0.10734174948E+04  0.17646367407E+04  0.87787721617E+02 0.  0.
         11    1    3    3    0    0 -0.22424227689E+03  0.33518310167E+03  0.26776399257E+03  0.48407630195E+03  0.00000000000E+00 0. -1.
        -11    1    3    3    0    0 -0.49080120067E+03  0.86595129952E+03  0.80565350220E+03  0.12805604388E+04  0.00000000000E+00 0.  1.
         22    1    1    2    0    0  0.71504347756E+03 -0.12011344012E+04  0.39585144662E+03  0.14528280670E+04  0.00000000000E+00 0. -1.
<mgrwt>
<rscale>  0 0.28623991E+04</rscale>
<asrwt>0</asrwt>
<pdfrwt beam="1">  1        2 0.36051798E+00 0.28623991E+04</pdfrwt>
<pdfrwt beam="2">  1       -2 0.13447661E+00 0.28623991E+04</pdfrwt>
<totfact> 0.14773127E+00</totfact>
</mgrwt>
</event>
<event>
 6    1  0.2436515E-005  0.3223263E+04  0.7818608E-02  0.8182700E-01
          2   -1    0    0  501    0  0.00000000000E+00  0.00000000000E+00  0.19284805072E+04  0.19284805072E+04  0.00000000000E+00 0.  1.
         -2   -1    0    0    0  501 -0.00000000000E+00 -0.00000000000E+00 -0.13468411401E+04  0.13468411401E+04  0.00000000000E+00 0. -1.
         23    2    1    2    0    0 -0.23940126082E+03  0.14868503016E+04  0.87052495627E+03  0.17418642247E+04  0.90777170451E+02 0.  0.
         11    1    3    3    0    0 -0.46900577518E+02  0.53354228981E+03  0.33245289289E+03  0.63039032764E+03  0.00000000000E+00 0. -1.
        -11    1    3    3    0    0 -0.19250068330E+03  0.95330801181E+03  0.53807206339E+03  0.11114738971E+04  0.00000000000E+00 0.  1.
         22    1    1    2    0    0  0.23940126082E+03 -0.14868503016E+04 -0.28888558918E+03  0.15334574225E+04  0.00000000000E+00 0. -1.
<mgrwt>
<rscale>  0 0.32232635E+04</rscale>
<asrwt>0</asrwt>
<pdfrwt beam="1">  1        2 0.29668931E+00 0.32232635E+04</pdfrwt>
<pdfrwt beam="2">  1       -2 0.20720633E+00 0.32232635E+04</pdfrwt>
<totfact> 0.73457739E-01</totfact>
</mgrwt>
</event>
<event>
 6    1  0.2436515E-005  0.1639853E+04  0.7818608E-02  0.8796432E-01
         -2   -1    0    0    0  501 -0.00000000000E+00  0.00000000000E+00  0.78025814795E+03  0.78025814795E+03  0.00000000000E+00 0. -1.
          2   -1    0    0  501    0  0.00000000000E+00 -0.00000000000E+00 -0.86161208702E+03  0.86161208702E+03  0.00000000000E+00 0.  1.
         23    2    1    2    0    0 -0.19176045032E+03 -0.78264028513E+03 -0.17821572228E+03  0.83027914874E+03  0.91130318466E+02 0.  0.
         11    1    3    3    0    0 -0.54107787108E+02 -0.40590910417E+03 -0.78088199070E+02  0.41687842389E+03  0.00000000000E+00 0. -1.
        -11    1    3    3    0    0 -0.13765266321E+03 -0.37673118096E+03 -0.10012752321E+03  0.41340072485E+03  0.00000000000E+00 0.  1.
         22    1    1    2    0    0  0.19176045032E+03  0.78264028513E+03  0.96861783212E+02  0.81159108624E+03  0.00000000000E+00 0. -1.
<mgrwt>
<rscale>  0 0.16398535E+04</rscale>
<asrwt>0</asrwt>
<pdfrwt beam="1">  1        2 0.13255571E+00 0.16398535E+04</pdfrwt>
<pdfrwt beam="2">  1       -2 0.12003972E+00 0.16398535E+04</pdfrwt>
<totfact> 0.15801306E+01</totfact>
</mgrwt>
</event>
<event>
 6    1  0.2436515E-005  0.1896810E+04  0.7818608E-02  0.8656446E-01
         -2   -1    0    0    0  501 -0.00000000000E+00  0.00000000000E+00  0.32981717086E+03  0.32981717086E+03  0.00000000000E+00 0. -1.
          2   -1    0    0  501    0  0.00000000000E+00 -0.00000000000E+00 -0.27271841580E+04  0.27271841580E+04  0.00000000000E+00 0.  1.
         23    2    1    2    0    0 -0.14034997333E+03  0.18257647328E+03 -0.26807097694E+04  0.26918774926E+04  0.83470258337E+02 0.  0.
         13    1    3    3    0    0 -0.13619285937E+03  0.12473184666E+03 -0.21837676798E+04  0.21915628688E+04  0.00000000000E+00 0. -1.
        -13    1    3    3    0    0 -0.41571139602E+01  0.57844626621E+02 -0.49694208959E+03  0.50031462384E+03  0.00000000000E+00 0.  1.
         22    1    1    2    0    0  0.14034997333E+03 -0.18257647328E+03  0.28334278219E+03  0.36512383629E+03  0.00000000000E+00 0. -1.
<mgrwt>
<rscale>  0 0.18968101E+04</rscale>
<asrwt>0</asrwt>
<pdfrwt beam="1">  1        2 0.41956680E+00 0.18968101E+04</pdfrwt>
<pdfrwt beam="2">  1       -2 0.50741103E-01 0.18968101E+04</pdfrwt>
<totfact> 0.88144239E+00</totfact>
</mgrwt>
</event>
<event>
 6    1  0.2436515E-005  0.2311610E+04  0.7818608E-02  0.8473357E-01
          2   -1    0    0  501    0  0.00000000000E+00  0.00000000000E+00  0.68462768868E+03  0.68462768868E+03  0.00000000000E+00 0.  1.
         -2   -1    0    0    0  501 -0.00000000000E+00 -0.00000000000E+00 -0.19512580982E+04  0.19512580982E+04  0.00000000000E+00 0. -1.
         23    2    1    2    0    0 -0.11100830561E+04  0.10386430679E+03 -0.29474045508E+03  0.11568177461E+04  0.91011956309E+02 0.  0.
         11    1    3    3    0    0 -0.26630357877E+03  0.47194352261E+02 -0.10494909249E+03  0.29010207681E+03  0.00000000000E+00 0.  1.
        -11    1    3    3    0    0 -0.84377947733E+03  0.56669954533E+02 -0.18979136259E+03  0.86671566931E+03  0.00000000000E+00 0. -1.
         22    1    1    2    0    0  0.11100830561E+04 -0.10386430679E+03 -0.97188995442E+03  0.14790680408E+04  0.00000000000E+00 0. -1.
<mgrwt>
<rscale>  0 0.23116101E+04</rscale>
<asrwt>0</asrwt>
<pdfrwt beam="1">  1        2 0.10532734E+00 0.23116101E+04</pdfrwt>
<pdfrwt beam="2">  1       -2 0.30019356E+00 0.23116101E+04</pdfrwt>
<totfact> 0.12102777E+00</totfact>
</mgrwt>
</event>
<event>
 6    1  0.2436515E-005  0.2666530E+04  0.7818608E-02  0.8345947E-01
         -2   -1    0    0    0  501 -0.00000000000E+00  0.00000000000E+00  0.77981441157E+03  0.77981441157E+03  0.00000000000E+00 0. -1.
          2   -1    0    0  501    0  0.00000000000E+00 -0.00000000000E+00 -0.22795103557E+04  0.22795103557E+04  0.00000000000E+00 0.  1.
         23    2    1    2    0    0  0.65972254515E+03  0.11368002086E+04 -0.50468646767E+03  0.14108125868E+04  0.90195197917E+02 0.  0.
         11    1    3    3    0    0  0.83519627739E+02  0.12221959498E+03 -0.29306900275E+02  0.15090411532E+03  0.00000000000E+00 0. -1.
        -11    1    3    3    0    0  0.57620291741E+03  0.10145806136E+04 -0.47537956739E+03  0.12599084715E+04  0.00000000000E+00 0.  1.
         22    1    1    2    0    0 -0.65972254515E+03 -0.11368002086E+04 -0.99500947650E+03  0.16485121805E+04  0.00000000000E+00 0. -1.
<mgrwt>
<rscale>  0 0.26665296E+04</rscale>
<asrwt>0</asrwt>
<pdfrwt beam="1">  1        2 0.35069390E+00 0.26665296E+04</pdfrwt>
<pdfrwt beam="2">  1       -2 0.11997145E+00 0.26665296E+04</pdfrwt>
<totfact> 0.21762293E+00</totfact>
</mgrwt>
</event>
<event>
 6    1  0.2436515E-005  0.1304860E+04  0.7818608E-02  0.9025720E-01
          2   -1    0    0  501    0  0.00000000000E+00  0.00000000000E+00  0.23789262763E+04  0.23789262763E+04  0.00000000000E+00 0.  1.
         -2   -1    0    0    0  501 -0.00000000000E+00 -0.00000000000E+00 -0.17893156140E+03  0.17893156140E+03  0.00000000000E+00 0. -1.
         23    2    1    2    0    0 -0.10450038622E+03  0.39068514075E+03  0.10961145553E+03  0.42871308428E+03  0.90691937488E+02 0.  0.
         11    1    3    3    0    0 -0.11393043244E+03  0.38013898844E+03  0.11561708217E+03  0.41334380805E+03  0.00000000000E+00 0.  1.
        -11    1    3    3    0    0  0.94300462194E+01  0.10546152315E+02 -0.60056266443E+01  0.15369276227E+02  0.00000000000E+00 0. -1.
         22    1    1    2    0    0  0.10450038622E+03 -0.39068514075E+03  0.20903832594E+04  0.21291447534E+04  0.00000000000E+00 0.  1.
<mgrwt>
<rscale>  0 0.13048601E+04</rscale>
<asrwt>0</asrwt>
<pdfrwt beam="1">  1        2 0.36598864E+00 0.13048601E+04</pdfrwt>
<pdfrwt beam="2">  1       -2 0.27527934E-01 0.13048601E+04</pdfrwt>
<totfact> 0.48347677E+01</totfact>
</mgrwt>
</event>
<event>
 6    1  0.2436515E-005  0.2934792E+04  0.7818608E-02  0.8262600E-01
          2   -1    0    0  501    0  0.00000000000E+00  0.00000000000E+00  0.10410155965E+04  0.10410155965E+04  0.00000000000E+00 0.  1.
         -2   -1    0    0    0  501 -0.00000000000E+00 -0.00000000000E+00 -0.20684143320E+04  0.20684143320E+04  0.00000000000E+00 0. -1.
         23    2    1    2    0    0 -0.67237092458E+03 -0.11195785334E+04 -0.12198391582E+04  0.17893647524E+04  0.90993913857E+02 0.  0.
         13    1    3    3    0    0 -0.13178779554E+03 -0.27982225840E+03 -0.32040131911E+03  0.44533754012E+03  0.00000000000E+00 0. -1.
        -13    1    3    3    0    0 -0.54058312904E+03 -0.83975627505E+03 -0.89943783906E+03  0.13440272122E+04  0.00000000000E+00 0.  1.
         22    1    1    2    0    0  0.67237092458E+03  0.11195785334E+04  0.19244042267E+03  0.13200651761E+04  0.00000000000E+00 0.  1.
<mgrwt>
<rscale>  0 0.29347924E+04</rscale>
<asrwt>0</asrwt>
<pdfrwt beam="1">  1        2 0.16015625E+00 0.29347924E+04</pdfrwt>
<pdfrwt beam="2">  1       -2 0.31821758E+00 0.29347924E+04</pdfrwt>
<totfact> 0.50120466E-01</totfact>
</mgrwt>
</event>
<event>
 6    1  0.2436515E-005  0.8069681E+03  0.7818608E-02  0.9549985E-01
          2   -1    0    0  501    0  0.00000000000E+00  0.00000000000E+00  0.10834778561E+04  0.10834778561E+04  0.00000000000E+00 0.  1.
         -2   -1    0    0    0  501 -0.00000000000E+00 -0.00000000000E+00 -0.15025630456E+03  0.15025630456E+03  0.00000000000E+00 0. -1.
         23    2    1    2    0    0 -0.36296972292E+03  0.12106925449E+03  0.30309412165E+03  0.49653312834E+03  0.90963271820E+02 0.  0.
         11    1    3    3    0    0 -0.33973609866E+03  0.10850279765E+03  0.30604526891E+03  0.46995444508E+03  0.00000000000E+00 0. -1.
        -11    1    3    3    0    0 -0.23233624263E+02  0.12566456845E+02 -0.29511472514E+01  0.26578683265E+02  0.00000000000E+00 0.  1.
         22    1    1    2    0    0  0.36296972292E+03 -0.12106925449E+03  0.63012742986E+03  0.73720103228E+03  0.00000000000E+00 0. -1.
<mgrwt>
<rscale>  0 0.80696810E+03</rscale>
<asrwt>0</asrwt>
<pdfrwt beam="1">  1        2 0.16668890E+00 0.80696810E+03</pdfrwt>
<pdfrwt beam="2">  1       -2 0.23116355E-01 0.80696810E+03</pdfrwt>
<totfact> 0.36998808E+02</totfact>
</mgrwt>
</event>
<event>
 6    1  0.2436515E-005  0.3132805E+03  0.7818608E-02  0.1078784E+00
          2   -1    0    0  501    0  0.00000000000E+00  0.00000000000E+00  0.79147604353E+03  0.79147604353E+03  0.00000000000E+00 0.  1.
         -2   -1    0    0    0  501 -0.00000000000E+00 -0.00000000000E+00 -0.31000524803E+02  0.31000524803E+02  0.00000000000E+00 0. -1.
         23    2    1    2    0    0 -0.11000886217E+03 -0.91872196047E+02  0.49921660606E+03  0.52448551208E+03  0.72975218033E+02 0.  0.
         13    1    3    3    0    0 -0.19352028572E+02 -0.27678016145E+02  0.24147244795E+03  0.24382271573E+03  0.00000000000E+00 0.  1.
        -13    1    3    3    0    0 -0.90656833598E+02 -0.64194179903E+02  0.25774415812E+03  0.28066279635E+03  0.00000000000E+00 0. -1.
         22    1    1    2    0    0  0.11000886217E+03  0.91872196047E+02  0.26125891266E+03  0.29799105625E+03  0.00000000000E+00 0.  1.
<mgrwt>
<rscale>  0 0.31328053E+03</rscale>
<asrwt>0</asrwt>
<pdfrwt beam="1">  1        2 0.12176553E+00 0.31328053E+03</pdfrwt>
<pdfrwt beam="2">  1       -2 0.47693121E-02 0.31328053E+03</pdfrwt>
<totfact> 0.75813106E+03</totfact>
</mgrwt>
</event>
<event>
 6    1  0.2436515E-005  0.9194520E+03  0.7818608E-02  0.9401587E-01
         -2   -1    0    0    0  501 -0.00000000000E+00  0.00000000000E+00  0.31643795260E+03  0.31643795260E+03  0.00000000000E+00 0. -1.
          2   -1    0    0  501    0  0.00000000000E+00 -0.00000000000E+00 -0.66789717716E+03  0.66789717716E+03  0.00000000000E+00 0.  1.
         23    2    1    2    0    0  0.33009708203E+03  0.30256071146E+03 -0.26202226408E+03  0.52771051633E+03  0.96517638213E+02 0.  0.
         11    1    3    3    0    0  0.14881206782E+03  0.13318724591E+03 -0.62264059139E+02  0.20919055204E+03  0.00000000000E+00 0. -1.
        -11    1    3    3    0    0  0.18128501421E+03  0.16937346555E+03 -0.19975820494E+03  0.31851996429E+03  0.00000000000E+00 0.  1.
         22    1    1    2    0    0 -0.33009708203E+03 -0.30256071146E+03 -0.89436960480E+02  0.45662461343E+03  0.00000000000E+00 0. -1.
<mgrwt>
<rscale>  0 0.91945204E+03</rscale>
<asrwt>0</asrwt>
<pdfrwt beam="1">  1        2 0.10275341E+00 0.91945204E+03</pdfrwt>
<pdfrwt beam="2">  1       -2 0.48682763E-01 0.91945204E+03</pdfrwt>
<totfact> 0.17409634E+02</totfact>
</mgrwt>
</event>
<event>
 6    1  0.2436515E-005  0.2424932E+04  0.7818608E-02  0.8430228E-01
         -2   -1    0    0    0  501 -0.00000000000E+00  0.00000000000E+00  0.47799457414E+03  0.47799457414E+03  0.00000000000E+00 0. -1.
          2   -1    0    0  501    0  0.00000000000E+00 -0.00000000000E+00 -0.30755021248E+04  0.30755021248E+04  0.00000000000E+00 0.  1.
         23    2    1    2    0    0  0.10959773221E+04  0.47749168455E+03 -0.15807625012E+04  0.19841225896E+04  0.93636348555E+02 0.  0.
         13    1    3    3    0    0  0.96578581182E+03  0.44150911132E+03 -0.14378403667E+04  0.17874723634E+04  0.00000000000E+00 0.  1.
        -13    1    3    3    0    0  0.13019151032E+03  0.35982573226E+02 -0.14292213456E+03  0.19665022625E+03  0.00000000000E+00 0. -1.
         22    1    1    2    0    0 -0.10959773221E+04 -0.47749168455E+03 -0.10167450494E+04  0.15693741093E+04  0.00000000000E+00 0.  1.
<mgrwt>
<rscale>  0 0.24249316E+04</rscale>
<asrwt>0</asrwt>
<pdfrwt beam="1">  1        2 0.47315418E+00 0.24249316E+04</pdfrwt>
<pdfrwt beam="2">  1       -2 0.73537626E-01 0.24249316E+04</pdfrwt>
<totfact> 0.23363336E+00</totfact>
</mgrwt>
</event>
<event>
 6    1  0.4694391E-005  0.3610852E+04  0.7818608E-02  0.8088010E-01
         -2   -1    0    0    0  501 -0.00000000000E+00  0.00000000000E+00  0.14201394388E+04  0.14201394388E+04  0.00000000000E+00 0. -1.
          2   -1    0    0  501    0  0.00000000000E+00 -0.00000000000E+00 -0.22952420914E+04  0.22952420914E+04  0.00000000000E+00 0.  1.
         23    2    1    2    0    0 -0.16197653337E+04  0.77770058554E+03 -0.26832286383E+03  0.18189006710E+04  0.89132231284E+02 0.  0.
         13    1    3    3    0    0 -0.11992280661E+04  0.57383586656E+03 -0.15886616806E+03  0.13389077697E+04  0.00000000000E+00 0. -1.
        -13    1    3    3    0    0 -0.42053726762E+03  0.20386471898E+03 -0.10945669577E+03  0.47999290135E+03  0.00000000000E+00 0.  1.
         22    1    1    2    0    0  0.16197653337E+04 -0.77770058554E+03 -0.60677978882E+03  0.18964808592E+04  0.00000000000E+00 0.  1.
<mgrwt>
<rscale>  0 0.36108524E+04</rscale>
<asrwt>0</asrwt>
<pdfrwt beam="1">  1        2 0.35311416E+00 0.36108524E+04</pdfrwt>
<pdfrwt beam="2">  1       -2 0.21848299E+00 0.36108524E+04</pdfrwt>
<totfact> 0.37539071E-01</totfact>
</mgrwt>
</event>
<event>
 6    1  0.2436515E-005  0.4662923E+04  0.7818608E-02  0.7882719E-01
          1   -1    0    0  501    0  0.00000000000E+00  0.00000000000E+00  0.23822222756E+04  0.23822222756E+04  0.00000000000E+00 0.  1.
         -1   -1    0    0    0  501 -0.00000000000E+00 -0.00000000000E+00 -0.22817819308E+04  0.22817819308E+04  0.00000000000E+00 0. -1.
         23    2    1    2    0    0 -0.63720906873E+03 -0.17132733250E+04  0.14963482145E+04  0.23640260186E+04  0.90665063702E+02 0.  0.
         13    1    3    3    0    0 -0.29335223980E+03 -0.68329688835E+03  0.57584504147E+03  0.94050395321E+03  0.00000000000E+00 0. -1.
        -13    1    3    3    0    0 -0.34385682893E+03 -0.10299764367E+04  0.92050317306E+03  0.14235220653E+04  0.00000000000E+00 0.  1.
         22    1    1    2    0    0  0.63720906873E+03  0.17132733250E+04 -0.13959078697E+04  0.22999781878E+04  0.00000000000E+00 0. -1.
<mgrwt>
<rscale>  0 0.46629226E+04</rscale>
<asrwt>0</asrwt>
<pdfrwt beam="1">  1        1 0.36649574E+00 0.46629226E+04</pdfrwt>
<pdfrwt beam="2">  1       -1 0.35104337E+00 0.46629226E+04</pdfrwt>
<totfact> 0.18531819E-02</totfact>
</mgrwt>
</event>
<event>
 6    1  0.2436515E-005  0.2110591E+04  0.7818608E-02  0.8556592E-01
          2   -1    0    0  501    0  0.00000000000E+00  0.00000000000E+00  0.29835654093E+04  0.29835654093E+04  0.00000000000E+00 0.  1.
         -2   -1    0    0    0  501 -0.00000000000E+00 -0.00000000000E+00 -0.37326082645E+03  0.37326082645E+03  0.00000000000E+00 0. -1.
         23    2    1    2    0    0  0.31896401910E+03  0.57525148459E+03  0.26160644188E+04  0.26990379022E+04  0.91434339522E+02 0.  0.
         13    1    3    3    0    0  0.25840631870E+03  0.49122117116E+03  0.23166861292E+04  0.23822482418E+04  0.00000000000E+00 0.  1.
        -13    1    3    3    0    0  0.60557700404E+02  0.84030313436E+02  0.29937828957E+03  0.31678966037E+03  0.00000000000E+00 0. -1.
         22    1    1    2    0    0 -0.31896401910E+03 -0.57525148459E+03 -0.57598359258E+01  0.65778833352E+03  0.00000000000E+00 0. -1.
<mgrwt>
<rscale>  0 0.21105905E+04</rscale>
<asrwt>0</asrwt>
<pdfrwt beam="1">  1        2 0.45901005E+00 0.21105905E+04</pdfrwt>
<pdfrwt beam="2">  1       -2 0.57424745E-01 0.21105905E+04</pdfrwt>
<totfact> 0.46713610E+00</totfact>
</mgrwt>
</event>
<event>
 6    1  0.2436515E-005  0.3706915E+04  0.7818608E-02  0.8066431E-01
          2   -1    0    0  501    0  0.00000000000E+00  0.00000000000E+00  0.23595857232E+04  0.23595857232E+04  0.00000000000E+00 0.  1.
         -2   -1    0    0    0  501 -0.00000000000E+00 -0.00000000000E+00 -0.14558933813E+04  0.14558933813E+04  0.00000000000E+00 0. -1.
         23    2    1    2    0    0 -0.38190227457E+03 -0.14410648302E+04  0.15836997480E+04  0.21769043383E+04  0.91051710992E+02 0.  0.
         13    1    3    3    0    0 -0.91614805879E+02 -0.22320987437E+03  0.23914650140E+03  0.33971601347E+03  0.00000000000E+00 0. -1.
        -13    1    3    3    0    0 -0.29028746869E+03 -0.12178549558E+04  0.13445532466E+04  0.18371883248E+04  0.00000000000E+00 0.  1.
         22    1    1    2    0    0  0.38190227457E+03  0.14410648302E+04 -0.68000740603E+03  0.16385747662E+04  0.00000000000E+00 0. -1.
<mgrwt>
<rscale>  0 0.37069153E+04</rscale>
<asrwt>0</asrwt>
<pdfrwt beam="1">  1        2 0.36301319E+00 0.37069153E+04</pdfrwt>
<pdfrwt beam="2">  1       -2 0.22398360E+00 0.37069153E+04</pdfrwt>
<totfact> 0.31596477E-01</totfact>
</mgrwt>
</event>
<event>
 6    1  0.2436515E-005  0.1645769E+04  0.7818608E-02  0.8792913E-01
          2   -1    0    0  501    0  0.00000000000E+00  0.00000000000E+00  0.14714489694E+04  0.14714489694E+04  0.00000000000E+00 0.  1.
         -2   -1    0    0    0  501 -0.00000000000E+00 -0.00000000000E+00 -0.46018522554E+03  0.46018522554E+03  0.00000000000E+00 0. -1.
         23    2    1    2    0    0  0.58892612420E+03 -0.43592749922E+03  0.73976074583E+02  0.74193888129E+03  0.90189132503E+02 0.  0.
         11    1    3    3    0    0  0.56247185481E+03 -0.42153539702E+03  0.88599067303E+02  0.70846063625E+03  0.00000000000E+00 0.  1.
        -11    1    3    3    0    0  0.26454269393E+02 -0.14392102192E+02 -0.14622992720E+02  0.33478245037E+02  0.00000000000E+00 0. -1.
         22    1    1    2    0    0 -0.58892612420E+03  0.43592749922E+03  0.93728766929E+03  0.11896953137E+04  0.00000000000E+00 0.  1.
<mgrwt>
<rscale>  0 0.16457692E+04</rscale>
<asrwt>0</asrwt>
<pdfrwt beam="1">  1        2 0.22637676E+00 0.16457692E+04</pdfrwt>
<pdfrwt beam="2">  1       -2 0.70797728E-01 0.16457692E+04</pdfrwt>
<totfact> 0.22828874E+01</totfact>
</mgrwt>
</event>
<event>
 6    1  0.2436515E-005  0.1416551E+04  0.7818608E-02  0.8941924E-01
         -2   -1    0    0    0  501 -0.00000000000E+00  0.00000000000E+00  0.28189628240E+03  0.28189628240E+03  0.00000000000E+00 0. -1.
          2   -1    0    0  501    0  0.00000000000E+00 -0.00000000000E+00 -0.17795706531E+04  0.17795706531E+04  0.00000000000E+00 0.  1.
         23    2    1    2    0    0  0.87030464215E+02 -0.65938284036E+03 -0.41041670660E+03  0.78691240154E+03  0.91810798886E+02 0.  0.
         11    1    3    3    0    0  0.73842993848E+02 -0.43667704882E+03 -0.31905123436E+03  0.54583268760E+03  0.00000000000E+00 0. -1.
        -11    1    3    3    0    0  0.13187470367E+02 -0.22270579153E+03 -0.91365472241E+02  0.24107971394E+03  0.00000000000E+00 0.  1.
         22    1    1    2    0    0 -0.87030464215E+02  0.65938284036E+03 -0.10872576641E+04  0.12745545339E+04  0.00000000000E+00 0.  1.
<mgrwt>
<rscale>  0 0.14165512E+04</rscale>
<asrwt>0</asrwt>
<pdfrwt beam="1">  1        2 0.27378010E+00 0.14165512E+04</pdfrwt>
<pdfrwt beam="2">  1       -2 0.43368658E-01 0.14165512E+04</pdfrwt>
<totfact> 0.43408264E+01</totfact>
</mgrwt>
</event>
<event>
 6    1  0.2436515E-005  0.2068836E+04  0.7818608E-02  0.8575097E-01
         -2   -1    0    0    0  501 -0.00000000000E+00  0.00000000000E+00  0.67997738657E+03  0.67997738657E+03  0.00000000000E+00 0. -1.
          2   -1    0    0  501    0  0.00000000000E+00 -0.00000000000E+00 -0.15736115700E+04  0.15736115700E+04  0.00000000000E+00 0.  1.
         23    2    1    2    0    0  0.93547444638E+03 -0.31765369074E+03 -0.77439483823E+03  0.12584837719E+04  0.89876201668E+02 0.  0.
         13    1    3    3    0    0  0.16081783790E+03 -0.91133897159E+02 -0.13836391164E+03  0.23089464316E+03  0.00000000000E+00 0.  1.
        -13    1    3    3    0    0  0.77465660848E+03 -0.22651979359E+03 -0.63603092659E+03  0.10275891288E+04  0.00000000000E+00 0. -1.
         22    1    1    2    0    0 -0.93547444638E+03  0.31765369074E+03 -0.11923934520E+03  0.99510518465E+03  0.00000000000E+00 0.  1.
<mgrwt>
<rscale>  0 0.20688357E+04</rscale>
<asrwt>0</asrwt>
<pdfrwt beam="1">  1        2 0.24209408E+00 0.20688357E+04</pdfrwt>
<pdfrwt beam="2">  1       -2 0.10461191E+00 0.20688357E+04</pdfrwt>
<totfact> 0.79068976E+00</totfact>
</mgrwt>
</event>
<event>
 6    1  0.2436515E-005  0.2329695E+04  0.7818608E-02  0.8466304E-01
          2   -1    0    0  501    0  0.00000000000E+00  0.00000000000E+00  0.17269244728E+04  0.17269244728E+04  0.00000000000E+00 0.  1.
         -2   -1    0    0    0  501 -0.00000000000E+00 -0.00000000000E+00 -0.78571481785E+03  0.78571481785E+03  0.00000000000E+00 0. -1.
         23    2    1    2    0    0  0.71718357262E+03  0.62223467838E+03  0.11957019668E+04  0.15296364379E+04  0.92499551606E+02 0.  0.
         11    1    3    3    0    0  0.50411421530E+03  0.41295568181E+03  0.88043872693E+03  0.10953702064E+04  0.00000000000E+00 0.  1.
        -11    1    3    3    0    0  0.21306935732E+03  0.20927899656E+03  0.31526323983E+03  0.43426623150E+03  0.00000000000E+00 0. -1.
         22    1    1    2    0    0 -0.71718357262E+03 -0.62223467838E+03 -0.25449231177E+03  0.98300285278E+03  0.00000000000E+00 0. -1.
<mgrwt>
<rscale>  0 0.23296954E+04</rscale>
<asrwt>0</asrwt>
<pdfrwt beam="1">  1        2 0.26568069E+00 0.23296954E+04</pdfrwt>
<pdfrwt beam="2">  1       -2 0.12087920E+00 0.23296954E+04</pdfrwt>
<totfact> 0.44685670E+00</totfact>
</mgrwt>
</event>
<event>
 6    1  0.2436515E-005  0.4001744E+04  0.7818608E-02  0.8004195E-01
         -2   -1    0    0    0  501 -0.00000000000E+00  0.00000000000E+00  0.14205988602E+04  0.14205988602E+04  0.00000000000E+00 0. -1.
          2   -1    0    0  501    0  0.00000000000E+00 -0.00000000000E+00 -0.28181696582E+04  0.28181696582E+04  0.00000000000E+00 0.  1.
         23    2    1    2    0    0  0.28377544481E+03 -0.19293367674E+04 -0.11684599845E+04  0.22752612915E+04  0.92985719564E+02 0.  0.
         13    1    3    3    0    0  0.66190629674E+02 -0.24522210938E+03 -0.16307301832E+03  0.30184083834E+03  0.00000000000E+00 0. -1.
        -13    1    3    3    0    0  0.21758481514E+03 -0.16841146581E+04 -0.10053869661E+04  0.19734204532E+04  0.00000000000E+00 0.  1.
         22    1    1    2    0    0 -0.28377544481E+03  0.19293367674E+04 -0.22911081350E+03  0.19635072269E+04  0.00000000000E+00 0. -1.
<mgrwt>
<rscale>  0 0.40017439E+04</rscale>
<asrwt>0</asrwt>
<pdfrwt beam="1">  1        2 0.43356455E+00 0.40017439E+04</pdfrwt>
<pdfrwt beam="2">  1       -2 0.21855368E+00 0.40017439E+04</pdfrwt>
<totfact> 0.17945472E-01</totfact>
</mgrwt>
</event>
<event>
 6    1  0.2436515E-005  0.2953742E+04  0.7818608E-02  0.8257065E-01
         -2   -1    0    0    0  501 -0.00000000000E+00  0.00000000000E+00  0.21903421536E+04  0.21903421536E+04  0.00000000000E+00 0. -1.
          2   -1    0    0  501    0  0.00000000000E+00 -0.00000000000E+00 -0.99580206000E+03  0.99580206000E+03  0.00000000000E+00 0.  1.
         23    2    1    2    0    0  0.59755678006E+03  0.13046239997E+04  0.22750486011E+03  0.14557468520E+04  0.91228010231E+02 0.  0.
         13    1    3    3    0    0  0.26629083359E+03  0.68402033062E+03  0.10006727462E+03  0.74081582070E+03  0.00000000000E+00 0. -1.
        -13    1    3    3    0    0  0.33126594647E+03  0.62060366909E+03  0.12743758550E+03  0.71493103134E+03  0.00000000000E+00 0.  1.
         22    1    1    2    0    0 -0.59755678006E+03 -0.13046239997E+04  0.96703523347E+03  0.17303973615E+04  0.00000000000E+00 0. -1.
<mgrwt>
<rscale>  0 0.29537415E+04</rscale>
<asrwt>0</asrwt>
<pdfrwt beam="1">  1        2 0.15320032E+00 0.29537415E+04</pdfrwt>
<pdfrwt beam="2">  1       -2 0.33697572E+00 0.29537415E+04</pdfrwt>
<totfact> 0.40897129E-01</totfact>
</mgrwt>
</event>
<event>
 6    1  0.2915073E-005  0.3519205E+04  0.7818608E-02  0.8109254E-01
          1   -1    0    0  501    0  0.00000000000E+00  0.00000000000E+00  0.26037079925E+04  0.26037079925E+04  0.00000000000E+00 0. -1.
         -1   -1    0    0    0  501 -0.00000000000E+00 -0.00000000000E+00 -0.11891504145E+04  0.11891504145E+04  0.00000000000E+00 0.  1.
         23    2    1    2    0    0  0.15217768763E+04 -0.73535886187E+03  0.12308847713E+04  0.20927721690E+04  0.89780365996E+02 0.  0.
         11    1    3    3    0    0  0.73192039146E+03 -0.34919014095E+03  0.53542349143E+03  0.97176104530E+03  0.00000000000E+00 0. -1.
        -11    1    3    3    0    0  0.78985648481E+03 -0.38616872091E+03  0.69546127986E+03  0.11210111237E+04  0.00000000000E+00 0.  1.
         22    1    1    2    0    0 -0.15217768763E+04  0.73535886187E+03  0.18367280662E+03  0.17000862380E+04  0.00000000000E+00 0.  1.
<mgrwt>
<rscale>  0 0.35192047E+04</rscale>
<asrwt>0</asrwt>
<pdfrwt beam="1">  1        1 0.40057046E+00 0.35192047E+04</pdfrwt>
<pdfrwt beam="2">  1       -1 0.18294622E+00 0.35192047E+04</pdfrwt>
<totfact> 0.18515446E-01</totfact>
</mgrwt>
</event>
<event>
 6    1  0.2436515E-005  0.1122146E+04  0.7818608E-02  0.9183872E-01
         -2   -1    0    0    0  501 -0.00000000000E+00  0.00000000000E+00  0.37551729266E+03  0.37551729266E+03  0.00000000000E+00 0. -1.
          2   -1    0    0  501    0  0.00000000000E+00 -0.00000000000E+00 -0.83831751022E+03  0.83831751022E+03  0.00000000000E+00 0.  1.
         23    2    1    2    0    0  0.51361025702E+03  0.15272713035E+03 -0.40536657948E+03  0.67492878580E+03  0.63919712777E+02 0.  0.
         13    1    3    3    0    0  0.13141594744E+03  0.50073155241E+02 -0.14009960227E+03  0.19850786048E+03  0.00000000000E+00 0.  1.
        -13    1    3    3    0    0  0.38219430959E+03  0.10265397511E+03 -0.26526697720E+03  0.47642092532E+03  0.00000000000E+00 0. -1.
         22    1    1    2    0    0 -0.51361025702E+03 -0.15272713035E+03 -0.57433638089E+02  0.53890601708E+03  0.00000000000E+00 0.  1.
<mgrwt>
<rscale>  0 0.11221457E+04</rscale>
<asrwt>0</asrwt>
<pdfrwt beam="1">  1        2 0.12897192E+00 0.11221457E+04</pdfrwt>
<pdfrwt beam="2">  1       -2 0.57771892E-01 0.11221457E+04</pdfrwt>
<totfact> 0.89982736E+01</totfact>
</mgrwt>
</event>
<event>
 6    1  0.2436515E-005  0.3223916E+04  0.7818608E-02  0.8182529E-01
          2   -1    0    0  501    0  0.00000000000E+00  0.00000000000E+00  0.29250445819E+04  0.29250445819E+04  0.00000000000E+00 0.  1.
         -2   -1    0    0    0  501 -0.00000000000E+00 -0.00000000000E+00 -0.88833139554E+03  0.88833139554E+03  0.00000000000E+00 0. -1.
         23    2    1    2    0    0 -0.97526085112E+02  0.53490880020E+03 -0.77386987445E+03  0.95068215806E+03  0.96349474646E+02 0.  0.
         11    1    3    3    0    0 -0.57863840672E+02  0.46505329455E+03 -0.69393050661E+03  0.83735436873E+03  0.00000000000E+00 0.  1.
        -11    1    3    3    0    0 -0.39662244439E+02  0.69855505655E+02 -0.79939367842E+02  0.11332778933E+03  0.00000000000E+00 0. -1.
         22    1    1    2    0    0  0.97526085112E+02 -0.53490880020E+03  0.28105830608E+04  0.28626938194E+04  0.00000000000E+00 0.  1.
<mgrwt>
<rscale>  0 0.32239162E+04</rscale>
<asrwt>0</asrwt>
<pdfrwt beam="1">  1        2 0.45000685E+00 0.32239162E+04</pdfrwt>
<pdfrwt beam="2">  1       -2 0.13666637E+00 0.32239162E+04</pdfrwt>
<totfact> 0.62253112E-01</totfact>
</mgrwt>
</event>
<event>
 6    1  0.2436515E-005  0.2394485E+04  0.7818608E-02  0.8441571E-01
          2   -1    0    0  501    0  0.00000000000E+00  0.00000000000E+00  0.12539389210E+04  0.12539389210E+04  0.00000000000E+00 0.  1.
         -2   -1    0    0    0  501 -0.00000000000E+00 -0.00000000000E+00 -0.11431098331E+04  0.11431098331E+04  0.00000000000E+00 0. -1.
         23    2    1    2    0    0  0.47380214706E+03  0.84149377290E+03  0.76163807846E+03  0.12325091083E+04  0.79911795681E+02 0.  0.
         11    1    3    3    0    0  0.99587602429E+02  0.21408622702E+03  0.14997894769E+03  0.27972180449E+03  0.00000000000E+00 0. -1.
        -11    1    3    3    0    0  0.37421454463E+03  0.62740754588E+03  0.61165913078E+03  0.95278730381E+03  0.00000000000E+00 0.  1.
         22    1    1    2    0    0 -0.47380214706E+03 -0.84149377290E+03 -0.65080899052E+03  0.11645396458E+04  0.00000000000E+00 0. -1.
<mgrwt>
<rscale>  0 0.23944853E+04</rscale>
<asrwt>0</asrwt>
<pdfrwt beam="1">  1        2 0.19291368E+00 0.23944853E+04</pdfrwt>
<pdfrwt beam="2">  1       -2 0.17586305E+00 0.23944853E+04</pdfrwt>
<totfact> 0.30668604E+00</totfact>
</mgrwt>
</event>
<event>
 6    1  0.2436515E-005  0.1908449E+04  0.7818608E-02  0.8650662E-01
          2   -1    0    0  501    0  0.00000000000E+00  0.00000000000E+00  0.18539777154E+04  0.18539777154E+04  0.00000000000E+00 0.  1.
         -2   -1    0    0    0  501 -0.00000000000E+00 -0.00000000000E+00 -0.49113008633E+03  0.49113008633E+03  0.00000000000E+00 0. -1.
         23    2    1    2    0    0  0.27626994149E+03 -0.84928382001E+03  0.10879080227E+04  0.14106561579E+04  0.93802145801E+02 0.  0.
         11    1    3    3    0    0  0.86217229104E+02 -0.15225544389E+03  0.23218483387E+03  0.29073171115E+03  0.00000000000E+00 0. -1.
        -11    1    3    3    0    0  0.19005271239E+03 -0.69702837612E+03  0.85572318879E+03  0.11199244468E+04  0.00000000000E+00 0.  1.
         22    1    1    2    0    0 -0.27626994149E+03  0.84928382001E+03  0.27493960643E+03  0.93445164384E+03  0.00000000000E+00 0. -1.
<mgrwt>
<rscale>  0 0.19084488E+04</rscale>
<asrwt>0</asrwt>
<pdfrwt beam="1">  1        2 0.28522734E+00 0.19084488E+04</pdfrwt>
<pdfrwt beam="2">  1       -2 0.75558476E-01 0.19084488E+04</pdfrwt>
<totfact> 0.11838183E+01</totfact>
</mgrwt>
</event>
<event>
 6    1  0.2436515E-005  0.1855218E+04  0.7818608E-02  0.8677474E-01
          2   -1    0    0  501    0  0.00000000000E+00  0.00000000000E+00  0.53219067441E+03  0.53219067441E+03  0.00000000000E+00 0.  1.
         -2   -1    0    0    0  501 -0.00000000000E+00 -0.00000000000E+00 -0.16168235876E+04  0.16168235876E+04  0.00000000000E+00 0. -1.
         23    2    1    2    0    0 -0.25549544054E+03 -0.64012270034E+03  0.17156339882E+03  0.71616250208E+03  0.91759130064E+02 0.  0.
         13    1    3    3    0    0 -0.10158099584E+03 -0.35815423255E+03  0.66476017107E+02  0.37816955703E+03  0.00000000000E+00 0. -1.
        -13    1    3    3    0    0 -0.15391444470E+03 -0.28196846778E+03  0.10508738171E+03  0.33799294505E+03  0.00000000000E+00 0.  1.
         22    1    1    2    0    0  0.25549544054E+03  0.64012270034E+03 -0.12561963120E+04  0.14328517599E+04  0.00000000000E+00 0. -1.
<mgrwt>
<rscale>  0 0.18552180E+04</rscale>
<asrwt>0</asrwt>
<pdfrwt beam="1">  1        2 0.81875488E-01 0.18552180E+04</pdfrwt>
<pdfrwt beam="2">  1       -2 0.24874209E+00 0.18552180E+04</pdfrwt>
<totfact> 0.35188828E+00</totfact>
</mgrwt>
</event>
<event>
 6    1  0.2436515E-005  0.3411354E+04  0.7818608E-02  0.8135125E-01
          2   -1    0    0  501    0  0.00000000000E+00  0.00000000000E+00  0.20502780387E+04  0.20502780387E+04  0.00000000000E+00 0.  1.
         -2   -1    0    0    0  501 -0.00000000000E+00 -0.00000000000E+00 -0.14189951613E+04  0.14189951613E+04  0.00000000000E+00 0. -1.
         23    2    1    2    0    0  0.28429054513E+03 -0.15027992787E+04 -0.44916927020E+03  0.15966804441E+04  0.91698533697E+02 0.  0.
         13    1    3    3    0    0  0.72624853126E+01 -0.65293020921E+02 -0.38788282761E+02  0.76291894416E+02  0.00000000000E+00 0.  1.
        -13    1    3    3    0    0  0.27702805982E+03 -0.14375062578E+04 -0.41038098744E+03  0.15203885497E+04  0.00000000000E+00 0. -1.
         22    1    1    2    0    0 -0.28429054513E+03  0.15027992787E+04  0.10804521476E+04  0.18725927559E+04  0.00000000000E+00 0.  1.
<mgrwt>
<rscale>  0 0.34113543E+04</rscale>
<asrwt>0</asrwt>
<pdfrwt beam="1">  1        2 0.31542739E+00 0.34113543E+04</pdfrwt>
<pdfrwt beam="2">  1       -2 0.21830695E+00 0.34113543E+04</pdfrwt>
<totfact> 0.52527425E-01</totfact>
</mgrwt>
</event>
<event>
 6    1  0.2436515E-005  0.2123368E+04  0.7818608E-02  0.8551019E-01
          2   -1    0    0  501    0  0.00000000000E+00  0.00000000000E+00  0.17540488655E+04  0.17540488655E+04  0.00000000000E+00 0.  1.
         -2   -1    0    0    0  501 -0.00000000000E+00 -0.00000000000E+00 -0.64261179564E+03  0.64261179564E+03  0.00000000000E+00 0. -1.
         23    2    1    2    0    0 -0.81676455540E+02 -0.82441010085E+03  0.13025720381E+04  0.15464514905E+04  0.92169626397E+02 0.  0.
         13    1    3    3    0    0 -0.64110443164E+02 -0.47694956714E+03  0.83336062514E+03  0.96233100857E+03  0.00000000000E+00 0. -1.
        -13    1    3    3    0    0 -0.17566012377E+02 -0.34746053371E+03  0.46921141299E+03  0.58412048188E+03  0.00000000000E+00 0.  1.
         22    1    1    2    0    0  0.81676455540E+02  0.82441010085E+03 -0.19113496830E+03  0.85020917066E+03  0.00000000000E+00 0. -1.
<mgrwt>
<rscale>  0 0.21233676E+04</rscale>
<asrwt>0</asrwt>
<pdfrwt beam="1">  1        2 0.26985367E+00 0.21233676E+04</pdfrwt>
<pdfrwt beam="2">  1       -2 0.98863354E-01 0.21233676E+04</pdfrwt>
<totfact> 0.71433556E+00</totfact>
</mgrwt>
</event>
<event>
 6    1  0.2436515E-005  0.1922802E+04  0.7818608E-02  0.8643589E-01
         -2   -1    0    0    0  501 -0.00000000000E+00  0.00000000000E+00  0.47807560718E+03  0.47807560718E+03  0.00000000000E+00 0. -1.
          2   -1    0    0  501    0  0.00000000000E+00 -0.00000000000E+00 -0.19333594766E+04  0.19333594766E+04  0.00000000000E+00 0.  1.
         23    2    1    2    0    0 -0.32521706283E+03  0.36962893772E+03 -0.17618872986E+04  0.18314373662E+04  0.86742630052E+02 0.  0.
         11    1    3    3    0    0 -0.22180765481E+03  0.28361242152E+03 -0.11547742723E+04  0.12096025220E+04  0.00000000000E+00 0. -1.
        -11    1    3    3    0    0 -0.10340940801E+03  0.86016516197E+02 -0.60711302636E+03  0.62183484423E+03  0.00000000000E+00 0.  1.
         22    1    1    2    0    0  0.32521706283E+03 -0.36962893772E+03  0.30660342921E+03  0.57999771754E+03  0.00000000000E+00 0. -1.
<mgrwt>
<rscale>  0 0.19228021E+04</rscale>
<asrwt>0</asrwt>
<pdfrwt beam="1">  1        2 0.29743992E+00 0.19228021E+04</pdfrwt>
<pdfrwt beam="2">  1       -2 0.73550093E-01 0.19228021E+04</pdfrwt>
<totfact> 0.11340878E+01</totfact>
</mgrwt>
</event>
<event>
 6    1  0.2436515E-005  0.1854367E+04  0.7818608E-02  0.8677910E-01
          2   -1    0    0  501    0  0.00000000000E+00  0.00000000000E+00  0.15418800469E+04  0.15418800469E+04  0.00000000000E+00 0.  1.
         -2   -1    0    0    0  501 -0.00000000000E+00 -0.00000000000E+00 -0.55754608551E+03  0.55754608551E+03  0.00000000000E+00 0. -1.
         23    2    1    2    0    0 -0.40019662882E+03 -0.17819385706E+02  0.14372035237E+04  0.14948058279E+04  0.91736701799E+02 0.  0.
         11    1    3    3    0    0 -0.24995520401E+03 -0.54319062128E+02  0.93315210823E+03  0.96757481448E+03  0.00000000000E+00 0. -1.
        -11    1    3    3    0    0 -0.15024142480E+03  0.36499676422E+02  0.50405141544E+03  0.52723101342E+03  0.00000000000E+00 0.  1.
         22    1    1    2    0    0  0.40019662882E+03  0.17819385706E+02 -0.45286956226E+03  0.60462030453E+03  0.00000000000E+00 0. -1.
<mgrwt>
<rscale>  0 0.18543669E+04</rscale>
<asrwt>0</asrwt>
<pdfrwt beam="1">  1        2 0.23721231E+00 0.18543669E+04</pdfrwt>
<pdfrwt beam="2">  1       -2 0.85776321E-01 0.18543669E+04</pdfrwt>
<totfact> 0.13336428E+01</totfact>
</mgrwt>
</event>
<event>
 6    1  0.2436515E-005  0.4120851E+04  0.7818608E-02  0.7980601E-01
          2   -1    0    0  501    0  0.00000000000E+00  0.00000000000E+00  0.31329445381E+04  0.31329445381E+04  0.00000000000E+00 0.  1.
         -2   -1    0    0    0  501 -0.00000000000E+00 -0.00000000000E+00 -0.13550680471E+04  0.13550680471E+04  0.00000000000E+00 0. -1.
         23    2    1    2    0    0 -0.17852390546E+04  0.24539598812E+03  0.19751854426E+04  0.26752168175E+04  0.90165484929E+02 0.  0.
         11    1    3    3    0    0 -0.66881163259E+03  0.11537347278E+03  0.79894738441E+03  0.10483019418E+04  0.00000000000E+00 0. -1.
        -11    1    3    3    0    0 -0.11164274220E+04  0.13002251534E+03  0.11762380582E+04  0.16269148757E+04  0.00000000000E+00 0.  1.
         22    1    1    2    0    0  0.17852390546E+04 -0.24539598812E+03 -0.19730895159E+03  0.18127957677E+04  0.00000000000E+00 0.  1.
<mgrwt>
<rscale>  0 0.41208509E+04</rscale>
<asrwt>0</asrwt>
<pdfrwt beam="1">  1        2 0.48199146E+00 0.41208509E+04</pdfrwt>
<pdfrwt beam="2">  1       -2 0.20847201E+00 0.41208509E+04</pdfrwt>
<totfact> 0.13105412E-01</totfact>
</mgrwt>
</event>
<event>
 6    1  0.2436515E-005  0.1042181E+04  0.7818608E-02  0.9263454E-01
         -2   -1    0    0    0  501 -0.00000000000E+00  0.00000000000E+00  0.28297409482E+03  0.28297409482E+03  0.00000000000E+00 0. -1.
          2   -1    0    0  501    0  0.00000000000E+00 -0.00000000000E+00 -0.95957692909E+03  0.95957692909E+03  0.00000000000E+00 0.  1.
         23    2    1    2    0    0  0.31603715258E+03  0.40498791032E+03 -0.27027613240E+03  0.58757310217E+03  0.91094858987E+02 0.  0.
         11    1    3    3    0    0  0.80829009196E+02  0.17493314790E+03 -0.98454974910E+02  0.21639851443E+03  0.00000000000E+00 0.  1.
        -11    1    3    3    0    0  0.23520814338E+03  0.23005476243E+03 -0.17182115749E+03  0.37117458775E+03  0.00000000000E+00 0. -1.
         22    1    1    2    0    0 -0.31603715258E+03 -0.40498791032E+03 -0.40632670187E+03  0.65497792174E+03  0.00000000000E+00 0. -1.
<mgrwt>
<rscale>  0 0.10421812E+04</rscale>
<asrwt>0</asrwt>
<pdfrwt beam="1">  1        2 0.14762722E+00 0.10421812E+04</pdfrwt>
<pdfrwt beam="2">  1       -2 0.43534476E-01 0.10421812E+04</pdfrwt>
<totfact> 0.13329086E+02</totfact>
</mgrwt>
</event>
<event>
 6    1  0.2436515E-005  0.1368968E+04  0.7818608E-02  0.8976593E-01
          2   -1    0    0  501    0  0.00000000000E+00  0.00000000000E+00  0.20575356601E+04  0.20575356601E+04  0.00000000000E+00 0.  1.
         -2   -1    0    0    0  501 -0.00000000000E+00 -0.00000000000E+00 -0.22770832955E+03  0.22770832955E+03  0.00000000000E+00 0. -1.
         23    2    1    2    0    0  0.64103322923E+03 -0.22012567405E+03  0.79916047875E+03  0.10516909617E+04  0.89540464507E+02 0.  0.
         11    1    3    3    0    0  0.39275227184E+03 -0.94997623840E+02  0.50793928512E+03  0.64906179440E+03  0.00000000000E+00 0.  1.
        -11    1    3    3    0    0  0.24828095739E+03 -0.12512805021E+03  0.29122119362E+03  0.40262916731E+03  0.00000000000E+00 0. -1.
         22    1    1    2    0    0 -0.64103322923E+03  0.22012567405E+03  0.10306668518E+04  0.12335530280E+04  0.00000000000E+00 0.  1.
<mgrwt>
<rscale>  0 0.13689675E+04</rscale>
<asrwt>0</asrwt>
<pdfrwt beam="1">  1        2 0.31654394E+00 0.13689675E+04</pdfrwt>
<pdfrwt beam="2">  1       -2 0.35032052E-01 0.13689675E+04</pdfrwt>
<totfact> 0.46336963E+01</totfact>
</mgrwt>
</event>
<event>
 6    1  0.2436515E-005  0.3677042E+04  0.7818608E-02  0.8073069E-01
         -2   -1    0    0    0  501 -0.00000000000E+00  0.00000000000E+00  0.16355964336E+04  0.16355964336E+04  0.00000000000E+00 0. -1.
          2   -1    0    0  501    0  0.00000000000E+00 -0.00000000000E+00 -0.20666223407E+04  0.20666223407E+04  0.00000000000E+00 0.  1.
         23    2    1    2    0    0 -0.21486859086E+03  0.15374953352E+04 -0.12052258710E+04  0.19674432842E+04  0.90571845006E+02 0.  0.
         11    1    3    3    0    0 -0.61529989388E+01  0.18340740288E+03 -0.11543997491E+03  0.21680065183E+03  0.00000000000E+00 0.  1.
        -11    1    3    3    0    0 -0.20871559192E+03  0.13540879323E+04 -0.10897858961E+04  0.17506426323E+04  0.00000000000E+00 0. -1.
         22    1    1    2    0    0  0.21486859086E+03 -0.15374953352E+04  0.77419996386E+03  0.17347754901E+04  0.00000000000E+00 0. -1.
<mgrwt>
<rscale>  0 0.36770424E+04</rscale>
<asrwt>0</asrwt>
<pdfrwt beam="1">  1        2 0.31794190E+00 0.36770424E+04</pdfrwt>
<pdfrwt beam="2">  1       -2 0.25163022E+00 0.36770424E+04</pdfrwt>
<totfact> 0.31197091E-01</totfact>
</mgrwt>
</event>
<event>
 6    1  0.2436515E-005  0.2305910E+04  0.7818608E-02  0.8475595E-01
          2   -1    0    0  501    0  0.00000000000E+00  0.00000000000E+00  0.29405663315E+04  0.29405663315E+04  0.00000000000E+00 0.  1.
         -2   -1    0    0    0  501 -0.00000000000E+00 -0.00000000000E+00 -0.45205758050E+03  0.45205758050E+03  0.00000000000E+00 0. -1.
         23    2    1    2    0    0 -0.45202496999E+02 -0.53474044929E+03  0.27448241553E+04  0.27979070042E+04  0.78951549145E+02 0.  0.
         13    1    3    3    0    0 -0.37442709953E+02 -0.23007466758E+03  0.10132264898E+04  0.10396942958E+04  0.00000000000E+00 0. -1.
        -13    1    3    3    0    0 -0.77597870464E+01 -0.30466578172E+03  0.17315976655E+04  0.17582127084E+04  0.00000000000E+00 0.  1.
         22    1    1    2    0    0  0.45202496999E+02  0.53474044929E+03 -0.25631540431E+03  0.59471690773E+03  0.00000000000E+00 0. -1.
<mgrwt>
<rscale>  0 0.23059101E+04</rscale>
<asrwt>0</asrwt>
<pdfrwt beam="1">  1        2 0.45239481E+00 0.23059101E+04</pdfrwt>
<pdfrwt beam="2">  1       -2 0.69547322E-01 0.23059101E+04</pdfrwt>
<totfact> 0.32420840E+00</totfact>
</mgrwt>
</event>
<event>
 6    1  0.2436515E-005  0.2427332E+04  0.7818608E-02  0.8429341E-01
          2   -1    0    0  501    0  0.00000000000E+00  0.00000000000E+00  0.18472335975E+04  0.18472335975E+04  0.00000000000E+00 0.  1.
         -2   -1    0    0    0  501 -0.00000000000E+00 -0.00000000000E+00 -0.79740038593E+03  0.79740038593E+03  0.00000000000E+00 0. -1.
         23    2    1    2    0    0  0.13633948951E+03  0.65594859095E+03 -0.57485293932E+03  0.88723189533E+03  0.88699063604E+02 0.  0.
         11    1    3    3    0    0  0.32712070749E+02  0.36687602667E+03 -0.29832163862E+03  0.47398723462E+03  0.00000000000E+00 0.  1.
        -11    1    3    3    0    0  0.10362741876E+03  0.28907256428E+03 -0.27653130071E+03  0.41324466071E+03  0.00000000000E+00 0. -1.
         22    1    1    2    0    0 -0.13633948951E+03 -0.65594859095E+03  0.16246861509E+04  0.17574020881E+04  0.00000000000E+00 0.  1.
<mgrwt>
<rscale>  0 0.24273317E+04</rscale>
<asrwt>0</asrwt>
<pdfrwt beam="1">  1        2 0.28418978E+00 0.24273317E+04</pdfrwt>
<pdfrwt beam="2">  1       -2 0.12267698E+00 0.24273317E+04</pdfrwt>
<totfact> 0.36631285E+00</totfact>
</mgrwt>
</event>
<event>
 6    1  0.2436515E-005  0.2593138E+04  0.7818608E-02  0.8370536E-01
         -2   -1    0    0    0  501 -0.00000000000E+00  0.00000000000E+00  0.13906813810E+04  0.13906813810E+04  0.00000000000E+00 0. -1.
          2   -1    0    0  501    0  0.00000000000E+00 -0.00000000000E+00 -0.12088256004E+04  0.12088256004E+04  0.00000000000E+00 0.  1.
         23    2    1    2    0    0 -0.60737751801E+03  0.34345502719E+03 -0.10023851936E+04  0.12249905246E+04  0.94640920185E+02 0.  0.
         11    1    3    3    0    0 -0.14838155186E+03  0.12210536500E+03 -0.32117725076E+03  0.37427480746E+03  0.00000000000E+00 0. -1.
        -11    1    3    3    0    0 -0.45899596615E+03  0.22134966219E+03 -0.68120794286E+03  0.85071571709E+03  0.00000000000E+00 0.  1.
         22    1    1    2    0    0  0.60737751801E+03 -0.34345502719E+03  0.11842409742E+04  0.13745164569E+04  0.00000000000E+00 0. -1.
<mgrwt>
<rscale>  0 0.25931381E+04</rscale>
<asrwt>0</asrwt>
<pdfrwt beam="1">  1        2 0.18597317E+00 0.25931381E+04</pdfrwt>
<pdfrwt beam="2">  1       -2 0.21395098E+00 0.25931381E+04</pdfrwt>
<totfact> 0.17887018E+00</totfact>
</mgrwt>
</event>
<event>
 6    1  0.2436515E-005  0.1038452E+04  0.7818608E-02  0.9267349E-01
          2   -1    0    0  501    0  0.00000000000E+00  0.00000000000E+00  0.39068593418E+03  0.39068593418E+03  0.00000000000E+00 0.  1.
         -2   -1    0    0    0  501 -0.00000000000E+00 -0.00000000000E+00 -0.69005656903E+03  0.69005656903E+03  0.00000000000E+00 0. -1.
         23    2    1    2    0    0 -0.42756825890E+03 -0.11136222006E+03  0.12507561820E+03  0.46806740025E+03  0.90702926290E+02 0.  0.
         13    1    3    3    0    0 -0.21664656237E+03 -0.23107844941E+02  0.94136729743E+02  0.23734243062E+03  0.00000000000E+00 0.  1.
        -13    1    3    3    0    0 -0.21092169652E+03 -0.88254375121E+02  0.30938888452E+02  0.23072496963E+03  0.00000000000E+00 0. -1.
         22    1    1    2    0    0  0.42756825890E+03  0.11136222006E+03 -0.42444625304E+03  0.61267510296E+03  0.00000000000E+00 0. -1.
<mgrwt>
<rscale>  0 0.10384515E+04</rscale>
<asrwt>0</asrwt>
<pdfrwt beam="1">  1        2 0.60105528E-01 0.10384515E+04</pdfrwt>
<pdfrwt beam="2">  1       -2 0.10616255E+00 0.10384515E+04</pdfrwt>
<totfact> 0.58250402E+01</totfact>
</mgrwt>
</event>
<event>
 6    1  0.2436515E-005  0.1711487E+04  0.7818608E-02  0.8754840E-01
          2   -1    0    0  501    0  0.00000000000E+00  0.00000000000E+00  0.19845410841E+04  0.19845410841E+04  0.00000000000E+00 0.  1.
         -2   -1    0    0    0  501 -0.00000000000E+00 -0.00000000000E+00 -0.36900046083E+03  0.36900046083E+03  0.00000000000E+00 0. -1.
         23    2    1    2    0    0 -0.40705864050E+03  0.35318313515E+03  0.17200811239E+04  0.18045754440E+04  0.85897591864E+02 0.  0.
         11    1    3    3    0    0 -0.10716099753E+03  0.50780217099E+02  0.32650485793E+03  0.34737232488E+03  0.00000000000E+00 0.  1.
        -11    1    3    3    0    0 -0.29989764297E+03  0.30240291806E+03  0.13935762660E+04  0.14572031191E+04  0.00000000000E+00 0. -1.
         22    1    1    2    0    0  0.40705864050E+03 -0.35318313515E+03 -0.10454050064E+03  0.54896610099E+03  0.00000000000E+00 0. -1.
<mgrwt>
<rscale>  0 0.17114866E+04</rscale>
<asrwt>0</asrwt>
<pdfrwt beam="1">  1        2 0.30531401E+00 0.17114866E+04</pdfrwt>
<pdfrwt beam="2">  1       -2 0.56769303E-01 0.17114866E+04</pdfrwt>
<totfact> 0.18855231E+01</totfact>
</mgrwt>
</event>
<event>
 6    1  0.2436515E-005  0.1750105E+04  0.7818608E-02  0.8733293E-01
         -2   -1    0    0    0  501 -0.00000000000E+00  0.00000000000E+00  0.68812590247E+03  0.68812590247E+03  0.00000000000E+00 0. -1.
          2   -1    0    0  501    0  0.00000000000E+00 -0.00000000000E+00 -0.11127568665E+04  0.11127568665E+04  0.00000000000E+00 0.  1.
         23    2    1    2    0    0  0.23211215742E+03  0.67784850482E+03 -0.72526008830E+03  0.10238805043E+04  0.94733532577E+02 0.  0.
         11    1    3    3    0    0  0.28758518099E+02  0.32037134019E+02 -0.66481789052E+02  0.79203905174E+02  0.00000000000E+00 0.  1.
        -11    1    3    3    0    0  0.20335363932E+03  0.64581137080E+03 -0.65877829925E+03  0.94467659908E+03  0.00000000000E+00 0. -1.
         22    1    1    2    0    0 -0.23211215742E+03 -0.67784850482E+03  0.30062912423E+03  0.77700226476E+03  0.00000000000E+00 0. -1.
<mgrwt>
<rscale>  0 0.17501049E+04</rscale>
<asrwt>0</asrwt>
<pdfrwt beam="1">  1        2 0.17119336E+00 0.17501049E+04</pdfrwt>
<pdfrwt beam="2">  1       -2 0.10586552E+00 0.17501049E+04</pdfrwt>
<totfact> 0.14617577E+01</totfact>
</mgrwt>
</event>
<event>
 6    1  0.2436515E-005  0.2035053E+04  0.7818608E-02  0.8590405E-01
          2   -1    0    0  501    0  0.00000000000E+00  0.00000000000E+00  0.26452639104E+04  0.26452639104E+04  0.00000000000E+00 0.  1.
         -2   -1    0    0    0  501 -0.00000000000E+00 -0.00000000000E+00 -0.39140146932E+03  0.39140146932E+03  0.00000000000E+00 0. -1.
         23    2    1    2    0    0 -0.49353842584E+03  0.74153945521E+03  0.18569156337E+04  0.20614588840E+04  0.89532777637E+02 0.  0.
         11    1    3    3    0    0 -0.42536524507E+03  0.61596361953E+03  0.14840537813E+04  0.16621559488E+04  0.00000000000E+00 0. -1.
        -11    1    3    3    0    0 -0.68173180762E+02  0.12557583568E+03  0.37286185240E+03  0.39930293520E+03  0.00000000000E+00 0.  1.
         22    1    1    2    0    0  0.49353842584E+03 -0.74153945521E+03  0.39694680735E+03  0.97520649571E+03  0.00000000000E+00 0. -1.
<mgrwt>
<rscale>  0 0.20350530E+04</rscale>
<asrwt>0</asrwt>
<pdfrwt beam="1">  1        2 0.40696367E+00 0.20350530E+04</pdfrwt>
<pdfrwt beam="2">  1       -2 0.60215612E-01 0.20350530E+04</pdfrwt>
<totfact> 0.68204763E+00</totfact>
</mgrwt>
</event>
<event>
 6    1  0.2436515E-005  0.4695518E+04  0.7818608E-02  0.7877274E-01
          2   -1    0    0  501    0  0.00000000000E+00  0.00000000000E+00  0.37982919932E+04  0.37982919932E+04  0.00000000000E+00 0. -1.
         -2   -1    0    0    0  501 -0.00000000000E+00 -0.00000000000E+00 -0.14511710019E+04  0.14511710019E+04  0.00000000000E+00 0.  1.
         23    2    1    2    0    0  0.45392756363E+03 -0.92279836142E+03 -0.11845172617E+04  0.15711378601E+04  0.88238218264E+02 0.  0.
         13    1    3    3    0    0  0.16543756679E+03 -0.40891130186E+03 -0.55250013780E+03  0.70698970542E+03  0.00000000000E+00 0. -1.
        -13    1    3    3    0    0  0.28848999684E+03 -0.51388705956E+03 -0.63201712390E+03  0.86414815464E+03  0.00000000000E+00 0.  1.
         22    1    1    2    0    0 -0.45392756363E+03  0.92279836142E+03  0.35316382530E+04  0.36783251350E+04  0.00000000000E+00 0. -1.
<mgrwt>
<rscale>  0 0.46955175E+04</rscale>
<asrwt>0</asrwt>
<pdfrwt beam="1">  1        2 0.58435261E+00 0.46955175E+04</pdfrwt>
<pdfrwt beam="2">  1       -2 0.22325708E+00 0.46955175E+04</pdfrwt>
<totfact> 0.34516986E-02</totfact>
</mgrwt>
</event>
<event>
 6    1  0.2436515E-005  0.3175109E+04  0.7818608E-02  0.8195422E-01
          2   -1    0    0  501    0  0.00000000000E+00  0.00000000000E+00  0.13497220282E+04  0.13497220282E+04  0.00000000000E+00 0.  1.
         -2   -1    0    0    0  501 -0.00000000000E+00 -0.00000000000E+00 -0.18672950332E+04  0.18672950332E+04  0.00000000000E+00 0. -1.
         23    2    1    2    0    0 -0.91818382208E+02  0.12640019728E+04  0.70827326426E+03  0.14538294143E+04  0.76402528753E+02 0.  0.
         13    1    3    3    0    0 -0.24381586420E+01  0.51095774656E+03  0.26866312313E+03  0.57728990734E+03  0.00000000000E+00 0. -1.
        -13    1    3    3    0    0 -0.89380223566E+02  0.75304422628E+03  0.43961014113E+03  0.87653950698E+03  0.00000000000E+00 0.  1.
         22    1    1    2    0    0  0.91818382208E+02 -0.12640019728E+04 -0.12258462693E+04  0.17631876470E+04  0.00000000000E+00 0. -1.
<mgrwt>
<rscale>  0 0.31751090E+04</rscale>
<asrwt>0</asrwt>
<pdfrwt beam="1">  1        2 0.20764954E+00 0.31751090E+04</pdfrwt>
<pdfrwt beam="2">  1       -2 0.28727616E+00 0.31751090E+04</pdfrwt>
<totfact> 0.49616909E-01</totfact>
</mgrwt>
</event>
<event>
 6    1  0.2436515E-005  0.3216343E+04  0.7818608E-02  0.8184514E-01
         -2   -1    0    0    0  501 -0.00000000000E+00  0.00000000000E+00  0.18931712503E+04  0.18931712503E+04  0.00000000000E+00 0. -1.
          2   -1    0    0  501    0  0.00000000000E+00 -0.00000000000E+00 -0.13660754996E+04  0.13660754996E+04  0.00000000000E+00 0.  1.
         23    2    1    2    0    0  0.62767750461E+03 -0.84511705807E+02  0.17602003664E+04  0.18730042489E+04  0.93371881040E+02 0.  0.
         11    1    3    3    0    0  0.41346196229E+02  0.13123536739E+02  0.16669044516E+03  0.17224238638E+03  0.00000000000E+00 0.  1.
        -11    1    3    3    0    0  0.58633130838E+03 -0.97635242546E+02  0.15935099213E+04  0.17007618625E+04  0.00000000000E+00 0. -1.
         22    1    1    2    0    0 -0.62767750461E+03  0.84511705807E+02 -0.12331046157E+04  0.13862425010E+04  0.00000000000E+00 0.  1.
<mgrwt>
<rscale>  0 0.32163426E+04</rscale>
<asrwt>0</asrwt>
<pdfrwt beam="1">  1        2 0.21016546E+00 0.32163426E+04</pdfrwt>
<pdfrwt beam="2">  1       -2 0.29125712E+00 0.32163426E+04</pdfrwt>
<totfact> 0.45749458E-01</totfact>
</mgrwt>
</event>
<event>
 6    1  0.2436515E-005  0.2054039E+04  0.7818608E-02  0.8581764E-01
          2   -1    0    0  501    0  0.00000000000E+00  0.00000000000E+00  0.24304735205E+04  0.24304735205E+04  0.00000000000E+00 0.  1.
         -2   -1    0    0    0  501 -0.00000000000E+00 -0.00000000000E+00 -0.43397687061E+03  0.43397687061E+03  0.00000000000E+00 0. -1.
         23    2    1    2    0    0 -0.82444899201E+03 -0.60114748367E+03  0.86058619946E+03  0.13375623831E+04  0.85849196049E+02 0.  0.
         11    1    3    3    0    0 -0.10638694606E+03 -0.11363323550E+03  0.11826805702E+03  0.19549431658E+03  0.00000000000E+00 0. -1.
        -11    1    3    3    0    0 -0.71806204595E+03 -0.48751424817E+03  0.74231814244E+03  0.11420680665E+04  0.00000000000E+00 0.  1.
         22    1    1    2    0    0  0.82444899201E+03  0.60114748367E+03  0.11359104504E+04  0.15268880080E+04  0.00000000000E+00 0.  1.
<mgrwt>
<rscale>  0 0.20540392E+04</rscale>
<asrwt>0</asrwt>
<pdfrwt beam="1">  1        2 0.37391899E+00 0.20540392E+04</pdfrwt>
<pdfrwt beam="2">  1       -2 0.66765674E-01 0.20540392E+04</pdfrwt>
<totfact> 0.72795834E+00</totfact>
</mgrwt>
</event>
<event>
 6    1  0.2436515E-005  0.1638203E+04  0.7818608E-02  0.8797416E-01
          2   -1    0    0  501    0  0.00000000000E+00  0.00000000000E+00  0.24552248688E+04  0.24552248688E+04  0.00000000000E+00 0.  1.
         -2   -1    0    0    0  501 -0.00000000000E+00 -0.00000000000E+00 -0.27326498860E+03  0.27326498860E+03  0.00000000000E+00 0. -1.
         23    2    1    2    0    0 -0.31309285240E+03 -0.52227553475E+03  0.20004467892E+04  0.20930798554E+04  0.91635454460E+02 0.  0.
         13    1    3    3    0    0 -0.18425675397E+03 -0.23832227778E+03  0.10815578165E+04  0.11227267565E+04  0.00000000000E+00 0.  1.
        -13    1    3    3    0    0 -0.12883609843E+03 -0.28395325696E+03  0.91888897270E+03  0.97035309890E+03  0.00000000000E+00 0. -1.
         22    1    1    2    0    0  0.31309285240E+03  0.52227553475E+03  0.18151309107E+03  0.63541000201E+03  0.00000000000E+00 0. -1.
<mgrwt>
<rscale>  0 0.16382027E+04</rscale>
<asrwt>0</asrwt>
<pdfrwt beam="1">  1        2 0.37772689E+00 0.16382027E+04</pdfrwt>
<pdfrwt beam="2">  1       -2 0.42040769E-01 0.16382027E+04</pdfrwt>
<totfact> 0.18976919E+01</totfact>
</mgrwt>
</event>
<event>
 6    1  0.2436515E-005  0.9355429E+03  0.7818608E-02  0.9382210E-01
         -2   -1    0    0    0  501 -0.00000000000E+00  0.00000000000E+00  0.28868132349E+03  0.28868132349E+03  0.00000000000E+00 0. -1.
          2   -1    0    0  501    0  0.00000000000E+00 -0.00000000000E+00 -0.75796423705E+03  0.75796423705E+03  0.00000000000E+00 0.  1.
         23    2    1    2    0    0  0.36926861334E+01 -0.41170664428E+03 -0.44811268561E+01  0.42571344043E+03  0.10814738086E+03 0.  0.
         13    1    3    3    0    0  0.47860077230E+02 -0.29434394378E+03 -0.22360977171E+02  0.29904674807E+03  0.00000000000E+00 0.  1.
        -13    1    3    3    0    0 -0.44167391096E+02 -0.11736270050E+03  0.17879850315E+02  0.12666669236E+03  0.00000000000E+00 0. -1.
         22    1    1    2    0    0 -0.36926861334E+01  0.41170664428E+03 -0.46480178670E+03  0.62093212012E+03  0.00000000000E+00 0.  1.
<mgrwt>
<rscale>  0 0.93554288E+03</rscale>
<asrwt>0</asrwt>
<pdfrwt beam="1">  1        2 0.11660988E+00 0.93554288E+03</pdfrwt>
<pdfrwt beam="2">  1       -2 0.44412512E-01 0.93554288E+03</pdfrwt>
<totfact> 0.17804237E+02</totfact>
</mgrwt>
</event>
<event>
 6    1  0.2436515E-005  0.3166769E+04  0.7818608E-02  0.8197649E-01
         -2   -1    0    0    0  501 -0.00000000000E+00  0.00000000000E+00  0.67504599323E+03  0.67504599323E+03  0.00000000000E+00 0. -1.
          2   -1    0    0  501    0  0.00000000000E+00 -0.00000000000E+00 -0.37139784195E+04  0.37139784195E+04  0.00000000000E+00 0.  1.
         23    2    1    2    0    0  0.13538551123E+04 -0.17174527561E+03 -0.41159322473E+03  0.14283941784E+04  0.92091484157E+02 0.  0.
         11    1    3    3    0    0  0.11910948238E+04 -0.18056687743E+03 -0.36827364333E+03  0.12597367792E+04  0.00000000000E+00 0. -1.
        -11    1    3    3    0    0  0.16276028851E+03  0.88216018224E+01 -0.43319581395E+02  0.16865739920E+03  0.00000000000E+00 0.  1.
         22    1    1    2    0    0 -0.13538551123E+04  0.17174527561E+03 -0.26273392016E+04  0.29606302344E+04  0.00000000000E+00 0.  1.
<mgrwt>
<rscale>  0 0.31667689E+04</rscale>
<asrwt>0</asrwt>
<pdfrwt beam="1">  1        2 0.57138129E+00 0.31667689E+04</pdfrwt>
<pdfrwt beam="2">  1       -2 0.10385323E+00 0.31667689E+04</pdfrwt>
<totfact> 0.36270872E-01</totfact>
</mgrwt>
</event>
<event>
 6    1  0.2436515E-005  0.1680099E+04  0.7818608E-02  0.8772797E-01
         -2   -1    0    0    0  501 -0.00000000000E+00  0.00000000000E+00  0.47539245397E+03  0.47539245397E+03  0.00000000000E+00 0. -1.
          2   -1    0    0  501    0  0.00000000000E+00 -0.00000000000E+00 -0.14844227416E+04  0.14844227416E+04  0.00000000000E+00 0.  1.
         23    2    1    2    0    0 -0.74775455740E+03 -0.69900650464E+02 -0.73715056379E+02  0.76029964299E+03  0.92728952072E+02 0.  0.
         11    1    3    3    0    0 -0.35615248237E+03 -0.77636663710E+02 -0.49657780491E+02  0.36788304856E+03  0.00000000000E+00 0. -1.
        -11    1    3    3    0    0 -0.39160207502E+03  0.77360132458E+01 -0.24057275888E+02  0.39241659443E+03  0.00000000000E+00 0.  1.
         22    1    1    2    0    0  0.74775455740E+03  0.69900650464E+02 -0.93531523121E+03  0.11995155525E+04  0.00000000000E+00 0.  1.
<mgrwt>
<rscale>  0 0.16800992E+04</rscale>
<asrwt>0</asrwt>
<pdfrwt beam="1">  1        2 0.22837273E+00 0.16800992E+04</pdfrwt>
<pdfrwt beam="2">  1       -2 0.73137301E-01 0.16800992E+04</pdfrwt>
<totfact> 0.20841114E+01</totfact>
</mgrwt>
</event>
<event>
 6    1  0.2915623E-005  0.3542307E+04  0.7818608E-02  0.8103836E-01
         -2   -1    0    0    0  501 -0.00000000000E+00  0.00000000000E+00  0.30633430821E+04  0.30633430821E+04  0.00000000000E+00 0. -1.
          2   -1    0    0  501    0  0.00000000000E+00 -0.00000000000E+00 -0.10240396047E+04  0.10240396047E+04  0.00000000000E+00 0.  1.
         23    2    1    2    0    0  0.58168416057E+03 -0.61398207640E+02  0.29479648334E+04  0.30067385907E+04  0.88623309484E+02 0.  0.
         11    1    3    3    0    0  0.41119905805E+03 -0.14791903087E+02  0.22028858412E+04  0.22409840462E+04  0.00000000000E+00 0.  1.
        -11    1    3    3    0    0  0.17048510252E+03 -0.46606304553E+02  0.74507899220E+03  0.76575454450E+03  0.00000000000E+00 0. -1.
         22    1    1    2    0    0 -0.58168416057E+03  0.61398207640E+02 -0.90866135603E+03  0.10806440961E+04  0.00000000000E+00 0.  1.
<mgrwt>
<rscale>  0 0.35423070E+04</rscale>
<asrwt>0</asrwt>
<pdfrwt beam="1">  1        2 0.15754456E+00 0.35423070E+04</pdfrwt>
<pdfrwt beam="2">  1       -2 0.47128355E+00 0.35423070E+04</pdfrwt>
<totfact> 0.50020309E-02</totfact>
</mgrwt>
</event>
<event>
 6    1  0.2436515E-005  0.2794601E+04  0.7818608E-02  0.8304947E-01
          2   -1    0    0  501    0  0.00000000000E+00  0.00000000000E+00  0.19780471543E+04  0.19780471543E+04  0.00000000000E+00 0.  1.
         -2   -1    0    0    0  501 -0.00000000000E+00 -0.00000000000E+00 -0.98705849925E+03  0.98705849925E+03  0.00000000000E+00 0. -1.
         23    2    1    2    0    0 -0.10947021725E+04 -0.53154388552E+02 -0.42111540660E+03  0.11775833134E+04  0.90366138045E+02 0.  0.
         11    1    3    3    0    0 -0.44147138152E+03 -0.63670689534E+02 -0.15616395578E+03  0.47258662539E+03  0.00000000000E+00 0.  1.
        -11    1    3    3    0    0 -0.65323079098E+03  0.10516300982E+02 -0.26495145082E+03  0.70499668805E+03  0.00000000000E+00 0. -1.
         22    1    1    2    0    0  0.10947021725E+04  0.53154388552E+02  0.14121040617E+04  0.17875223401E+04  0.00000000000E+00 0.  1.
<mgrwt>
<rscale>  0 0.27946007E+04</rscale>
<asrwt>0</asrwt>
<pdfrwt beam="1">  1        2 0.30431495E+00 0.27946007E+04</pdfrwt>
<pdfrwt beam="2">  1       -2 0.15185515E+00 0.27946007E+04</pdfrwt>
<totfact> 0.17348789E+00</totfact>
</mgrwt>
</event>
<event>
 6    1  0.2436515E-005  0.1849101E+04  0.7818608E-02  0.8680615E-01
         -2   -1    0    0    0  501 -0.00000000000E+00  0.00000000000E+00  0.70072209440E+03  0.70072209440E+03  0.00000000000E+00 0. -1.
          2   -1    0    0  501    0  0.00000000000E+00 -0.00000000000E+00 -0.12198758536E+04  0.12198758536E+04  0.00000000000E+00 0.  1.
         23    2    1    2    0    0 -0.58929526109E+03  0.19184877074E+03  0.44926299984E+03  0.77085629233E+03  0.91144527124E+02 0.  0.
         13    1    3    3    0    0 -0.51738320161E+03  0.17021189780E+03  0.35417521018E+03  0.64969034698E+03  0.00000000000E+00 0.  1.
        -13    1    3    3    0    0 -0.71912059485E+02  0.21636872940E+02  0.95087789662E+02  0.12116594535E+03  0.00000000000E+00 0. -1.
         22    1    1    2    0    0  0.58929526109E+03 -0.19184877074E+03 -0.96841675902E+03  0.11497416556E+04  0.00000000000E+00 0.  1.
<mgrwt>
<rscale>  0 0.18491014E+04</rscale>
<asrwt>0</asrwt>
<pdfrwt beam="1">  1        2 0.18767321E+00 0.18491014E+04</pdfrwt>
<pdfrwt beam="2">  1       -2 0.10780340E+00 0.18491014E+04</pdfrwt>
<totfact> 0.11958717E+01</totfact>
</mgrwt>
</event>
<event>
 6    1  0.2436515E-005  0.2406883E+04  0.7818608E-02  0.8436931E-01
          2   -1    0    0  501    0  0.00000000000E+00  0.00000000000E+00  0.79221666152E+03  0.79221666152E+03  0.00000000000E+00 0.  1.
         -2   -1    0    0    0  501 -0.00000000000E+00 -0.00000000000E+00 -0.18281248647E+04  0.18281248647E+04  0.00000000000E+00 0. -1.
         23    2    1    2    0    0 -0.11885409097E+04  0.16573272457E+03 -0.58723242215E+03  0.13391675386E+04  0.91820198057E+02 0.  0.
         13    1    3    3    0    0 -0.10160445307E+04  0.11123607582E+03 -0.48450592317E+03  0.11311348030E+04  0.00000000000E+00 0. -1.
        -13    1    3    3    0    0 -0.17249637899E+03  0.54496648746E+02 -0.10272649897E+03  0.20803273560E+03  0.00000000000E+00 0.  1.
         22    1    1    2    0    0  0.11885409097E+04 -0.16573272457E+03 -0.44867578103E+03  0.12811739876E+04  0.00000000000E+00 0. -1.
<mgrwt>
<rscale>  0 0.24068826E+04</rscale>
<asrwt>0</asrwt>
<pdfrwt beam="1">  1        2 0.12187949E+00 0.24068826E+04</pdfrwt>
<pdfrwt beam="2">  1       -2 0.28124998E+00 0.24068826E+04</pdfrwt>
<totfact> 0.12978851E+00</totfact>
</mgrwt>
</event>
<event>
 6    1  0.2436515E-005  0.3529589E+04  0.7818608E-02  0.8106813E-01
          2   -1    0    0  501    0  0.00000000000E+00  0.00000000000E+00  0.43072916052E+04  0.43072916052E+04  0.00000000000E+00 0.  1.
         -2   -1    0    0    0  501 -0.00000000000E+00 -0.00000000000E+00 -0.72307612071E+03  0.72307612071E+03  0.00000000000E+00 0. -1.
         23    2    1    2    0    0  0.68418702384E+03 -0.16148953267E+04  0.15291456543E+04  0.23286440526E+04  0.91092765360E+02 0.  0.
         13    1    3    3    0    0  0.32103183688E+03 -0.64409035551E+03  0.61811620789E+03  0.94867353331E+03  0.00000000000E+00 0. -1.
        -13    1    3    3    0    0  0.36315518697E+03 -0.97080497120E+03  0.91102944642E+03  0.13799705193E+04  0.00000000000E+00 0.  1.
         22    1    1    2    0    0 -0.68418702384E+03  0.16148953267E+04  0.20550698302E+04  0.27017236733E+04  0.00000000000E+00 0. -1.
<mgrwt>
<rscale>  0 0.35295890E+04</rscale>
<asrwt>0</asrwt>
<pdfrwt beam="1">  1        2 0.66266023E+00 0.35295890E+04</pdfrwt>
<pdfrwt beam="2">  1       -2 0.11124248E+00 0.35295890E+04</pdfrwt>
<totfact> 0.97525885E-02</totfact>
</mgrwt>
</event>
<event>
 6    1  0.2436515E-005  0.7377935E+03  0.7818608E-02  0.9654697E-01
          4   -1    0    0  501    0  0.00000000000E+00  0.00000000000E+00  0.61700346451E+03  0.61700346451E+03  0.00000000000E+00 0.  1.
         -4   -1    0    0    0  501 -0.00000000000E+00 -0.00000000000E+00 -0.22055763901E+03  0.22055763901E+03  0.00000000000E+00 0. -1.
         23    2    1    2    0    0  0.20667460802E+03  0.27305158706E+03  0.33835324954E+03  0.49021932634E+03  0.92522989831E+02 0.  0.
         13    1    3    3    0    0  0.12464032546E+03  0.22690433994E+03  0.26872978007E+03  0.37314405383E+03  0.00000000000E+00 0. -1.
        -13    1    3    3    0    0  0.82034282558E+02  0.46147247121E+02  0.69623469470E+02  0.11707527251E+03  0.00000000000E+00 0.  1.
         22    1    1    2    0    0 -0.20667460802E+03 -0.27305158706E+03  0.58092575956E+02  0.34734177718E+03  0.00000000000E+00 0.  1.
<mgrwt>
<rscale>  0 0.73779354E+03</rscale>
<asrwt>0</asrwt>
<pdfrwt beam="1">  1        4 0.94923609E-01 0.73779354E+03</pdfrwt>
<pdfrwt beam="2">  1       -4 0.33931945E-01 0.73779354E+03</pdfrwt>
<totfact> 0.15706992E+01</totfact>
</mgrwt>
</event>
<event>
 6    1  0.2436515E-005  0.2672226E+04  0.7818608E-02  0.8344073E-01
         -2   -1    0    0    0  501 -0.00000000000E+00  0.00000000000E+00  0.53088621123E+03  0.53088621123E+03  0.00000000000E+00 0. -1.
          2   -1    0    0  501    0  0.00000000000E+00 -0.00000000000E+00 -0.33626761529E+04  0.33626761529E+04  0.00000000000E+00 0.  1.
         23    2    1    2    0    0 -0.46290335087E+03 -0.11403209697E+04 -0.21705982415E+04  0.24964990547E+04  0.79996112434E+02 0.  0.
         13    1    3    3    0    0 -0.74550614782E+02 -0.17571362048E+03 -0.28134124709E+03  0.33997936394E+03  0.00000000000E+00 0.  1.
        -13    1    3    3    0    0 -0.38835273609E+03 -0.96460734918E+03 -0.18892569945E+04  0.21565196908E+04  0.00000000000E+00 0. -1.
         22    1    1    2    0    0  0.46290335087E+03  0.11403209697E+04 -0.66119170011E+03  0.13970633094E+04  0.00000000000E+00 0. -1.
<mgrwt>
<rscale>  0 0.26722263E+04</rscale>
<asrwt>0</asrwt>
<pdfrwt beam="1">  1        2 0.51733480E+00 0.26722263E+04</pdfrwt>
<pdfrwt beam="2">  1       -2 0.81674800E-01 0.26722263E+04</pdfrwt>
<totfact> 0.11726174E+00</totfact>
</mgrwt>
</event>
<event>
 6    1  0.2436515E-005  0.1456515E+04  0.7818608E-02  0.8913896E-01
         -1   -1    0    0    0  501 -0.00000000000E+00  0.00000000000E+00  0.38037835179E+03  0.38037835179E+03  0.00000000000E+00 0. -1.
          1   -1    0    0  501    0  0.00000000000E+00 -0.00000000000E+00 -0.13942935259E+04  0.13942935259E+04  0.00000000000E+00 0.  1.
         23    2    1    2    0    0 -0.94783280963E+02  0.51889186004E+03 -0.11156156871E+04  0.12374795219E+04  0.92328614999E+02 0.  0.
         11    1    3    3    0    0 -0.32522119567E+02  0.19109915188E+03 -0.31151342540E+03  0.36690215087E+03  0.00000000000E+00 0. -1.
        -11    1    3    3    0    0 -0.62261161396E+02  0.32779270815E+03 -0.80410226168E+03  0.87057737105E+03  0.00000000000E+00 0.  1.
         22    1    1    2    0    0  0.94783280963E+02 -0.51889186004E+03  0.10170051297E+03  0.53719235577E+03  0.00000000000E+00 0. -1.
<mgrwt>
<rscale>  0 0.14565151E+04</rscale>
<asrwt>0</asrwt>
<pdfrwt beam="1">  1        1 0.21450670E+00 0.14565151E+04</pdfrwt>
<pdfrwt beam="2">  1       -1 0.58519747E-01 0.14565151E+04</pdfrwt>
<totfact> 0.22272454E+01</totfact>
</mgrwt>
</event>
<event>
 6    1  0.2436515E-005  0.2354098E+04  0.7818608E-02  0.8456891E-01
          2   -1    0    0  501    0  0.00000000000E+00  0.00000000000E+00  0.13584124173E+04  0.13584124173E+04  0.00000000000E+00 0.  1.
         -2   -1    0    0    0  501 -0.00000000000E+00 -0.00000000000E+00 -0.10199000759E+04  0.10199000759E+04  0.00000000000E+00 0. -1.
         23    2    1    2    0    0  0.14472038948E+03 -0.91300365177E+03  0.90237440013E+03  0.12955105350E+04  0.97715551902E+02 0.  0.
         13    1    3    3    0    0  0.99323966892E+01 -0.30445516503E+03  0.26066512175E+03  0.40092132110E+03  0.00000000000E+00 0. -1.
        -13    1    3    3    0    0  0.13478799280E+03 -0.60854848674E+03  0.64170927838E+03  0.89458921393E+03  0.00000000000E+00 0.  1.
         22    1    1    2    0    0 -0.14472038948E+03  0.91300365177E+03 -0.56386205870E+03  0.10828019581E+04  0.00000000000E+00 0. -1.
<mgrwt>
<rscale>  0 0.23540985E+04</rscale>
<asrwt>0</asrwt>
<pdfrwt beam="1">  1        2 0.20898653E+00 0.23540985E+04</pdfrwt>
<pdfrwt beam="2">  1       -2 0.15690770E+00 0.23540985E+04</pdfrwt>
<totfact> 0.36660846E+00</totfact>
</mgrwt>
</event>
<event>
 6    1  0.2436515E-005  0.1673752E+04  0.7818608E-02  0.8776478E-01
         -2   -1    0    0    0  501 -0.00000000000E+00  0.00000000000E+00  0.33672033034E+03  0.33672033034E+03  0.00000000000E+00 0.  1.
          2   -1    0    0  501    0  0.00000000000E+00 -0.00000000000E+00 -0.20799488451E+04  0.20799488451E+04  0.00000000000E+00 0. -1.
         23    2    1    2    0    0 -0.62770077749E+03 -0.25774961900E+02 -0.16668556629E+04  0.17838141943E+04  0.94406906467E+02 0.  0.
         11    1    3    3    0    0 -0.55949444563E+03 -0.36657824442E+02 -0.13984774894E+04  0.15066907842E+04  0.00000000000E+00 0. -1.
        -11    1    3    3    0    0 -0.68206331864E+02  0.10882862542E+02 -0.26837817352E+03  0.27712341010E+03  0.00000000000E+00 0.  1.
         22    1    1    2    0    0  0.62770077749E+03  0.25774961900E+02 -0.76372851887E+02  0.63285498120E+03  0.00000000000E+00 0.  1.
<mgrwt>
<rscale>  0 0.16737515E+04</rscale>
<asrwt>0</asrwt>
<pdfrwt beam="1">  1        2 0.31999212E+00 0.16737515E+04</pdfrwt>
<pdfrwt beam="2">  1       -2 0.51803129E-01 0.16737515E+04</pdfrwt>
<totfact> 0.20237508E+01</totfact>
</mgrwt>
</event>
<event>
 6    1  0.2436515E-005  0.2537399E+04  0.7818608E-02  0.8389782E-01
         -2   -1    0    0    0  501 -0.00000000000E+00  0.00000000000E+00  0.54447192357E+03  0.54447192357E+03  0.00000000000E+00 0. -1.
          2   -1    0    0  501    0  0.00000000000E+00 -0.00000000000E+00 -0.29562560381E+04  0.29562560381E+04  0.00000000000E+00 0.  1.
         23    2    1    2    0    0  0.16363131031E+03  0.75892582912E+03  0.17492164661E+03  0.80002614278E+03  0.81857356839E+02 0.  0.
         11    1    3    3    0    0  0.11509665555E+03  0.65450097720E+03  0.13475490947E+03  0.67806906352E+03  0.00000000000E+00 0. -1.
        -11    1    3    3    0    0  0.48534654754E+02  0.10442485192E+03  0.40166737142E+02  0.12195707927E+03  0.00000000000E+00 0.  1.
         22    1    1    2    0    0 -0.16363131031E+03 -0.75892582912E+03 -0.25867057612E+04  0.27007018189E+04  0.00000000000E+00 0.  1.
<mgrwt>
<rscale>  0 0.25373990E+04</rscale>
<asrwt>0</asrwt>
<pdfrwt beam="1">  1        2 0.45480863E+00 0.25373990E+04</pdfrwt>
<pdfrwt beam="2">  1       -2 0.83764910E-01 0.25373990E+04</pdfrwt>
<totfact> 0.20538367E+00</totfact>
</mgrwt>
</event>
<event>
 6    1  0.2551641E-005  0.4096600E+04  0.7818608E-02  0.7985338E-01
          2   -1    0    0  501    0  0.00000000000E+00  0.00000000000E+00  0.17567128915E+04  0.17567128915E+04  0.00000000000E+00 0.  1.
         -2   -1    0    0    0  501 -0.00000000000E+00 -0.00000000000E+00 -0.23882859144E+04  0.23882859144E+04  0.00000000000E+00 0. -1.
         23    2    1    2    0    0 -0.16475690079E+04  0.10871051376E+04  0.23378358021E+03  0.19897440027E+04  0.90250862895E+02 0.  0.
         11    1    3    3    0    0 -0.90425929379E+03  0.62907547156E+03  0.16637685327E+03  0.11140476097E+04  0.00000000000E+00 0. -1.
        -11    1    3    3    0    0 -0.74330971407E+03  0.45802966599E+03  0.67406726932E+02  0.87569639304E+03  0.00000000000E+00 0.  1.
         22    1    1    2    0    0  0.16475690079E+04 -0.10871051376E+04 -0.86535660313E+03  0.21552548031E+04  0.00000000000E+00 0. -1.
<mgrwt>
<rscale>  0 0.40965999E+04</rscale>
<asrwt>0</asrwt>
<pdfrwt beam="1">  1        2 0.27026352E+00 0.40965999E+04</pdfrwt>
<pdfrwt beam="2">  1       -2 0.36742860E+00 0.40965999E+04</pdfrwt>
<totfact> 0.86054837E-02</totfact>
</mgrwt>
</event>
<event>
 6    1  0.2436515E-005  0.2453469E+04  0.7818608E-02  0.8419753E-01
         -2   -1    0    0    0  501 -0.00000000000E+00  0.00000000000E+00  0.64986144157E+03  0.64986144157E+03  0.00000000000E+00 0. -1.
          2   -1    0    0  501    0  0.00000000000E+00 -0.00000000000E+00 -0.23156895004E+04  0.23156895004E+04  0.00000000000E+00 0.  1.
         23    2    1    2    0    0  0.60786011559E+03 -0.10594752126E+04 -0.94609478477E+03  0.15478070892E+04  0.92896703644E+02 0.  0.
         11    1    3    3    0    0  0.54312311837E+03 -0.88090369997E+03 -0.80867006981E+03  0.13133626050E+04  0.00000000000E+00 0.  1.
        -11    1    3    3    0    0  0.64736997221E+02 -0.17857151260E+03 -0.13742471497E+03  0.23444448427E+03  0.00000000000E+00 0. -1.
         22    1    1    2    0    0 -0.60786011559E+03  0.10594752126E+04 -0.71973327403E+03  0.14177438527E+04  0.00000000000E+00 0.  1.
<mgrwt>
<rscale>  0 0.24534688E+04</rscale>
<asrwt>0</asrwt>
<pdfrwt beam="1">  1        2 0.35625994E+00 0.24534688E+04</pdfrwt>
<pdfrwt beam="2">  1       -2 0.99978680E-01 0.24534688E+04</pdfrwt>
<totfact> 0.32857830E+00</totfact>
</mgrwt>
</event>
<event>
 6    1  0.2436515E-005  0.1330904E+04  0.7818608E-02  0.9005410E-01
          2   -1    0    0  501    0  0.00000000000E+00  0.00000000000E+00  0.87246863711E+03  0.87246863711E+03  0.00000000000E+00 0.  1.
         -2   -1    0    0    0  501 -0.00000000000E+00 -0.00000000000E+00 -0.50755596482E+03  0.50755596482E+03  0.00000000000E+00 0. -1.
         23    2    1    2    0    0  0.59692913223E+03  0.43096895579E+02 -0.10944174830E+03  0.61635330638E+03  0.98651764798E+02 0.  0.
         13    1    3    3    0    0  0.13851140868E+03  0.42495906303E+01  0.16000526643E+02  0.13949726236E+03  0.00000000000E+00 0.  1.
        -13    1    3    3    0    0  0.45841772355E+03  0.38847304948E+02 -0.12544227494E+03  0.47685604401E+03  0.00000000000E+00 0. -1.
         22    1    1    2    0    0 -0.59692913223E+03 -0.43096895579E+02  0.47435442059E+03  0.76367129555E+03  0.00000000000E+00 0. -1.
<mgrwt>
<rscale>  0 0.13309044E+04</rscale>
<asrwt>0</asrwt>
<pdfrwt beam="1">  1        2 0.13422594E+00 0.13309044E+04</pdfrwt>
<pdfrwt beam="2">  1       -2 0.78085533E-01 0.13309044E+04</pdfrwt>
<totfact> 0.43727174E+01</totfact>
</mgrwt>
</event>
<event>
 6    1  0.2436515E-005  0.2690742E+04  0.7818608E-02  0.8338015E-01
          2   -1    0    0  501    0  0.00000000000E+00  0.00000000000E+00  0.10055170403E+04  0.10055170403E+04  0.00000000000E+00 0.  1.
         -2   -1    0    0    0  501 -0.00000000000E+00 -0.00000000000E+00 -0.18000914086E+04  0.18000914086E+04  0.00000000000E+00 0. -1.
         23    2    1    2    0    0  0.10095438075E+03  0.10848561721E+04  0.42257527726E+03  0.11720363015E+04  0.89412112362E+02 0.  0.
         13    1    3    3    0    0 -0.61526564146E+01  0.37089982250E+03  0.13026576371E+03  0.39315862283E+03  0.00000000000E+00 0. -1.
        -13    1    3    3    0    0  0.10710703717E+03  0.71395634963E+03  0.29230951355E+03  0.77887767865E+03  0.00000000000E+00 0.  1.
         22    1    1    2    0    0 -0.10095438075E+03 -0.10848561721E+04 -0.12171496456E+04  0.16335721475E+04  0.00000000000E+00 0. -1.
<mgrwt>
<rscale>  0 0.26907416E+04</rscale>
<asrwt>0</asrwt>
<pdfrwt beam="1">  1        2 0.15469493E+00 0.26907416E+04</pdfrwt>
<pdfrwt beam="2">  1       -2 0.27693713E+00 0.26907416E+04</pdfrwt>
<totfact> 0.96430414E-01</totfact>
</mgrwt>
</event>
<event>
 6    1  0.2436515E-005  0.4307319E+04  0.7818608E-02  0.7945266E-01
         -2   -1    0    0    0  501 -0.00000000000E+00  0.00000000000E+00  0.46653215020E+04  0.46653215020E+04  0.00000000000E+00 0. -1.
          2   -1    0    0  501    0  0.00000000000E+00 -0.00000000000E+00 -0.99419705992E+03  0.99419705992E+03  0.00000000000E+00 0.  1.
         23    2    1    2    0    0  0.86359359746E+03  0.10901241475E+04  0.39953703429E+04  0.42314779593E+04  0.90867949331E+02 0.  0.
         11    1    3    3    0    0  0.42306387186E+03  0.60673641115E+03  0.21335484696E+04  0.22581278052E+04  0.00000000000E+00 0. -1.
        -11    1    3    3    0    0  0.44052972559E+03  0.48338773636E+03  0.18618218733E+04  0.19733501541E+04  0.00000000000E+00 0.  1.
         22    1    1    2    0    0 -0.86359359746E+03 -0.10901241475E+04 -0.32424590084E+03  0.14280406026E+04  0.00000000000E+00 0.  1.
<mgrwt>
<rscale>  0 0.43073189E+04</rscale>
<asrwt>0</asrwt>
<pdfrwt beam="1">  1        2 0.15295340E+00 0.43073189E+04</pdfrwt>
<pdfrwt beam="2">  1       -2 0.71774176E+00 0.43073189E+04</pdfrwt>
<totfact> 0.38319106E-03</totfact>
</mgrwt>
</event>
<event>
 6    1  0.2436515E-005  0.2443955E+04  0.7818608E-02  0.8423228E-01
          2   -1    0    0  501    0  0.00000000000E+00  0.00000000000E+00  0.32615943255E+04  0.32615943255E+04  0.00000000000E+00 0.  1.
         -2   -1    0    0    0  501 -0.00000000000E+00 -0.00000000000E+00 -0.45782191882E+03  0.45782191882E+03  0.00000000000E+00 0. -1.
         23    2    1    2    0    0  0.94156065536E+03  0.43578049898E+03  0.23814925042E+04  0.25992549046E+04  0.90434508652E+02 0.  0.
         13    1    3    3    0    0  0.30313950125E+03  0.16540462889E+03  0.70407093905E+03  0.78419904086E+03  0.00000000000E+00 0. -1.
        -13    1    3    3    0    0  0.63842115410E+03  0.27037587009E+03  0.16774215652E+04  0.18150558637E+04  0.00000000000E+00 0.  1.
         22    1    1    2    0    0 -0.94156065536E+03 -0.43578049898E+03  0.42227990245E+03  0.11201613397E+04  0.00000000000E+00 0.  1.
<mgrwt>
<rscale>  0 0.24439553E+04</rscale>
<asrwt>0</asrwt>
<pdfrwt beam="1">  1        2 0.50178373E+00 0.24439553E+04</pdfrwt>
<pdfrwt beam="2">  1       -2 0.70434144E-01 0.24439553E+04</pdfrwt>
<totfact> 0.19428777E+00</totfact>
</mgrwt>
</event>
<event>
 6    1  0.2436515E-005  0.1841035E+04  0.7818608E-02  0.8684777E-01
         -2   -1    0    0    0  501 -0.00000000000E+00  0.00000000000E+00  0.56580845155E+03  0.56580845155E+03  0.00000000000E+00 0. -1.
          2   -1    0    0  501    0  0.00000000000E+00 -0.00000000000E+00 -0.14975954951E+04  0.14975954951E+04  0.00000000000E+00 0.  1.
         23    2    1    2    0    0  0.35581162595E+03  0.65312904801E+03 -0.10705141124E+04  0.13068164327E+04  0.92678246851E+02 0.  0.
         11    1    3    3    0    0  0.72319328556E+02  0.12299832083E+03 -0.14691382257E+03  0.20479829948E+03  0.00000000000E+00 0. -1.
        -11    1    3    3    0    0  0.28349229739E+03  0.53013072718E+03 -0.92360028988E+03  0.11020181333E+04  0.00000000000E+00 0.  1.
         22    1    1    2    0    0 -0.35581162595E+03 -0.65312904801E+03  0.13872706892E+03  0.75658751388E+03  0.00000000000E+00 0. -1.
<mgrwt>
<rscale>  0 0.18410347E+04</rscale>
<asrwt>0</asrwt>
<pdfrwt beam="1">  1        2 0.23039930E+00 0.18410347E+04</pdfrwt>
<pdfrwt beam="2">  1       -2 0.87047456E-01 0.18410347E+04</pdfrwt>
<totfact> 0.13673226E+01</totfact>
</mgrwt>
</event>
<event>
 6    1  0.2436515E-005  0.1968168E+04  0.7818608E-02  0.8621650E-01
         -2   -1    0    0    0  501 -0.00000000000E+00  0.00000000000E+00  0.12771638297E+04  0.12771638297E+04  0.00000000000E+00 0. -1.
          2   -1    0    0  501    0  0.00000000000E+00 -0.00000000000E+00 -0.75825906858E+03  0.75825906858E+03  0.00000000000E+00 0.  1.
         23    2    1    2    0    0  0.21284072443E+03  0.27771198535E+03 -0.68848788602E+03  0.77835403574E+03  0.96924274412E+02 0.  0.
         11    1    3    3    0    0  0.75181451063E+02  0.69851185863E+02 -0.12193595033E+03  0.15937319327E+03  0.00000000000E+00 0.  1.
        -11    1    3    3    0    0  0.13765927336E+03  0.20786079949E+03 -0.56655193569E+03  0.61898084247E+03  0.00000000000E+00 0. -1.
         22    1    1    2    0    0 -0.21284072443E+03 -0.27771198535E+03  0.12073926472E+04  0.12570688625E+04  0.00000000000E+00 0. -1.
<mgrwt>
<rscale>  0 0.19681677E+04</rscale>
<asrwt>0</asrwt>
<pdfrwt beam="1">  1        2 0.11665524E+00 0.19681677E+04</pdfrwt>
<pdfrwt beam="2">  1       -2 0.19648674E+00 0.19681677E+04</pdfrwt>
<totfact> 0.48281193E+00</totfact>
</mgrwt>
</event>
<event>
 6    1  0.2436515E-005  0.3175525E+04  0.7818608E-02  0.8195311E-01
         -2   -1    0    0    0  501 -0.00000000000E+00  0.00000000000E+00  0.17966962781E+04  0.17966962781E+04  0.00000000000E+00 0. -1.
          2   -1    0    0  501    0  0.00000000000E+00 -0.00000000000E+00 -0.14031252664E+04  0.14031252664E+04  0.00000000000E+00 0.  1.
         23    2    1    2    0    0  0.11226063092E+04 -0.84074179684E+03 -0.55018132513E+03  0.15093304420E+04  0.91034050640E+02 0.  0.
         13    1    3    3    0    0  0.80255395257E+03 -0.59648481380E+03 -0.43583291381E+03  0.10907966395E+04  0.00000000000E+00 0.  1.
        -13    1    3    3    0    0  0.32005235662E+03 -0.24425698303E+03 -0.11434841132E+03  0.41853380259E+03  0.00000000000E+00 0. -1.
         22    1    1    2    0    0 -0.11226063092E+04  0.84074179684E+03  0.94375233680E+03  0.16904911025E+04  0.00000000000E+00 0. -1.
<mgrwt>
<rscale>  0 0.31755251E+04</rscale>
<asrwt>0</asrwt>
<pdfrwt beam="1">  1        2 0.21586542E+00 0.31755251E+04</pdfrwt>
<pdfrwt beam="2">  1       -2 0.27641481E+00 0.31755251E+04</pdfrwt>
<totfact> 0.53849829E-01</totfact>
</mgrwt>
</event>
<event>
 6    1  0.2436515E-005  0.1768528E+04  0.7818608E-02  0.8723217E-01
          2   -1    0    0  501    0  0.00000000000E+00  0.00000000000E+00  0.28820090880E+04  0.28820090880E+04  0.00000000000E+00 0.  1.
         -2   -1    0    0    0  501 -0.00000000000E+00 -0.00000000000E+00 -0.27131176588E+03  0.27131176588E+03  0.00000000000E+00 0. -1.
         23    2    1    2    0    0  0.46155326797E+03  0.91100849598E+02 -0.21193804595E+02  0.47971248936E+03  0.91346106228E+02 0.  0.
         11    1    3    3    0    0  0.38526901031E+03  0.42145477972E+02 -0.29515393977E+02  0.38868960637E+03  0.00000000000E+00 0. -1.
        -11    1    3    3    0    0  0.76284257659E+02  0.48955371626E+02  0.83215893821E+01  0.91022882988E+02  0.00000000000E+00 0.  1.
         22    1    1    2    0    0 -0.46155326797E+03 -0.91100849598E+02  0.26318911267E+04  0.26736083645E+04  0.00000000000E+00 0.  1.
<mgrwt>
<rscale>  0 0.17685282E+04</rscale>
<asrwt>0</asrwt>
<pdfrwt beam="1">  1        2 0.44338599E+00 0.17685282E+04</pdfrwt>
<pdfrwt beam="2">  1       -2 0.41740274E-01 0.17685282E+04</pdfrwt>
<totfact> 0.10643875E+01</totfact>
</mgrwt>
</event>
<event>
 6    1  0.2436515E-005  0.2633310E+04  0.7818608E-02  0.8356974E-01
         -2   -1    0    0    0  501 -0.00000000000E+00  0.00000000000E+00  0.72374270203E+03  0.72374270203E+03  0.00000000000E+00 0. -1.
          2   -1    0    0  501    0  0.00000000000E+00 -0.00000000000E+00 -0.23952990113E+04  0.23952990113E+04  0.00000000000E+00 0.  1.
         23    2    1    2    0    0 -0.11352106563E+04 -0.53098245615E+03 -0.36490925183E+03  0.13085246226E+04  0.91827681611E+02 0.  0.
         13    1    3    3    0    0 -0.76265251630E+03 -0.30892573150E+03 -0.24469610813E+03  0.85845800919E+03  0.00000000000E+00 0. -1.
        -13    1    3    3    0    0 -0.37255813999E+03 -0.22205672465E+03 -0.12021314369E+03  0.45006661346E+03  0.00000000000E+00 0.  1.
         22    1    1    2    0    0  0.11352106563E+04  0.53098245615E+03 -0.13066470574E+04  0.18105170907E+04  0.00000000000E+00 0.  1.
<mgrwt>
<rscale>  0 0.26333098E+04</rscale>
<asrwt>0</asrwt>
<pdfrwt beam="1">  1        2 0.36850755E+00 0.26333098E+04</pdfrwt>
<pdfrwt beam="2">  1       -2 0.11134503E+00 0.26333098E+04</pdfrwt>
<totfact> 0.22506362E+00</totfact>
</mgrwt>
</event>
<event>
 6    1  0.2436515E-005  0.4443042E+04  0.7818608E-02  0.7920685E-01
          2   -1    0    0  501    0  0.00000000000E+00  0.00000000000E+00  0.34092086557E+04  0.34092086557E+04  0.00000000000E+00 0.  1.
         -2   -1    0    0    0  501 -0.00000000000E+00 -0.00000000000E+00 -0.14475958527E+04  0.14475958527E+04  0.00000000000E+00 0. -1.
         23    2    1    2    0    0 -0.11581291001E+04 -0.15576070325E+04 -0.19776868899E+03  0.19533012609E+04  0.94184295131E+02 0.  0.
         13    1    3    3    0    0 -0.85312643399E+03 -0.12015265301E+04 -0.17421545190E+03  0.14838604175E+04  0.00000000000E+00 0. -1.
        -13    1    3    3    0    0 -0.30500266606E+03 -0.35608050238E+03 -0.23553237087E+02  0.46944084340E+03  0.00000000000E+00 0.  1.
         22    1    1    2    0    0  0.11581291001E+04  0.15576070325E+04  0.21593814920E+04  0.29035032475E+04  0.00000000000E+00 0.  1.
<mgrwt>
<rscale>  0 0.44430423E+04</rscale>
<asrwt>0</asrwt>
<pdfrwt beam="1">  1        2 0.52449364E+00 0.44430423E+04</pdfrwt>
<pdfrwt beam="2">  1       -2 0.22270706E+00 0.44430423E+04</pdfrwt>
<totfact> 0.67852924E-02</totfact>
</mgrwt>
</event>
<event>
 6    1  0.2436515E-005  0.1416636E+04  0.7818608E-02  0.8941864E-01
          1   -1    0    0  501    0  0.00000000000E+00  0.00000000000E+00  0.35598942887E+04  0.35598942887E+04  0.00000000000E+00 0.  1.
         -1   -1    0    0    0  501 -0.00000000000E+00 -0.00000000000E+00 -0.14093514884E+03  0.14093514884E+03  0.00000000000E+00 0. -1.
         23    2    1    2    0    0 -0.68308760840E+02 -0.61713063355E+03  0.84094282606E+03  0.10490970944E+04  0.88902030478E+02 0.  0.
         11    1    3    3    0    0  0.16163363495E+01 -0.32290184232E+03  0.47496084528E+03  0.57433092975E+03  0.00000000000E+00 0. -1.
        -11    1    3    3    0    0 -0.69925097190E+02 -0.29422879123E+03  0.36598198078E+03  0.47476616461E+03  0.00000000000E+00 0.  1.
         22    1    1    2    0    0  0.68308760840E+02  0.61713063355E+03  0.25780163138E+04  0.26517323432E+04  0.00000000000E+00 0.  1.
<mgrwt>
<rscale>  0 0.14166358E+04</rscale>
<asrwt>0</asrwt>
<pdfrwt beam="1">  1        1 0.54767598E+00 0.14166358E+04</pdfrwt>
<pdfrwt beam="2">  1       -1 0.21682333E-01 0.14166358E+04</pdfrwt>
<totfact> 0.39528008E+00</totfact>
</mgrwt>
</event>
<event>
 6    1  0.2436515E-005  0.3661124E+04  0.7818608E-02  0.8076632E-01
          2   -1    0    0  501    0  0.00000000000E+00  0.00000000000E+00  0.16521282685E+04  0.16521282685E+04  0.00000000000E+00 0.  1.
         -2   -1    0    0    0  501 -0.00000000000E+00 -0.00000000000E+00 -0.20282672211E+04  0.20282672211E+04  0.00000000000E+00 0. -1.
         23    2    1    2    0    0 -0.44709860776E+03  0.12846711277E+04 -0.14177470920E+04  0.19671457741E+04  0.96843214317E+02 0.  0.
         11    1    3    3    0    0 -0.26125540256E+03  0.64820509703E+03 -0.67732628708E+03  0.97323950411E+03  0.00000000000E+00 0. -1.
        -11    1    3    3    0    0 -0.18584320521E+03  0.63646603069E+03 -0.74042080494E+03  0.99390627000E+03  0.00000000000E+00 0.  1.
         22    1    1    2    0    0  0.44709860776E+03 -0.12846711277E+04  0.10416081394E+04  0.17132497155E+04  0.00000000000E+00 0.  1.
<mgrwt>
<rscale>  0 0.36611242E+04</rscale>
<asrwt>0</asrwt>
<pdfrwt beam="1">  1        2 0.25417358E+00 0.36611242E+04</pdfrwt>
<pdfrwt beam="2">  1       -2 0.31204111E+00 0.36611242E+04</pdfrwt>
<totfact> 0.22669434E-01</totfact>
</mgrwt>
</event>
<event>
 6    1  0.2436515E-005  0.1496220E+04  0.7818608E-02  0.8886970E-01
         -2   -1    0    0    0  501 -0.00000000000E+00  0.00000000000E+00  0.19943453124E+03  0.19943453124E+03  0.00000000000E+00 0. -1.
          2   -1    0    0  501    0  0.00000000000E+00 -0.00000000000E+00 -0.28062787648E+04  0.28062787648E+04  0.00000000000E+00 0.  1.
         23    2    1    2    0    0  0.37731897144E+02  0.44153606892E+03 -0.25121410141E+04  0.25525615599E+04  0.91324946567E+02 0.  0.
         11    1    3    3    0    0 -0.10166623540E+02  0.70574514664E+01 -0.13502868947E+03  0.13559467111E+03  0.00000000000E+00 0. -1.
        -11    1    3    3    0    0  0.47898520685E+02  0.43447861745E+03 -0.23771123247E+04  0.24169668888E+04  0.00000000000E+00 0.  1.
         22    1    1    2    0    0 -0.37731897144E+02 -0.44153606892E+03 -0.94703219431E+02  0.45315173616E+03  0.00000000000E+00 0. -1.
<mgrwt>
<rscale>  0 0.14962204E+04</rscale>
<asrwt>0</asrwt>
<pdfrwt beam="1">  1        2 0.43173514E+00 0.14962204E+04</pdfrwt>
<pdfrwt beam="2">  1       -2 0.30682239E-01 0.14962204E+04</pdfrwt>
<totfact> 0.21898596E+01</totfact>
</mgrwt>
</event>
<event>
 6    1  0.2634119E-005  0.3144545E+04  0.7818608E-02  0.8203618E-01
         -2   -1    0    0    0  501 -0.00000000000E+00  0.00000000000E+00  0.18720535732E+04  0.18720535732E+04  0.00000000000E+00 0. -1.
          2   -1    0    0  501    0  0.00000000000E+00 -0.00000000000E+00 -0.13204969977E+04  0.13204969977E+04  0.00000000000E+00 0.  1.
         23    2    1    2    0    0 -0.93864630859E+02  0.13224573509E+04  0.11317593615E+04  0.17453673459E+04  0.87885755000E+02 0.  0.
         13    1    3    3    0    0  0.59202570924E+01  0.51737192076E+03  0.44755329657E+03  0.68411454239E+03  0.00000000000E+00 0.  1.
        -13    1    3    3    0    0 -0.99784887952E+02  0.80508543010E+03  0.68420606495E+03  0.10612528035E+04  0.00000000000E+00 0. -1.
         22    1    1    2    0    0  0.93864630859E+02 -0.13224573509E+04 -0.58020278603E+03  0.14471832250E+04  0.00000000000E+00 0.  1.
<mgrwt>
<rscale>  0 0.31445452E+04</rscale>
<asrwt>0</asrwt>
<pdfrwt beam="1">  1        2 0.20315338E+00 0.31445452E+04</pdfrwt>
<pdfrwt beam="2">  1       -2 0.28800824E+00 0.31445452E+04</pdfrwt>
<totfact> 0.51190980E-01</totfact>
</mgrwt>
</event>
<event>
 6    1  0.2436515E-005  0.3569636E+04  0.7818608E-02  0.8097483E-01
          2   -1    0    0  501    0  0.00000000000E+00  0.00000000000E+00  0.23152445973E+04  0.23152445973E+04  0.00000000000E+00 0.  1.
         -2   -1    0    0    0  501 -0.00000000000E+00 -0.00000000000E+00 -0.13759131316E+04  0.13759131316E+04  0.00000000000E+00 0. -1.
         23    2    1    2    0    0  0.34583427481E+03  0.15344465906E+04  0.13396105552E+04  0.20680893279E+04  0.91155599666E+02 0.  0.
         13    1    3    3    0    0  0.20478774504E+03  0.97740778996E+03  0.90388500069E+03  0.13469491835E+04  0.00000000000E+00 0. -1.
        -13    1    3    3    0    0  0.14104652977E+03  0.55703880068E+03  0.43572555446E+03  0.72114014438E+03  0.00000000000E+00 0.  1.
         22    1    1    2    0    0 -0.34583427481E+03 -0.15344465906E+04 -0.40027908943E+03  0.16230684011E+04  0.00000000000E+00 0. -1.
<mgrwt>
<rscale>  0 0.35696361E+04</rscale>
<asrwt>0</asrwt>
<pdfrwt beam="1">  1        2 0.35619148E+00 0.35696361E+04</pdfrwt>
<pdfrwt beam="2">  1       -2 0.21167894E+00 0.35696361E+04</pdfrwt>
<totfact> 0.40557262E-01</totfact>
</mgrwt>
</event>
<event>
 6    1  0.2436515E-005  0.4578502E+04  0.7818608E-02  0.7897036E-01
          2   -1    0    0  501    0  0.00000000000E+00  0.00000000000E+00  0.21943191278E+04  0.21943191278E+04  0.00000000000E+00 0.  1.
         -2   -1    0    0    0  501 -0.00000000000E+00 -0.00000000000E+00 -0.23882894437E+04  0.23882894437E+04  0.00000000000E+00 0. -1.
         23    2    1    2    0    0 -0.79226376721E+03 -0.10960718325E+04 -0.19446363164E+04  0.23703954750E+04  0.90049797964E+02 0.  0.
         13    1    3    3    0    0 -0.66186424205E+02 -0.14034305435E+03 -0.22175470587E+03  0.27065100264E+03  0.00000000000E+00 0. -1.
        -13    1    3    3    0    0 -0.72607734301E+03 -0.95572877818E+03 -0.17228816105E+04  0.20997444724E+04  0.00000000000E+00 0.  1.
         22    1    1    2    0    0  0.79226376721E+03  0.10960718325E+04  0.17506660005E+04  0.22122130964E+04  0.00000000000E+00 0.  1.
<mgrwt>
<rscale>  0 0.45785016E+04</rscale>
<asrwt>0</asrwt>
<pdfrwt beam="1">  1        2 0.33758756E+00 0.45785016E+04</pdfrwt>
<pdfrwt beam="2">  1       -2 0.36742914E+00 0.45785016E+04</pdfrwt>
<totfact> 0.47229091E-02</totfact>
</mgrwt>
</event>
<event>
 6    1  0.2436515E-005  0.6957187E+03  0.7818608E-02  0.9724582E-01
          4   -1    0    0  501    0  0.00000000000E+00  0.00000000000E+00  0.67049458128E+03  0.67049458128E+03  0.00000000000E+00 0.  1.
         -4   -1    0    0    0  501 -0.00000000000E+00 -0.00000000000E+00 -0.18047292415E+03  0.18047292415E+03  0.00000000000E+00 0. -1.
         23    2    1    2    0    0 -0.13625764665E+03  0.14079589873E+03 -0.92639212878E+02  0.23624535616E+03  0.94022407850E+02 0.  0.
         11    1    3    3    0    0 -0.50263639220E+02  0.11768557107E+03 -0.48409012702E+02  0.13682017241E+03  0.00000000000E+00 0.  1.
        -11    1    3    3    0    0 -0.85994007426E+02  0.23110327654E+02 -0.44230200175E+02  0.99425183756E+02  0.00000000000E+00 0. -1.
         22    1    1    2    0    0  0.13625764665E+03 -0.14079589873E+03  0.58266087000E+03  0.61472214927E+03  0.00000000000E+00 0.  1.
<mgrwt>
<rscale>  0 0.69571867E+03</rscale>
<asrwt>0</asrwt>
<pdfrwt beam="1">  1        4 0.10315301E+00 0.69571867E+03</pdfrwt>
<pdfrwt beam="2">  1       -4 0.27765066E-01 0.69571867E+03</pdfrwt>
<totfact> 0.18998892E+01</totfact>
</mgrwt>
</event>
<event>
 6    1  0.2436515E-005  0.3338284E+04  0.7818608E-02  0.8153222E-01
          2   -1    0    0  501    0  0.00000000000E+00  0.00000000000E+00  0.10625319385E+04  0.10625319385E+04  0.00000000000E+00 0.  1.
         -2   -1    0    0    0  501 -0.00000000000E+00 -0.00000000000E+00 -0.26220715192E+04  0.26220715192E+04  0.00000000000E+00 0. -1.
         23    2    1    2    0    0 -0.75937473029E+03  0.74944923770E+03 -0.21953476830E+04  0.24425985930E+04  0.91718572010E+02 0.  0.
         11    1    3    3    0    0 -0.59265532342E+02  0.42507283455E+02 -0.10891237323E+03  0.13107699079E+03  0.00000000000E+00 0.  1.
        -11    1    3    3    0    0 -0.70010919795E+03  0.70694195424E+03 -0.20864353098E+04  0.23115216022E+04  0.00000000000E+00 0. -1.
         22    1    1    2    0    0  0.75937473029E+03 -0.74944923770E+03  0.63580810230E+03  0.12420048647E+04  0.00000000000E+00 0.  1.
<mgrwt>
<rscale>  0 0.33382838E+04</rscale>
<asrwt>0</asrwt>
<pdfrwt beam="1">  1        2 0.16346645E+00 0.33382838E+04</pdfrwt>
<pdfrwt beam="2">  1       -2 0.40339562E+00 0.33382838E+04</pdfrwt>
<totfact> 0.13484564E-01</totfact>
</mgrwt>
</event>
<event>
 6    1  0.2436515E-005  0.2233719E+04  0.7818608E-02  0.8504523E-01
          2   -1    0    0  501    0  0.00000000000E+00  0.00000000000E+00  0.78917306764E+03  0.78917306764E+03  0.00000000000E+00 0.  1.
         -2   -1    0    0    0  501 -0.00000000000E+00 -0.00000000000E+00 -0.15806102669E+04  0.15806102669E+04  0.00000000000E+00 0. -1.
         23    2    1    2    0    0  0.40423271574E+03  0.35686793214E+03  0.63903636103E+03  0.84105398761E+03  0.90804900194E+02 0.  0.
         11    1    3    3    0    0  0.19575815474E+03  0.11320199108E+03  0.26532219577E+03  0.34861413268E+03  0.00000000000E+00 0.  1.
        -11    1    3    3    0    0  0.20847456099E+03  0.24366594106E+03  0.37371416526E+03  0.49243985494E+03  0.00000000000E+00 0. -1.
         22    1    1    2    0    0 -0.40423271574E+03 -0.35686793214E+03 -0.14304735603E+04  0.15287293469E+04  0.00000000000E+00 0. -1.
<mgrwt>
<rscale>  0 0.22337189E+04</rscale>
<asrwt>0</asrwt>
<pdfrwt beam="1">  1        2 0.12141124E+00 0.22337189E+04</pdfrwt>
<pdfrwt beam="2">  1       -2 0.24317081E+00 0.22337189E+04</pdfrwt>
<totfact> 0.22632095E+00</totfact>
</mgrwt>
</event>
<event>
 6    1  0.2436515E-005  0.3539750E+04  0.7818608E-02  0.8104434E-01
         -2   -1    0    0    0  501 -0.00000000000E+00  0.00000000000E+00  0.17636699506E+04  0.17636699506E+04  0.00000000000E+00 0. -1.
          2   -1    0    0  501    0  0.00000000000E+00 -0.00000000000E+00 -0.17761022911E+04  0.17761022911E+04  0.00000000000E+00 0.  1.
         23    2    1    2    0    0  0.17501522371E+04  0.23559076252E+03  0.89293746822E+02  0.17709070527E+04  0.97992630825E+02 0.  0.
         13    1    3    3    0    0  0.12815761258E+04  0.18120477056E+03  0.10794571332E+03  0.12988166969E+04  0.00000000000E+00 0. -1.
        -13    1    3    3    0    0  0.46857611122E+03  0.54385991959E+02 -0.18651966498E+02  0.47209035574E+03  0.00000000000E+00 0.  1.
         22    1    1    2    0    0 -0.17501522371E+04 -0.23559076252E+03 -0.10172608732E+03  0.17688651891E+04  0.00000000000E+00 0. -1.
<mgrwt>
<rscale>  0 0.35397504E+04</rscale>
<asrwt>0</asrwt>
<pdfrwt beam="1">  1        2 0.27324651E+00 0.35397504E+04</pdfrwt>
<pdfrwt beam="2">  1       -2 0.27133384E+00 0.35397504E+04</pdfrwt>
<totfact> 0.34660863E-01</totfact>
</mgrwt>
</event>
<event>
 6    1  0.2436515E-005  0.1421167E+04  0.7818608E-02  0.8938637E-01
         -1   -1    0    0    0  501 -0.00000000000E+00  0.00000000000E+00  0.41900392074E+03  0.41900392074E+03  0.00000000000E+00 0. -1.
          1   -1    0    0  501    0  0.00000000000E+00 -0.00000000000E+00 -0.12050702348E+04  0.12050702348E+04  0.00000000000E+00 0.  1.
         23    2    1    2    0    0 -0.69868059029E+03 -0.45876475643E+01 -0.26602137807E+03  0.75308486214E+03  0.90519733956E+02 0.  0.
         11    1    3    3    0    0 -0.15788692376E+03  0.48334050434E+01 -0.21185622597E+02  0.15937525876E+03  0.00000000000E+00 0. -1.
        -11    1    3    3    0    0 -0.54079366653E+03 -0.94210526077E+01 -0.24483575548E+03  0.59370960338E+03  0.00000000000E+00 0.  1.
         22    1    1    2    0    0  0.69868059029E+03  0.45876475643E+01 -0.52004493598E+03  0.87098929339E+03  0.00000000000E+00 0.  1.
<mgrwt>
<rscale>  0 0.14211673E+04</rscale>
<asrwt>0</asrwt>
<pdfrwt beam="1">  1        1 0.18539542E+00 0.14211673E+04</pdfrwt>
<pdfrwt beam="2">  1       -1 0.64462142E-01 0.14211673E+04</pdfrwt>
<totfact> 0.25167661E+01</totfact>
</mgrwt>
</event>
<event>
 6    1  0.2436515E-005  0.1274678E+04  0.7818608E-02  0.9049890E-01
          2   -1    0    0  501    0  0.00000000000E+00  0.00000000000E+00  0.98459177495E+03  0.98459177495E+03  0.00000000000E+00 0. -1.
         -2   -1    0    0    0  501 -0.00000000000E+00 -0.00000000000E+00 -0.41255799741E+03  0.41255799741E+03  0.00000000000E+00 0.  1.
         23    2    1    2    0    0 -0.55247282615E+03  0.44963825662E+02 -0.50243728279E+02  0.56379674783E+03  0.89968724500E+02 0.  0.
         11    1    3    3    0    0 -0.25234712838E+03  0.46546766720E+02  0.13551326113E+02  0.25696169585E+03  0.00000000000E+00 0. -1.
        -11    1    3    3    0    0 -0.30012569776E+03 -0.15829410580E+01 -0.63795054391E+02  0.30683505198E+03  0.00000000000E+00 0.  1.
         22    1    1    2    0    0  0.55247282615E+03 -0.44963825662E+02  0.62227750581E+03  0.83335302453E+03  0.00000000000E+00 0. -1.
<mgrwt>
<rscale>  0 0.12746783E+04</rscale>
<asrwt>0</asrwt>
<pdfrwt beam="1">  1        2 0.15147566E+00 0.12746783E+04</pdfrwt>
<pdfrwt beam="2">  1       -2 0.63470462E-01 0.12746783E+04</pdfrwt>
<totfact> 0.58153875E+01</totfact>
</mgrwt>
</event>
<event>
 6    1  0.2436515E-005  0.5120804E+04  0.7818608E-02  0.7810138E-01
         -2   -1    0    0    0  501 -0.00000000000E+00  0.00000000000E+00  0.22731330605E+04  0.22731330605E+04  0.00000000000E+00 0. -1.
          2   -1    0    0  501    0  0.00000000000E+00 -0.00000000000E+00 -0.28839748186E+04  0.28839748186E+04  0.00000000000E+00 0.  1.
         23    2    1    2    0    0  0.20506631864E+04  0.14440438162E+04 -0.82045411021E+03  0.26402806333E+04  0.86341348918E+02 0.  0.
         13    1    3    3    0    0  0.14155427769E+04  0.95275094173E+03 -0.53891644376E+03  0.17893928142E+04  0.00000000000E+00 0.  1.
        -13    1    3    3    0    0  0.63512040952E+03  0.49129287444E+03 -0.28153766645E+03  0.85088781910E+03  0.00000000000E+00 0. -1.
         22    1    1    2    0    0 -0.20506631864E+04 -0.14440438162E+04  0.20961235208E+03  0.25168272458E+04  0.00000000000E+00 0.  1.
<mgrwt>
<rscale>  0 0.51208040E+04</rscale>
<asrwt>0</asrwt>
<pdfrwt beam="1">  1        2 0.44368843E+00 0.51208040E+04</pdfrwt>
<pdfrwt beam="2">  1       -2 0.34971278E+00 0.51208040E+04</pdfrwt>
<totfact> 0.23148896E-02</totfact>
</mgrwt>
</event>
<event>
 6    1  0.2436515E-005  0.4562467E+04  0.7818608E-02  0.7899791E-01
         -2   -1    0    0    0  501 -0.00000000000E+00  0.00000000000E+00  0.12866519484E+04  0.12866519484E+04  0.00000000000E+00 0. -1.
          2   -1    0    0  501    0  0.00000000000E+00 -0.00000000000E+00 -0.40446261910E+04  0.40446261910E+04  0.00000000000E+00 0.  1.
         23    2    1    2    0    0  0.80517097133E+03 -0.57003910827E+03  0.10231685750E+04  0.14235568231E+04  0.79970104488E+02 0.  0.
         11    1    3    3    0    0  0.41806716319E+03 -0.25895786799E+03  0.54675096955E+03  0.73537470247E+03  0.00000000000E+00 0.  1.
        -11    1    3    3    0    0  0.38710380814E+03 -0.31108124028E+03  0.47641760550E+03  0.68818212063E+03  0.00000000000E+00 0. -1.
         22    1    1    2    0    0 -0.80517097133E+03  0.57003910827E+03 -0.37811428177E+04  0.39077213163E+04  0.00000000000E+00 0.  1.
<mgrwt>
<rscale>  0 0.45624670E+04</rscale>
<asrwt>0</asrwt>
<pdfrwt beam="1">  1        2 0.62225019E+00 0.45624670E+04</pdfrwt>
<pdfrwt beam="2">  1       -2 0.19794645E+00 0.45624670E+04</pdfrwt>
<totfact> 0.32393277E-02</totfact>
</mgrwt>
</event>
<event>
 6    1  0.2436515E-005  0.2347583E+04  0.7818608E-02  0.8459392E-01
         -2   -1    0    0    0  501 -0.00000000000E+00  0.00000000000E+00  0.20473291219E+04  0.20473291219E+04  0.00000000000E+00 0. -1.
          2   -1    0    0  501    0  0.00000000000E+00 -0.00000000000E+00 -0.67296795077E+03  0.67296795077E+03  0.00000000000E+00 0.  1.
         23    2    1    2    0    0 -0.55770197658E+03 -0.31572945083E+03 -0.44888217044E+03  0.78769963312E+03  0.90878645919E+02 0.  0.
         11    1    3    3    0    0 -0.40794274580E+03 -0.26272275483E+03 -0.30327785930E+03  0.57220449989E+03  0.00000000000E+00 0. -1.
        -11    1    3    3    0    0 -0.14975923078E+03 -0.53006696004E+02 -0.14560431114E+03  0.21549513323E+03  0.00000000000E+00 0.  1.
         22    1    1    2    0    0  0.55770197658E+03  0.31572945083E+03  0.18232433416E+04  0.19325974396E+04  0.00000000000E+00 0. -1.
<mgrwt>
<rscale>  0 0.23475833E+04</rscale>
<asrwt>0</asrwt>
<pdfrwt beam="1">  1        2 0.10353353E+00 0.23475833E+04</pdfrwt>
<pdfrwt beam="2">  1       -2 0.31497371E+00 0.23475833E+04</pdfrwt>
<totfact> 0.10005466E+00</totfact>
</mgrwt>
</event>
<event>
 6    1  0.2436515E-005  0.2763966E+04  0.7818608E-02  0.8314544E-01
          1   -1    0    0  501    0  0.00000000000E+00  0.00000000000E+00  0.12354918204E+04  0.12354918204E+04  0.00000000000E+00 0.  1.
         -1   -1    0    0    0  501 -0.00000000000E+00 -0.00000000000E+00 -0.15458435820E+04  0.15458435820E+04  0.00000000000E+00 0. -1.
         23    2    1    2    0    0  0.10112409542E+04 -0.54728077618E+03  0.61325382881E+03  0.13064890368E+04  0.93321108647E+02 0.  0.
         13    1    3    3    0    0  0.84955514859E+03 -0.49201125831E+03  0.50259141518E+03  0.11029130335E+04  0.00000000000E+00 0. -1.
        -13    1    3    3    0    0  0.16168580560E+03 -0.55269517864E+02  0.11066241363E+03  0.20357600332E+03  0.00000000000E+00 0.  1.
         22    1    1    2    0    0 -0.10112409542E+04  0.54728077618E+03 -0.92360559047E+03  0.14748463656E+04  0.00000000000E+00 0.  1.
<mgrwt>
<rscale>  0 0.27639661E+04</rscale>
<asrwt>0</asrwt>
<pdfrwt beam="1">  1        1 0.19007566E+00 0.27639661E+04</pdfrwt>
<pdfrwt beam="2">  1       -1 0.23782209E+00 0.27639661E+04</pdfrwt>
<totfact> 0.73257495E-01</totfact>
</mgrwt>
</event>
<event>
 6    1  0.2436515E-005  0.1771942E+04  0.7818608E-02  0.8721364E-01
         -2   -1    0    0    0  501 -0.00000000000E+00  0.00000000000E+00  0.20984138699E+03  0.20984138699E+03  0.00000000000E+00 0. -1.
          2   -1    0    0  501    0  0.00000000000E+00 -0.00000000000E+00 -0.37406558637E+04  0.37406558637E+04  0.00000000000E+00 0.  1.
         23    2    1    2    0    0 -0.29961408816E+03 -0.82898210899E+03 -0.19053034675E+04  0.21013715168E+04  0.92741626685E+02 0.  0.
         13    1    3    3    0    0 -0.26683560804E+03 -0.71594086978E+03 -0.17167873351E+04  0.18791304704E+04  0.00000000000E+00 0.  1.
        -13    1    3    3    0    0 -0.32778480121E+02 -0.11304123920E+03 -0.18851613240E+03  0.22224104637E+03  0.00000000000E+00 0. -1.
         22    1    1    2    0    0  0.29961408816E+03  0.82898210899E+03 -0.16255110092E+04  0.18491257339E+04  0.00000000000E+00 0.  1.
<mgrwt>
<rscale>  0 0.17719418E+04</rscale>
<asrwt>0</asrwt>
<pdfrwt beam="1">  1        2 0.57548551E+00 0.17719418E+04</pdfrwt>
<pdfrwt beam="2">  1       -2 0.32283291E-01 0.17719418E+04</pdfrwt>
<totfact> 0.46562296E+00</totfact>
</mgrwt>
</event>
<event>
 6    1  0.2436515E-005  0.1325637E+04  0.7818608E-02  0.9009478E-01
         -2   -1    0    0    0  501 -0.00000000000E+00  0.00000000000E+00  0.54294029989E+03  0.54294029989E+03  0.00000000000E+00 0. -1.
          2   -1    0    0  501    0  0.00000000000E+00 -0.00000000000E+00 -0.80916535264E+03  0.80916535264E+03  0.00000000000E+00 0.  1.
         23    2    1    2    0    0 -0.27533104865E+02 -0.54488786114E+03  0.24457993542E+03  0.60472182274E+03  0.90599586153E+02 0.  0.
         13    1    3    3    0    0 -0.21087749755E+02 -0.30394232328E+03  0.87371992686E+02  0.31695345743E+03  0.00000000000E+00 0. -1.
        -13    1    3    3    0    0 -0.64453551099E+01 -0.24094553786E+03  0.15720794273E+03  0.28776836531E+03  0.00000000000E+00 0.  1.
         22    1    1    2    0    0  0.27533104865E+02  0.54488786114E+03 -0.51080498817E+03  0.74738382978E+03  0.00000000000E+00 0.  1.
<mgrwt>
<rscale>  0 0.13256372E+04</rscale>
<asrwt>0</asrwt>
<pdfrwt beam="1">  1        2 0.12448698E+00 0.13256372E+04</pdfrwt>
<pdfrwt beam="2">  1       -2 0.83529276E-01 0.13256372E+04</pdfrwt>
<totfact> 0.41632526E+01</totfact>
</mgrwt>
</event>
<event>
 6    1  0.2436515E-005  0.3749963E+04  0.7818608E-02  0.8056979E-01
          2   -1    0    0  501    0  0.00000000000E+00  0.00000000000E+00  0.10365206340E+04  0.10365206340E+04  0.00000000000E+00 0.  1.
         -2   -1    0    0    0  501 -0.00000000000E+00 -0.00000000000E+00 -0.33916881426E+04  0.33916881426E+04  0.00000000000E+00 0. -1.
         23    2    1    2    0    0  0.80087241658E+03  0.15246429771E+04 -0.30603582421E+03  0.17514806442E+04  0.89964914696E+02 0.  0.
         11    1    3    3    0    0  0.61362922514E+03  0.11584349406E+04 -0.19403044741E+03  0.13252019288E+04  0.00000000000E+00 0. -1.
        -11    1    3    3    0    0  0.18724319144E+03  0.36620803659E+03 -0.11200537680E+03  0.42627871544E+03  0.00000000000E+00 0.  1.
         22    1    1    2    0    0 -0.80087241658E+03 -0.15246429771E+04 -0.20491316844E+04  0.26767281325E+04  0.00000000000E+00 0. -1.
<mgrwt>
<rscale>  0 0.37499625E+04</rscale>
<asrwt>0</asrwt>
<pdfrwt beam="1">  1        2 0.15946471E+00 0.37499625E+04</pdfrwt>
<pdfrwt beam="2">  1       -2 0.52179817E+00 0.37499625E+04</pdfrwt>
<totfact> 0.23430147E-02</totfact>
</mgrwt>
</event>
<event>
 6    1  0.2436515E-005  0.1200554E+04  0.7818608E-02  0.9112372E-01
         -2   -1    0    0    0  501 -0.00000000000E+00  0.00000000000E+00  0.98095003462E+02  0.98095003462E+02  0.00000000000E+00 0. -1.
          2   -1    0    0  501    0  0.00000000000E+00 -0.00000000000E+00 -0.36732997925E+04  0.36732997925E+04  0.00000000000E+00 0.  1.
         23    2    1    2    0    0  0.46713722435E+03  0.33417435854E+03 -0.23067848355E+04  0.23789943985E+04  0.92023815358E+02 0.  0.
         11    1    3    3    0    0  0.74845837433E+02  0.97977729098E+02 -0.53002119109E+03  0.54417276464E+03  0.00000000000E+00 0.  1.
        -11    1    3    3    0    0  0.39229138691E+03  0.23619662945E+03 -0.17767636444E+04  0.18348216339E+04  0.00000000000E+00 0. -1.
         22    1    1    2    0    0 -0.46713722435E+03 -0.33417435854E+03 -0.12684199535E+04  0.13924003974E+04  0.00000000000E+00 0.  1.
<mgrwt>
<rscale>  0 0.12005538E+04</rscale>
<asrwt>0</asrwt>
<pdfrwt beam="1">  1        2 0.56512298E+00 0.12005538E+04</pdfrwt>
<pdfrwt beam="2">  1       -2 0.15091541E-01 0.12005538E+04</pdfrwt>
<totfact> 0.21589131E+01</totfact>
</mgrwt>
</event>
<event>
 6    1  0.2436515E-005  0.9630229E+03  0.7818608E-02  0.9350057E-01
         -2   -1    0    0    0  501 -0.00000000000E+00  0.00000000000E+00  0.81045441938E+02  0.81045441938E+02  0.00000000000E+00 0.  1.
          2   -1    0    0  501    0  0.00000000000E+00 -0.00000000000E+00 -0.28607812364E+04  0.28607812364E+04  0.00000000000E+00 0. -1.
         23    2    1    2    0    0  0.17209004013E+03 -0.41694941223E+03 -0.18713700583E+04  0.19276323652E+04  0.10138464266E+03 0.  0.
         13    1    3    3    0    0  0.13030090518E+03 -0.28570399991E+03 -0.10948681042E+04  0.11390088968E+04  0.00000000000E+00 0. -1.
        -13    1    3    3    0    0  0.41789134956E+02 -0.13124541233E+03 -0.77650195416E+03  0.78862346837E+03  0.00000000000E+00 0.  1.
         22    1    1    2    0    0 -0.17209004013E+03  0.41694941223E+03 -0.90836573609E+03  0.10141943131E+04  0.00000000000E+00 0.  1.
<mgrwt>
<rscale>  0 0.96302291E+03</rscale>
<asrwt>0</asrwt>
<pdfrwt beam="1">  1        2 0.44012012E+00 0.96302291E+03</pdfrwt>
<pdfrwt beam="2">  1       -2 0.12468532E-01 0.96302291E+03</pdfrwt>
<totfact> 0.10405460E+02</totfact>
</mgrwt>
</event>
<event>
 6    1  0.2436515E-005  0.1127658E+04  0.7818608E-02  0.9178646E-01
          2   -1    0    0  501    0  0.00000000000E+00  0.00000000000E+00  0.84094689326E+03  0.84094689326E+03  0.00000000000E+00 0.  1.
         -2   -1    0    0    0  501 -0.00000000000E+00 -0.00000000000E+00 -0.37802996933E+03  0.37802996933E+03  0.00000000000E+00 0. -1.
         23    2    1    2    0    0 -0.10657376611E+03 -0.53577132905E+03  0.10308017933E+03  0.56484280338E+03  0.10006490142E+03 0.  0.
         11    1    3    3    0    0 -0.10664512709E+03 -0.34125681906E+03  0.96013598645E+02  0.37019996057E+03  0.00000000000E+00 0.  1.
        -11    1    3    3    0    0  0.71360975003E-01 -0.19451451000E+03  0.70665806835E+01  0.19464284280E+03  0.00000000000E+00 0. -1.
         22    1    1    2    0    0  0.10657376611E+03  0.53577132905E+03  0.35983674461E+03  0.65413405922E+03  0.00000000000E+00 0.  1.
<mgrwt>
<rscale>  0 0.11276580E+04</rscale>
<asrwt>0</asrwt>
<pdfrwt beam="1">  1        2 0.12937644E+00 0.11276580E+04</pdfrwt>
<pdfrwt beam="2">  1       -2 0.58158457E-01 0.11276580E+04</pdfrwt>
<totfact> 0.88323743E+01</totfact>
</mgrwt>
</event>
<event>
 6    1  0.2436515E-005  0.3224289E+04  0.7818608E-02  0.8182432E-01
         -2   -1    0    0    0  501 -0.00000000000E+00  0.00000000000E+00  0.78282914379E+03  0.78282914379E+03  0.00000000000E+00 0. -1.
          2   -1    0    0  501    0  0.00000000000E+00 -0.00000000000E+00 -0.33200228933E+04  0.33200228933E+04  0.00000000000E+00 0.  1.
         23    2    1    2    0    0 -0.10661151551E+04 -0.29085809096E+03  0.22140927582E+03  0.11311369423E+04  0.96170483523E+02 0.  0.
         13    1    3    3    0    0 -0.21702898882E+03 -0.20702099861E+02  0.34731573061E+02  0.22076331464E+03  0.00000000000E+00 0. -1.
        -13    1    3    3    0    0 -0.84908616629E+03 -0.27015599110E+03  0.18667770276E+03  0.91037362770E+03  0.00000000000E+00 0.  1.
         22    1    1    2    0    0  0.10661151551E+04  0.29085809096E+03 -0.27586030253E+04  0.29717150948E+04  0.00000000000E+00 0.  1.
<mgrwt>
<rscale>  0 0.32242895E+04</rscale>
<asrwt>0</asrwt>
<pdfrwt beam="1">  1        2 0.51077275E+00 0.32242895E+04</pdfrwt>
<pdfrwt beam="2">  1       -2 0.12043525E+00 0.32242895E+04</pdfrwt>
<totfact> 0.47709403E-01</totfact>
</mgrwt>
</event>
<event>
 6    1  0.2436515E-005  0.2224372E+04  0.7818608E-02  0.8508352E-01
         -2   -1    0    0    0  501 -0.00000000000E+00  0.00000000000E+00  0.49027603737E+03  0.49027603737E+03  0.00000000000E+00 0. -1.
          2   -1    0    0  501    0  0.00000000000E+00 -0.00000000000E+00 -0.25229827594E+04  0.25229827594E+04  0.00000000000E+00 0.  1.
         23    2    1    2    0    0 -0.52981536208E+03 -0.52466528698E+03 -0.21325142639E+04  0.22609692736E+04  0.91580506719E+02 0.  0.
         13    1    3    3    0    0 -0.16486120093E+03 -0.22492402885E+03 -0.77378351166E+03  0.82250286154E+03  0.00000000000E+00 0.  1.
        -13    1    3    3    0    0 -0.36495416115E+03 -0.29974125813E+03 -0.13587307522E+04  0.14384664120E+04  0.00000000000E+00 0. -1.
         22    1    1    2    0    0  0.52981536208E+03  0.52466528698E+03  0.99807541868E+02  0.75228952317E+03  0.00000000000E+00 0. -1.
<mgrwt>
<rscale>  0 0.22243723E+04</rscale>
<asrwt>0</asrwt>
<pdfrwt beam="1">  1        2 0.38815119E+00 0.22243723E+04</pdfrwt>
<pdfrwt beam="2">  1       -2 0.75427083E-01 0.22243723E+04</pdfrwt>
<totfact> 0.48559714E+00</totfact>
</mgrwt>
</event>
<event>
 6    1  0.2436515E-005  0.3263314E+04  0.7818608E-02  0.8172293E-01
          2   -1    0    0  501    0  0.00000000000E+00  0.00000000000E+00  0.17381240800E+04  0.17381240800E+04  0.00000000000E+00 0.  1.
         -2   -1    0    0    0  501 -0.00000000000E+00 -0.00000000000E+00 -0.15317113126E+04  0.15317113126E+04  0.00000000000E+00 0. -1.
         23    2    1    2    0    0  0.35331747648E+03  0.76932205046E+03 -0.12928841711E+04  0.15480395375E+04  0.90483552361E+02 0.  0.
         13    1    3    3    0    0  0.31430160239E+03  0.65654708724E+03 -0.11597150790E+04  0.13692255619E+04  0.00000000000E+00 0.  1.
        -13    1    3    3    0    0  0.39015874086E+02  0.11277496322E+03 -0.13316909213E+03  0.17881397557E+03  0.00000000000E+00 0. -1.
         22    1    1    2    0    0 -0.35331747648E+03 -0.76932205046E+03  0.14992969386E+04  0.17217958551E+04  0.00000000000E+00 0.  1.
<mgrwt>
<rscale>  0 0.32633138E+04</rscale>
<asrwt>0</asrwt>
<pdfrwt beam="1">  1        2 0.26740370E+00 0.32633138E+04</pdfrwt>
<pdfrwt beam="2">  1       -2 0.23564789E+00 0.32633138E+04</pdfrwt>
<totfact> 0.61679532E-01</totfact>
</mgrwt>
</event>
<event>
 6    1  0.2436515E-005  0.1214669E+04  0.7818608E-02  0.9100113E-01
          2   -1    0    0  501    0  0.00000000000E+00  0.00000000000E+00  0.28805794207E+03  0.28805794207E+03  0.00000000000E+00 0.  1.
         -2   -1    0    0    0  501 -0.00000000000E+00 -0.00000000000E+00 -0.12804894285E+04  0.12804894285E+04  0.00000000000E+00 0. -1.
         23    2    1    2    0    0  0.32453840557E+02 -0.45164975459E+02 -0.12754870303E+04  0.12800797508E+04  0.92972454923E+02 0.  0.
         13    1    3    3    0    0  0.49463128904E+02 -0.54869067876E+01 -0.99936583617E+03  0.10006042084E+04  0.00000000000E+00 0. -1.
        -13    1    3    3    0    0 -0.17009288347E+02 -0.39678068672E+02 -0.27612119409E+03  0.27947554249E+03  0.00000000000E+00 0.  1.
         22    1    1    2    0    0 -0.32453840557E+02  0.45164975459E+02  0.28305554380E+03  0.28846761976E+03  0.00000000000E+00 0.  1.
<mgrwt>
<rscale>  0 0.12146689E+04</rscale>
<asrwt>0</asrwt>
<pdfrwt beam="1">  1        2 0.44316606E-01 0.12146689E+04</pdfrwt>
<pdfrwt beam="2">  1       -2 0.19699838E+00 0.12146689E+04</pdfrwt>
<totfact> 0.15753647E+01</totfact>
</mgrwt>
</event>
<event>
 6    1  0.2436515E-005  0.2946777E+04  0.7818608E-02  0.8259094E-01
          2   -1    0    0  501    0  0.00000000000E+00  0.00000000000E+00  0.33957969465E+04  0.33957969465E+04  0.00000000000E+00 0.  1.
         -2   -1    0    0    0  501 -0.00000000000E+00 -0.00000000000E+00 -0.63928253125E+03  0.63928253125E+03  0.00000000000E+00 0. -1.
         23    2    1    2    0    0 -0.37109334276E+03 -0.11244880160E+04  0.25767333751E+04  0.28373713374E+04  0.94539159258E+02 0.  0.
         11    1    3    3    0    0 -0.19673283767E+03 -0.59680661757E+03  0.12542221460E+04  0.14028382443E+04  0.00000000000E+00 0. -1.
        -11    1    3    3    0    0 -0.17436050509E+03 -0.52768139840E+03  0.13225112292E+04  0.14345330931E+04  0.00000000000E+00 0.  1.
         22    1    1    2    0    0  0.37109334276E+03  0.11244880160E+04  0.17978104013E+03  0.11977081404E+04  0.00000000000E+00 0.  1.
<mgrwt>
<rscale>  0 0.29467770E+04</rscale>
<asrwt>0</asrwt>
<pdfrwt beam="1">  1        2 0.52243029E+00 0.29467770E+04</pdfrwt>
<pdfrwt beam="2">  1       -2 0.98351161E-01 0.29467770E+04</pdfrwt>
<totfact> 0.70842722E-01</totfact>
</mgrwt>
</event>
<event>
 6    1  0.2436515E-005  0.2355285E+04  0.7818608E-02  0.8456436E-01
         -2   -1    0    0    0  501 -0.00000000000E+00  0.00000000000E+00  0.82212804108E+03  0.82212804108E+03  0.00000000000E+00 0. -1.
          2   -1    0    0  501    0  0.00000000000E+00 -0.00000000000E+00 -0.16868927238E+04  0.16868927238E+04  0.00000000000E+00 0.  1.
         23    2    1    2    0    0  0.28931280512E+03 -0.88370855439E+02 -0.16435355309E+04  0.16735596100E+04  0.89896715581E+02 0.  0.
         11    1    3    3    0    0  0.17678658400E+03 -0.25911992558E+02 -0.76129562701E+03  0.78198207098E+03  0.00000000000E+00 0. -1.
        -11    1    3    3    0    0  0.11252622113E+03 -0.62458862880E+02 -0.88223990389E+03  0.89157753898E+03  0.00000000000E+00 0.  1.
         22    1    1    2    0    0 -0.28931280512E+03  0.88370855439E+02  0.77877084822E+03  0.83546115489E+03  0.00000000000E+00 0. -1.
<mgrwt>
<rscale>  0 0.23552850E+04</rscale>
<asrwt>0</asrwt>
<pdfrwt beam="1">  1        2 0.25952195E+00 0.23552850E+04</pdfrwt>
<pdfrwt beam="2">  1       -2 0.12648124E+00 0.23552850E+04</pdfrwt>
<totfact> 0.41903674E+00</totfact>
</mgrwt>
</event>
<event>
 6    1  0.2436515E-005  0.3926365E+04  0.7818608E-02  0.8019568E-01
         -1   -1    0    0    0  501 -0.00000000000E+00  0.00000000000E+00  0.14625791928E+04  0.14625791928E+04  0.00000000000E+00 0. -1.
          1   -1    0    0  501    0  0.00000000000E+00 -0.00000000000E+00 -0.26351296721E+04  0.26351296721E+04  0.00000000000E+00 0.  1.
         23    2    1    2    0    0 -0.31286769473E+03 -0.61286298376E+03 -0.25042648348E+04  0.25987257577E+04  0.92444413514E+02 0.  0.
         13    1    3    3    0    0 -0.79790225557E+02 -0.25123323010E+03 -0.90625302884E+03  0.94381098122E+03  0.00000000000E+00 0. -1.
        -13    1    3    3    0    0 -0.23307746917E+03 -0.36162975367E+03 -0.15980118059E+04  0.16549147764E+04  0.00000000000E+00 0.  1.
         22    1    1    2    0    0  0.31286769473E+03  0.61286298376E+03  0.13317143555E+04  0.14989831073E+04  0.00000000000E+00 0. -1.
<mgrwt>
<rscale>  0 0.39263652E+04</rscale>
<asrwt>0</asrwt>
<pdfrwt beam="1">  1        1 0.40540456E+00 0.39263652E+04</pdfrwt>
<pdfrwt beam="2">  1       -1 0.22501218E+00 0.39263652E+04</pdfrwt>
<totfact> 0.87447381E-02</totfact>
</mgrwt>
</event>
<event>
 6    1  0.2436515E-005  0.2109138E+04  0.7818608E-02  0.8557229E-01
         -2   -1    0    0    0  501 -0.00000000000E+00  0.00000000000E+00  0.68760767753E+03  0.68760767753E+03  0.00000000000E+00 0. -1.
          2   -1    0    0  501    0  0.00000000000E+00 -0.00000000000E+00 -0.16173694796E+04  0.16173694796E+04  0.00000000000E+00 0.  1.
         23    2    1    2    0    0 -0.28971449482E+03 -0.62750948059E+02 -0.15694886381E+04  0.15999079443E+04  0.92404952893E+02 0.  0.
         11    1    3    3    0    0 -0.21854196518E+03 -0.11749390024E+02 -0.99503185584E+03  0.10188164863E+04  0.00000000000E+00 0. -1.
        -11    1    3    3    0    0 -0.71172529638E+02 -0.51001558034E+02 -0.57445678224E+03  0.58109145800E+03  0.00000000000E+00 0.  1.
         22    1    1    2    0    0  0.28971449482E+03  0.62750948059E+02  0.63972683605E+03  0.70506921274E+03  0.00000000000E+00 0. -1.
<mgrwt>
<rscale>  0 0.21091379E+04</rscale>
<asrwt>0</asrwt>
<pdfrwt beam="1">  1        2 0.24882607E+00 0.21091379E+04</pdfrwt>
<pdfrwt beam="2">  1       -2 0.10578580E+00 0.21091379E+04</pdfrwt>
<totfact> 0.72513016E+00</totfact>
</mgrwt>
</event>
<event>
 6    1  0.2436515E-005  0.3136385E+04  0.7818608E-02  0.8205823E-01
          2   -1    0    0  501    0  0.00000000000E+00  0.00000000000E+00  0.23962290775E+04  0.23962290775E+04  0.00000000000E+00 0.  1.
         -2   -1    0    0    0  501 -0.00000000000E+00 -0.00000000000E+00 -0.10262906483E+04  0.10262906483E+04  0.00000000000E+00 0. -1.
         23    2    1    2    0    0 -0.13096350732E+04 -0.80518557690E+03  0.10158327246E+04  0.18449080219E+04  0.91113373527E+02 0.  0.
         11    1    3    3    0    0 -0.84199169162E+03 -0.47296530793E+03  0.61065176735E+03  0.11426030685E+04  0.00000000000E+00 0. -1.
        -11    1    3    3    0    0 -0.46764338157E+03 -0.33222026897E+03  0.40518095728E+03  0.70230495340E+03  0.00000000000E+00 0.  1.
         22    1    1    2    0    0  0.13096350732E+04  0.80518557690E+03  0.35410570452E+03  0.15776117039E+04  0.00000000000E+00 0. -1.
<mgrwt>
<rscale>  0 0.31363849E+04</rscale>
<asrwt>0</asrwt>
<pdfrwt beam="1">  1        2 0.36865063E+00 0.31363849E+04</pdfrwt>
<pdfrwt beam="2">  1       -2 0.15789087E+00 0.31363849E+04</pdfrwt>
<totfact> 0.88308589E-01</totfact>
</mgrwt>
</event>
<event>
 6    1  0.2436515E-005  0.1080327E+04  0.7818608E-02  0.9224581E-01
          2   -1    0    0  501    0  0.00000000000E+00  0.00000000000E+00  0.91682539579E+03  0.91682539579E+03  0.00000000000E+00 0.  1.
         -2   -1    0    0    0  501 -0.00000000000E+00 -0.00000000000E+00 -0.31824684890E+03  0.31824684890E+03  0.00000000000E+00 0. -1.
         23    2    1    2    0    0 -0.43613345956E+03  0.19571383716E+03  0.57933354029E+03  0.75665122626E+03  0.91528283559E+02 0.  0.
         11    1    3    3    0    0 -0.16552016072E+03  0.11988978776E+03  0.21684040040E+03  0.29797691866E+03  0.00000000000E+00 0.  1.
        -11    1    3    3    0    0 -0.27061329884E+03  0.75824049400E+02  0.36249313990E+03  0.45867430759E+03  0.00000000000E+00 0. -1.
         22    1    1    2    0    0  0.43613345956E+03 -0.19571383716E+03  0.19245006591E+02  0.47842101843E+03  0.00000000000E+00 0. -1.
<mgrwt>
<rscale>  0 0.10803273E+04</rscale>
<asrwt>0</asrwt>
<pdfrwt beam="1">  1        2 0.14105006E+00 0.10803273E+04</pdfrwt>
<pdfrwt beam="2">  1       -2 0.48961054E-01 0.10803273E+04</pdfrwt>
<totfact> 0.11212983E+02</totfact>
</mgrwt>
</event>
<event>
 6    1  0.2436515E-005  0.7831824E+03  0.7818608E-02  0.9584684E-01
         -2   -1    0    0    0  501 -0.00000000000E+00  0.00000000000E+00  0.14785109358E+03  0.14785109358E+03  0.00000000000E+00 0. -1.
          2   -1    0    0  501    0  0.00000000000E+00 -0.00000000000E+00 -0.10371494394E+04  0.10371494394E+04  0.00000000000E+00 0.  1.
         23    2    1    2    0    0 -0.32478522888E+03 -0.77204116064E+02 -0.15684760783E+03  0.38005953885E+03  0.91641478354E+02 0.  0.
         13    1    3    3    0    0 -0.31921777056E+02  0.12852548075E+02  0.28718697948E+01  0.34531659076E+02  0.00000000000E+00 0. -1.
        -13    1    3    3    0    0 -0.29286345182E+03 -0.90056664139E+02 -0.15971947763E+03  0.34552787978E+03  0.00000000000E+00 0.  1.
         22    1    1    2    0    0  0.32478522888E+03  0.77204116064E+02 -0.73245073795E+03  0.80494099409E+03  0.00000000000E+00 0.  1.
<mgrwt>
<rscale>  0 0.78318243E+03</rscale>
<asrwt>0</asrwt>
<pdfrwt beam="1">  1        2 0.15956145E+00 0.78318243E+03</pdfrwt>
<pdfrwt beam="2">  1       -2 0.22746322E-01 0.78318243E+03</pdfrwt>
<totfact> 0.40737959E+02</totfact>
</mgrwt>
</event>
<event>
 6    1  0.2436515E-005  0.4494945E+04  0.7818608E-02  0.7911522E-01
          2   -1    0    0  501    0  0.00000000000E+00  0.00000000000E+00  0.19594043193E+04  0.19594043193E+04  0.00000000000E+00 0.  1.
         -2   -1    0    0    0  501 -0.00000000000E+00 -0.00000000000E+00 -0.25778925157E+04  0.25778925157E+04  0.00000000000E+00 0. -1.
         23    2    1    2    0    0  0.37069440357E+03  0.20951796124E+04  0.41847092842E+03  0.21703417919E+04  0.89853362877E+02 0.  0.
         11    1    3    3    0    0  0.15138283821E+03  0.69974700519E+03  0.10757263425E+03  0.72397134378E+03  0.00000000000E+00 0.  1.
        -11    1    3    3    0    0  0.21931156535E+03  0.13954326072E+04  0.31089829417E+03  0.14463704481E+04  0.00000000000E+00 0. -1.
         22    1    1    2    0    0 -0.37069440357E+03 -0.20951796124E+04 -0.10369591248E+04  0.23669550430E+04  0.00000000000E+00 0. -1.
<mgrwt>
<rscale>  0 0.44949455E+04</rscale>
<asrwt>0</asrwt>
<pdfrwt beam="1">  1        2 0.30144682E+00 0.44949455E+04</pdfrwt>
<pdfrwt beam="2">  1       -2 0.39659885E+00 0.44949455E+04</pdfrwt>
<totfact> 0.41679989E-02</totfact>
</mgrwt>
</event>
<event>
 6    1  0.2436515E-005  0.2146087E+04  0.7818608E-02  0.8541209E-01
         -1   -1    0    0    0  501 -0.00000000000E+00  0.00000000000E+00  0.10279718522E+04  0.10279718522E+04  0.00000000000E+00 0. -1.
          1   -1    0    0  501    0  0.00000000000E+00 -0.00000000000E+00 -0.11200911632E+04  0.11200911632E+04  0.00000000000E+00 0.  1.
         23    2    1    2    0    0 -0.20046166985E+03  0.60706572447E+03  0.81400440155E+03  0.10391113224E+04  0.91844976928E+02 0.  0.
         11    1    3    3    0    0 -0.12847960419E+03  0.43800733675E+03  0.51511371553E+03  0.68825836403E+03  0.00000000000E+00 0. -1.
        -11    1    3    3    0    0 -0.71982065658E+02  0.16905838773E+03  0.29889068602E+03  0.35085295841E+03  0.00000000000E+00 0.  1.
         22    1    1    2    0    0  0.20046166985E+03 -0.60706572447E+03 -0.90612371250E+03  0.11089516929E+04  0.00000000000E+00 0.  1.
<mgrwt>
<rscale>  0 0.21460868E+04</rscale>
<asrwt>0</asrwt>
<pdfrwt beam="1">  1        1 0.17232172E+00 0.21460868E+04</pdfrwt>
<pdfrwt beam="2">  1       -1 0.15814952E+00 0.21460868E+04</pdfrwt>
<totfact> 0.33862655E+00</totfact>
</mgrwt>
</event>
<event>
 6    1  0.2436515E-005  0.7964776E+03  0.7818608E-02  0.9565130E-01
         -2   -1    0    0    0  501 -0.00000000000E+00  0.00000000000E+00  0.12624586964E+03  0.12624586964E+03  0.00000000000E+00 0. -1.
          2   -1    0    0  501    0  0.00000000000E+00 -0.00000000000E+00 -0.12562323255E+04  0.12562323255E+04  0.00000000000E+00 0.  1.
         23    2    1    2    0    0  0.48887054868E+02  0.33339174670E+03 -0.22135675602E+03  0.41338174363E+03  0.91354538100E+02 0.  0.
         13    1    3    3    0    0  0.60247188737E+02  0.11540070525E+03 -0.70567018179E+02  0.14807684011E+03  0.00000000000E+00 0.  1.
        -13    1    3    3    0    0 -0.11360133868E+02  0.21799104145E+03 -0.15078973784E+03  0.26530490351E+03  0.00000000000E+00 0. -1.
         22    1    1    2    0    0 -0.48887054868E+02 -0.33339174670E+03 -0.90862969981E+03  0.96909645148E+03  0.00000000000E+00 0.  1.
<mgrwt>
<rscale>  0 0.79647760E+03</rscale>
<asrwt>0</asrwt>
<pdfrwt beam="1">  1        2 0.19326651E+00 0.79647760E+03</pdfrwt>
<pdfrwt beam="2">  1       -2 0.19422442E-01 0.79647760E+03</pdfrwt>
<totfact> 0.39662109E+02</totfact>
</mgrwt>
</event>
<event>
 6    1  0.2436515E-005  0.6110976E+03  0.7818608E-02  0.9882646E-01
         -2   -1    0    0    0  501 -0.00000000000E+00  0.00000000000E+00  0.99471117343E+02  0.99471117343E+02  0.00000000000E+00 0. -1.
          2   -1    0    0  501    0  0.00000000000E+00 -0.00000000000E+00 -0.93856461104E+03  0.93856461104E+03  0.00000000000E+00 0.  1.
         23    2    1    2    0    0  0.62114623547E+02 -0.29143720811E+03 -0.45783419584E+03  0.55414263592E+03  0.93102295016E+02 0.  0.
         13    1    3    3    0    0  0.13612567740E+02 -0.13173678745E+03 -0.28287125924E+03  0.31233961080E+03  0.00000000000E+00 0. -1.
        -13    1    3    3    0    0  0.48502055808E+02 -0.15970042066E+03 -0.17496293660E+03  0.24180302512E+03  0.00000000000E+00 0.  1.
         22    1    1    2    0    0 -0.62114623547E+02  0.29143720811E+03 -0.38125929785E+03  0.48389309246E+03  0.00000000000E+00 0. -1.
<mgrwt>
<rscale>  0 0.61109760E+03</rscale>
<asrwt>0</asrwt>
<pdfrwt beam="1">  1        2 0.14439455E+00 0.61109760E+03</pdfrwt>
<pdfrwt beam="2">  1       -2 0.15303249E-01 0.61109760E+03</pdfrwt>
<totfact> 0.94225438E+02</totfact>
</mgrwt>
</event>
<event>
 6    1  0.2436515E-005  0.1646652E+04  0.7818608E-02  0.8792390E-01
         -2   -1    0    0    0  501 -0.00000000000E+00  0.00000000000E+00  0.36000685497E+03  0.36000685497E+03  0.00000000000E+00 0. -1.
          2   -1    0    0  501    0  0.00000000000E+00 -0.00000000000E+00 -0.18829237941E+04  0.18829237941E+04  0.00000000000E+00 0.  1.
         23    2    1    2    0    0 -0.56206965370E+03  0.47717251515E+02 -0.15764372748E+04  0.16763058543E+04  0.81532841312E+02 0.  0.
         11    1    3    3    0    0 -0.25818576794E+03  0.32693158778E+02 -0.84323558983E+03  0.88248229067E+03  0.00000000000E+00 0.  1.
        -11    1    3    3    0    0 -0.30388388577E+03  0.15024092737E+02 -0.73320168496E+03  0.79382356366E+03  0.00000000000E+00 0. -1.
         22    1    1    2    0    0  0.56206965370E+03 -0.47717251515E+02  0.53520335643E+02  0.56662479476E+03  0.00000000000E+00 0. -1.
<mgrwt>
<rscale>  0 0.16466517E+04</rscale>
<asrwt>0</asrwt>
<pdfrwt beam="1">  1        2 0.28968059E+00 0.16466517E+04</pdfrwt>
<pdfrwt beam="2">  1       -2 0.55385670E-01 0.16466517E+04</pdfrwt>
<totfact> 0.22722050E+01</totfact>
</mgrwt>
</event>
<event>
 6    1  0.2436515E-005  0.4583096E+04  0.7818608E-02  0.7896249E-01
         -2   -1    0    0    0  501 -0.00000000000E+00  0.00000000000E+00  0.12398081095E+04  0.12398081095E+04  0.00000000000E+00 0. -1.
          2   -1    0    0  501    0  0.00000000000E+00 -0.00000000000E+00 -0.42354871548E+04  0.42354871548E+04  0.00000000000E+00 0.  1.
         23    2    1    2    0    0 -0.18950270559E+04 -0.74284699092E+03 -0.24306407655E+03  0.20518703184E+04  0.90235602073E+02 0.  0.
         13    1    3    3    0    0 -0.10692519883E+04 -0.44075110312E+03 -0.17825457012E+03  0.11701863275E+04  0.00000000000E+00 0. -1.
        -13    1    3    3    0    0 -0.82577506757E+03 -0.30209588780E+03 -0.64809506430E+02  0.88168399088E+03  0.00000000000E+00 0.  1.
         22    1    1    2    0    0  0.18950270559E+04  0.74284699092E+03 -0.27526149687E+04  0.34234249459E+04  0.00000000000E+00 0.  1.
<mgrwt>
<rscale>  0 0.45830956E+04</rscale>
<asrwt>0</asrwt>
<pdfrwt beam="1">  1        2 0.65161340E+00 0.45830956E+04</pdfrwt>
<pdfrwt beam="2">  1       -2 0.19073971E+00 0.45830956E+04</pdfrwt>
<totfact> 0.24818118E-02</totfact>
</mgrwt>
</event>
<event>
 6    1  0.2436515E-005  0.3129451E+04  0.7818608E-02  0.8207701E-01
         -2   -1    0    0    0  501 -0.00000000000E+00  0.00000000000E+00  0.82677517905E+03  0.82677517905E+03  0.00000000000E+00 0. -1.
          2   -1    0    0  501    0  0.00000000000E+00 -0.00000000000E+00 -0.29613450451E+04  0.29613450451E+04  0.00000000000E+00 0.  1.
         23    2    1    2    0    0  0.42869600391E+03 -0.14484340654E+04 -0.15559020303E+04  0.21705300505E+04  0.92887387505E+02 0.  0.
         13    1    3    3    0    0  0.23912672297E+03 -0.66581844634E+03 -0.69496313456E+03  0.99170033353E+03  0.00000000000E+00 0.  1.
        -13    1    3    3    0    0  0.18956928094E+03 -0.78261561910E+03 -0.86093889573E+03  0.11788297170E+04  0.00000000000E+00 0. -1.
         22    1    1    2    0    0 -0.42869600391E+03  0.14484340654E+04 -0.57866783580E+03  0.16175901736E+04  0.00000000000E+00 0. -1.
<mgrwt>
<rscale>  0 0.31294514E+04</rscale>
<asrwt>0</asrwt>
<pdfrwt beam="1">  1        2 0.45559154E+00 0.31294514E+04</pdfrwt>
<pdfrwt beam="2">  1       -2 0.12719618E+00 0.31294514E+04</pdfrwt>
<totfact> 0.71501764E-01</totfact>
</mgrwt>
</event>
<event>
 6    1  0.2436515E-005  0.1297924E+04  0.7818608E-02  0.9031213E-01
          2   -1    0    0  501    0  0.00000000000E+00  0.00000000000E+00  0.30594617560E+04  0.30594617560E+04  0.00000000000E+00 0. -1.
         -2   -1    0    0    0  501 -0.00000000000E+00 -0.00000000000E+00 -0.13765558224E+03  0.13765558224E+03  0.00000000000E+00 0.  1.
         23    2    1    2    0    0 -0.50462111662E+03  0.36545389564E+03  0.10522861350E+04  0.12265072305E+04  0.93887461802E+02 0.  0.
         11    1    3    3    0    0 -0.41383133419E+03  0.26433688219E+03  0.77067777805E+03  0.91382416143E+03  0.00000000000E+00 0. -1.
        -11    1    3    3    0    0 -0.90789782428E+02  0.10111701346E+03  0.28160835692E+03  0.31268306908E+03  0.00000000000E+00 0.  1.
         22    1    1    2    0    0  0.50462111662E+03 -0.36545389564E+03  0.18695200388E+04  0.19706101077E+04  0.00000000000E+00 0. -1.
<mgrwt>
<rscale>  0 0.12979245E+04</rscale>
<asrwt>0</asrwt>
<pdfrwt beam="1">  1        2 0.47068637E+00 0.12979245E+04</pdfrwt>
<pdfrwt beam="2">  1       -2 0.21177784E-01 0.12979245E+04</pdfrwt>
<totfact> 0.30627738E+01</totfact>
</mgrwt>
</event>
<event>
 6    1  0.2436515E-005  0.1044158E+04  0.7818608E-02  0.9261397E-01
          1   -1    0    0  501    0  0.00000000000E+00  0.00000000000E+00  0.11973888073E+04  0.11973888073E+04  0.00000000000E+00 0.  1.
         -1   -1    0    0    0  501 -0.00000000000E+00 -0.00000000000E+00 -0.22763399138E+03  0.22763399138E+03  0.00000000000E+00 0. -1.
         23    2    1    2    0    0  0.44615087878E+02 -0.35164754900E+01  0.11929403382E+04  0.11973944853E+04  0.92973282690E+02 0.  0.
         13    1    3    3    0    0  0.69928953070E+02  0.20452647252E+01  0.63290491758E+03  0.63675966917E+03  0.00000000000E+00 0. -1.
        -13    1    3    3    0    0 -0.25313865192E+02 -0.55617402152E+01  0.56003542066E+03  0.56063481618E+03  0.00000000000E+00 0.  1.
         22    1    1    2    0    0 -0.44615087878E+02  0.35164754900E+01 -0.22318552230E+03  0.22762831334E+03  0.00000000000E+00 0. -1.
<mgrwt>
<rscale>  0 0.10441578E+04</rscale>
<asrwt>0</asrwt>
<pdfrwt beam="1">  1        1 0.18421366E+00 0.10441578E+04</pdfrwt>
<pdfrwt beam="2">  1       -1 0.35020615E-01 0.10441578E+04</pdfrwt>
<totfact> 0.83118376E+01</totfact>
</mgrwt>
</event>
<event>
 6    1  0.2436515E-005  0.1846297E+04  0.7818608E-02  0.8682059E-01
         -2   -1    0    0    0  501 -0.00000000000E+00  0.00000000000E+00  0.88356107228E+03  0.88356107228E+03  0.00000000000E+00 0. -1.
          2   -1    0    0  501    0  0.00000000000E+00 -0.00000000000E+00 -0.96450978044E+03  0.96450978044E+03  0.00000000000E+00 0.  1.
         23    2    1    2    0    0 -0.15685123373E+03 -0.58907080750E+03  0.65120682950E+03  0.89535974379E+03  0.77408076114E+02 0.  0.
         11    1    3    3    0    0 -0.33474184971E+02 -0.17701492113E+03  0.24183375722E+03  0.30155989371E+03  0.00000000000E+00 0. -1.
        -11    1    3    3    0    0 -0.12337704876E+03 -0.41205588637E+03  0.40937307228E+03  0.59379985008E+03  0.00000000000E+00 0.  1.
         22    1    1    2    0    0  0.15685123373E+03  0.58907080750E+03 -0.73215553765E+03  0.95271110893E+03  0.00000000000E+00 0.  1.
<mgrwt>
<rscale>  0 0.18462972E+04</rscale>
<asrwt>0</asrwt>
<pdfrwt beam="1">  1        2 0.14838612E+00 0.18462972E+04</pdfrwt>
<pdfrwt beam="2">  1       -2 0.13593247E+00 0.18462972E+04</pdfrwt>
<totfact> 0.96830825E+00</totfact>
</mgrwt>
</event>
<event>
 6    1  0.2436515E-005  0.2772909E+04  0.7818608E-02  0.8311729E-01
         -2   -1    0    0    0  501 -0.00000000000E+00  0.00000000000E+00  0.94307860367E+03  0.94307860367E+03  0.00000000000E+00 0. -1.
          2   -1    0    0  501    0  0.00000000000E+00 -0.00000000000E+00 -0.20382782827E+04  0.20382782827E+04  0.00000000000E+00 0.  1.
         23    2    1    2    0    0 -0.24238798203E+03  0.83587358458E+03  0.61005678565E+03  0.10668501108E+04  0.92538068072E+02 0.  0.
         13    1    3    3    0    0 -0.18033575256E+03  0.46621133652E+03  0.36653262728E+03  0.61985495143E+03  0.00000000000E+00 0. -1.
        -13    1    3    3    0    0 -0.62052229473E+02  0.36966224806E+03  0.24352415837E+03  0.44699515941E+03  0.00000000000E+00 0.  1.
         22    1    1    2    0    0  0.24238798203E+03 -0.83587358458E+03 -0.17052564647E+04  0.19145067756E+04  0.00000000000E+00 0.  1.
<mgrwt>
<rscale>  0 0.27729094E+04</rscale>
<asrwt>0</asrwt>
<pdfrwt beam="1">  1        2 0.31358127E+00 0.27729094E+04</pdfrwt>
<pdfrwt beam="2">  1       -2 0.14508902E+00 0.27729094E+04</pdfrwt>
<totfact> 0.18149232E+00</totfact>
</mgrwt>
</event>
<event>
 6    1  0.2436515E-005  0.3843849E+04  0.7818608E-02  0.8036810E-01
          2   -1    0    0  501    0  0.00000000000E+00  0.00000000000E+00  0.12994426296E+04  0.12994426296E+04  0.00000000000E+00 0.  1.
         -2   -1    0    0    0  501 -0.00000000000E+00 -0.00000000000E+00 -0.28425979170E+04  0.28425979170E+04  0.00000000000E+00 0. -1.
         23    2    1    2    0    0  0.14265857937E+03 -0.19095946762E+04 -0.61078543019E+03  0.20122009168E+04  0.94817669158E+02 0.  0.
         11    1    3    3    0    0  0.22294358421E+02 -0.46393053607E+03 -0.10782157403E+03  0.47681660263E+03  0.00000000000E+00 0.  1.
        -11    1    3    3    0    0  0.12036422095E+03 -0.14456641401E+04 -0.50296385616E+03  0.15353843142E+04  0.00000000000E+00 0. -1.
         22    1    1    2    0    0 -0.14265857937E+03  0.19095946762E+04 -0.93236985726E+03  0.21298396297E+04  0.00000000000E+00 0.  1.
<mgrwt>
<rscale>  0 0.38438485E+04</rscale>
<asrwt>0</asrwt>
<pdfrwt beam="1">  1        2 0.19991425E+00 0.38438485E+04</pdfrwt>
<pdfrwt beam="2">  1       -2 0.43732276E+00 0.38438485E+04</pdfrwt>
<totfact> 0.55626776E-02</totfact>
</mgrwt>
</event>
<event>
 6    1  0.2436515E-005  0.3224026E+04  0.7818608E-02  0.8182501E-01
         -2   -1    0    0    0  501 -0.00000000000E+00  0.00000000000E+00  0.10821800135E+04  0.10821800135E+04  0.00000000000E+00 0. -1.
          2   -1    0    0  501    0  0.00000000000E+00 -0.00000000000E+00 -0.24012512621E+04  0.24012512621E+04  0.00000000000E+00 0.  1.
         23    2    1    2    0    0  0.15089920338E+04 -0.11718486000E+03 -0.12559712860E+04  0.19685811660E+04  0.84015989260E+02 0.  0.
         13    1    3    3    0    0  0.56430569349E+03 -0.20321806776E+02 -0.51177243160E+03  0.76207933530E+03  0.00000000000E+00 0. -1.
        -13    1    3    3    0    0  0.94468634027E+03 -0.96863053226E+02 -0.74419885442E+03  0.12065018307E+04  0.00000000000E+00 0.  1.
         22    1    1    2    0    0 -0.15089920338E+04  0.11718486000E+03 -0.63099962567E+02  0.15148501096E+04  0.00000000000E+00 0. -1.
<mgrwt>
<rscale>  0 0.32240261E+04</rscale>
<asrwt>0</asrwt>
<pdfrwt beam="1">  1        2 0.36942326E+00 0.32240261E+04</pdfrwt>
<pdfrwt beam="2">  1       -2 0.16648924E+00 0.32240261E+04</pdfrwt>
<totfact> 0.75321698E-01</totfact>
</mgrwt>
</event>
<event>
 6    1  0.2436515E-005  0.2415798E+04  0.7818608E-02  0.8433613E-01
          2   -1    0    0  501    0  0.00000000000E+00  0.00000000000E+00  0.13671303149E+04  0.13671303149E+04  0.00000000000E+00 0.  1.
         -2   -1    0    0    0  501 -0.00000000000E+00 -0.00000000000E+00 -0.10672137642E+04  0.10672137642E+04  0.00000000000E+00 0. -1.
         23    2    1    2    0    0  0.99739435536E+03  0.67888584185E+03  0.14678385013E+03  0.12181487370E+04  0.81604904414E+02 0.  0.
         13    1    3    3    0    0  0.36950899644E+03  0.25551245610E+03  0.15132986702E+02  0.44950252609E+03  0.00000000000E+00 0. -1.
        -13    1    3    3    0    0  0.62788535892E+03  0.42337338575E+03  0.13165086342E+03  0.76864621091E+03  0.00000000000E+00 0.  1.
         22    1    1    2    0    0 -0.99739435536E+03 -0.67888584185E+03  0.15313270056E+03  0.12161953422E+04  0.00000000000E+00 0.  1.
<mgrwt>
<rscale>  0 0.24157982E+04</rscale>
<asrwt>0</asrwt>
<pdfrwt beam="1">  1        2 0.21032774E+00 0.24157982E+04</pdfrwt>
<pdfrwt beam="2">  1       -2 0.16418673E+00 0.24157982E+04</pdfrwt>
<totfact> 0.31859058E+00</totfact>
</mgrwt>
</event>
<event>
 6    1  0.2436515E-005  0.2209455E+04  0.7818608E-02  0.8514503E-01
          2   -1    0    0  501    0  0.00000000000E+00  0.00000000000E+00  0.50778300772E+04  0.50778300772E+04  0.00000000000E+00 0.  1.
         -2   -1    0    0    0  501 -0.00000000000E+00 -0.00000000000E+00 -0.24034342110E+03  0.24034342110E+03  0.00000000000E+00 0. -1.
         23    2    1    2    0    0 -0.83010114369E+03 -0.10393207655E+03  0.69423253562E+03  0.10913041495E+04  0.95478520140E+02 0.  0.
         13    1    3    3    0    0 -0.52456004466E+03 -0.11165534258E+03  0.43579868818E+03  0.69105039802E+03  0.00000000000E+00 0. -1.
        -13    1    3    3    0    0 -0.30554109903E+03  0.77232660390E+01  0.25843384744E+03  0.40025375144E+03  0.00000000000E+00 0.  1.
         22    1    1    2    0    0  0.83010114369E+03  0.10393207655E+03  0.41432541205E+04  0.42268693489E+04  0.00000000000E+00 0.  1.
<mgrwt>
<rscale>  0 0.22094552E+04</rscale>
<asrwt>0</asrwt>
<pdfrwt beam="1">  1        2 0.78120455E+00 0.22094552E+04</pdfrwt>
<pdfrwt beam="2">  1       -2 0.36975915E-01 0.22094552E+04</pdfrwt>
<totfact> 0.17461707E-01</totfact>
</mgrwt>
</event>
<event>
 6    1  0.2436515E-005  0.1468085E+04  0.7818608E-02  0.8905958E-01
         -2   -1    0    0    0  501 -0.00000000000E+00  0.00000000000E+00  0.33056308877E+03  0.33056308877E+03  0.00000000000E+00 0. -1.
          2   -1    0    0  501    0  0.00000000000E+00 -0.00000000000E+00 -0.16300007744E+04  0.16300007744E+04  0.00000000000E+00 0.  1.
         23    2    1    2    0    0 -0.10411347630E+03 -0.72362652409E+03 -0.66953623487E+03  0.99555049538E+03  0.91471617069E+02 0.  0.
         13    1    3    3    0    0 -0.63373279820E+02 -0.33376773604E+03 -0.25306682486E+03  0.42362706719E+03  0.00000000000E+00 0.  1.
        -13    1    3    3    0    0 -0.40740196482E+02 -0.38985878805E+03 -0.41646941001E+03  0.57192342818E+03  0.00000000000E+00 0. -1.
         22    1    1    2    0    0  0.10411347630E+03  0.72362652409E+03 -0.62990145071E+03  0.96501336775E+03  0.00000000000E+00 0. -1.
<mgrwt>
<rscale>  0 0.14680846E+04</rscale>
<asrwt>0</asrwt>
<pdfrwt beam="1">  1        2 0.25076935E+00 0.14680846E+04</pdfrwt>
<pdfrwt beam="2">  1       -2 0.50855859E-01 0.14680846E+04</pdfrwt>
<totfact> 0.37973919E+01</totfact>
</mgrwt>
</event>
<event>
 6    1  0.2436515E-005  0.1043401E+04  0.7818608E-02  0.9262183E-01
          1   -1    0    0  501    0  0.00000000000E+00  0.00000000000E+00  0.14189551241E+04  0.14189551241E+04  0.00000000000E+00 0.  1.
         -1   -1    0    0    0  501 -0.00000000000E+00 -0.00000000000E+00 -0.19181124092E+03  0.19181124092E+03  0.00000000000E+00 0. -1.
         23    2    1    2    0    0  0.92466697475E+02 -0.38073184777E+03  0.11405620981E+04  0.12095142802E+04  0.92390823867E+02 0.  0.
         11    1    3    3    0    0 -0.14546976570E+02 -0.18749244508E+02  0.94394451930E+02  0.97331707332E+02  0.00000000000E+00 0.  1.
        -11    1    3    3    0    0  0.10701367404E+03 -0.36198260326E+03  0.10461676462E+04  0.11121825729E+04  0.00000000000E+00 0. -1.
         22    1    1    2    0    0 -0.92466697475E+02  0.38073184777E+03  0.86581785035E+02  0.40125208479E+03  0.00000000000E+00 0. -1.
<mgrwt>
<rscale>  0 0.10434013E+04</rscale>
<asrwt>0</asrwt>
<pdfrwt beam="1">  1        1 0.21830078E+00 0.10434013E+04</pdfrwt>
<pdfrwt beam="2">  1       -1 0.29509423E-01 0.10434013E+04</pdfrwt>
<totfact> 0.78225540E+01</totfact>
</mgrwt>
</event>
<event>
 6    1  0.2436515E-005  0.2944391E+04  0.7818608E-02  0.8259791E-01
         -2   -1    0    0    0  501 -0.00000000000E+00  0.00000000000E+00  0.11108211607E+04  0.11108211607E+04  0.00000000000E+00 0. -1.
          2   -1    0    0  501    0  0.00000000000E+00 -0.00000000000E+00 -0.19511331371E+04  0.19511331371E+04  0.00000000000E+00 0.  1.
         23    2    1    2    0    0 -0.51279393904E+03 -0.11323362988E+04  0.39720419879E+03  0.13079333740E+04  0.88178329137E+02 0.  0.
         13    1    3    3    0    0 -0.28550705669E+03 -0.56771043611E+03  0.16541761178E+03  0.65663719433E+03  0.00000000000E+00 0.  1.
        -13    1    3    3    0    0 -0.22728688235E+03 -0.56462586269E+03  0.23178658701E+03  0.65129617965E+03  0.00000000000E+00 0. -1.
         22    1    1    2    0    0  0.51279393904E+03  0.11323362988E+04 -0.12375161751E+04  0.17540209238E+04  0.00000000000E+00 0.  1.
<mgrwt>
<rscale>  0 0.29443913E+04</rscale>
<asrwt>0</asrwt>
<pdfrwt beam="1">  1        2 0.30017433E+00 0.29443913E+04</pdfrwt>
<pdfrwt beam="2">  1       -2 0.17089556E+00 0.29443913E+04</pdfrwt>
<totfact> 0.12847699E+00</totfact>
</mgrwt>
</event>
<event>
 6    1  0.2436515E-005  0.6838986E+03  0.7818608E-02  0.9745171E-01
         -2   -1    0    0    0  501 -0.00000000000E+00  0.00000000000E+00  0.50043822184E+02  0.50043822184E+02  0.00000000000E+00 0. -1.
          2   -1    0    0  501    0  0.00000000000E+00 -0.00000000000E+00 -0.23365386825E+04  0.23365386825E+04  0.00000000000E+00 0.  1.
         23    2    1    2    0    0 -0.19688709981E+03 -0.26047700005E+03 -0.89283998014E+03  0.95518922446E+03  0.92792385248E+02 0.  0.
         11    1    3    3    0    0 -0.90385877122E+02 -0.87424760866E+02 -0.23296060697E+03  0.26473258204E+03  0.00000000000E+00 0. -1.
        -11    1    3    3    0    0 -0.10650122269E+03 -0.17305223919E+03 -0.65987937317E+03  0.69045664242E+03  0.00000000000E+00 0.  1.
         22    1    1    2    0    0  0.19688709981E+03  0.26047700005E+03 -0.13936548801E+04  0.14313932802E+04  0.00000000000E+00 0.  1.
<mgrwt>
<rscale>  0 0.68389861E+03</rscale>
<asrwt>0</asrwt>
<pdfrwt beam="1">  1        2 0.35946760E+00 0.68389861E+03</pdfrwt>
<pdfrwt beam="2">  1       -2 0.76990471E-02 0.68389861E+03</pdfrwt>
<totfact> 0.46955535E+02</totfact>
</mgrwt>
</event>
<event>
 6    1  0.2436515E-005  0.3234517E+04  0.7818608E-02  0.8179760E-01
          2   -1    0    0  501    0  0.00000000000E+00  0.00000000000E+00  0.25996010545E+04  0.25996010545E+04  0.00000000000E+00 0.  1.
         -2   -1    0    0    0  501 -0.00000000000E+00 -0.00000000000E+00 -0.10061253490E+04  0.10061253490E+04  0.00000000000E+00 0. -1.
         23    2    1    2    0    0 -0.15201751357E+04  0.41944641409E+03  0.40412989390E+03  0.16305273763E+04  0.91819475033E+02 0.  0.
         13    1    3    3    0    0 -0.92718851495E+03  0.22419744606E+03  0.21017317853E+03  0.97678851449E+03  0.00000000000E+00 0. -1.
        -13    1    3    3    0    0 -0.59298662078E+03  0.19524896803E+03  0.19395671537E+03  0.65373886176E+03  0.00000000000E+00 0.  1.
         22    1    1    2    0    0  0.15201751357E+04 -0.41944641409E+03  0.11893458117E+04  0.19751990273E+04  0.00000000000E+00 0.  1.
<mgrwt>
<rscale>  0 0.32345167E+04</rscale>
<asrwt>0</asrwt>
<pdfrwt beam="1">  1        2 0.39993862E+00 0.32345167E+04</pdfrwt>
<pdfrwt beam="2">  1       -2 0.15478852E+00 0.32345167E+04</pdfrwt>
<totfact> 0.70425542E-01</totfact>
</mgrwt>
</event>
<event>
 6    1  0.2436515E-005  0.2688473E+04  0.7818608E-02  0.8338755E-01
         -2   -1    0    0    0  501 -0.00000000000E+00  0.00000000000E+00  0.10710759485E+04  0.10710759485E+04  0.00000000000E+00 0. -1.
          2   -1    0    0  501    0  0.00000000000E+00 -0.00000000000E+00 -0.16870616587E+04  0.16870616587E+04  0.00000000000E+00 0.  1.
         23    2    1    2    0    0 -0.41791865367E+03 -0.22138691733E+03  0.98083423705E+03  0.10927541342E+04  0.91693124548E+02 0.  0.
         11    1    3    3    0    0 -0.14002196057E+03 -0.12318472004E+03  0.35586916165E+03  0.40177541600E+03  0.00000000000E+00 0. -1.
        -11    1    3    3    0    0 -0.27789669310E+03 -0.98202197287E+02  0.62496507540E+03  0.69097871824E+03  0.00000000000E+00 0.  1.
         22    1    1    2    0    0  0.41791865367E+03  0.22138691733E+03 -0.15968199472E+04  0.16653834730E+04  0.00000000000E+00 0.  1.
<mgrwt>
<rscale>  0 0.26884726E+04</rscale>
<asrwt>0</asrwt>
<pdfrwt beam="1">  1        2 0.25954795E+00 0.26884726E+04</pdfrwt>
<pdfrwt beam="2">  1       -2 0.16478092E+00 0.26884726E+04</pdfrwt>
<totfact> 0.20348815E+00</totfact>
</mgrwt>
</event>
<event>
 6    1  0.2436515E-005  0.1323163E+04  0.7818608E-02  0.9011396E-01
          2   -1    0    0  501    0  0.00000000000E+00  0.00000000000E+00  0.17808257186E+04  0.17808257186E+04  0.00000000000E+00 0.  1.
         -2   -1    0    0    0  501 -0.00000000000E+00 -0.00000000000E+00 -0.24577930116E+03  0.24577930116E+03  0.00000000000E+00 0. -1.
         23    2    1    2    0    0 -0.16299420293E+03  0.63583397689E+03  0.68845757814E+03  0.95536059426E+03  0.88814817482E+02 0.  0.
         11    1    3    3    0    0 -0.21893051630E+02  0.25992308517E+03  0.26845748238E+03  0.37431101474E+03  0.00000000000E+00 0. -1.
        -11    1    3    3    0    0 -0.14110115130E+03  0.37591089172E+03  0.42000009576E+03  0.58104957951E+03  0.00000000000E+00 0.  1.
         22    1    1    2    0    0  0.16299420293E+03 -0.63583397689E+03  0.84658883931E+03  0.10712444255E+04  0.00000000000E+00 0. -1.
<mgrwt>
<rscale>  0 0.13231630E+04</rscale>
<asrwt>0</asrwt>
<pdfrwt beam="1">  1        2 0.27397318E+00 0.13231630E+04</pdfrwt>
<pdfrwt beam="2">  1       -2 0.37812201E-01 0.13231630E+04</pdfrwt>
<totfact> 0.57117850E+01</totfact>
</mgrwt>
</event>
<event>
 6    1  0.2436515E-005  0.4229999E+04  0.7818608E-02  0.7959690E-01
          2   -1    0    0  501    0  0.00000000000E+00  0.00000000000E+00  0.10828139421E+04  0.10828139421E+04  0.00000000000E+00 0.  1.
         -2   -1    0    0    0  501 -0.00000000000E+00 -0.00000000000E+00 -0.41311102572E+04  0.41311102572E+04  0.00000000000E+00 0. -1.
         23    2    1    2    0    0 -0.96428028445E+03  0.69010675341E+03  0.63227895042E+03  0.13470497401E+04  0.93180110877E+02 0.  0.
         13    1    3    3    0    0 -0.41753962952E+03  0.35593635985E+03  0.29223243593E+03  0.62163480524E+03  0.00000000000E+00 0. -1.
        -13    1    3    3    0    0 -0.54674065493E+03  0.33417039356E+03  0.34004651450E+03  0.72541493485E+03  0.00000000000E+00 0.  1.
         22    1    1    2    0    0  0.96428028445E+03 -0.69010675341E+03 -0.36805752656E+04  0.38668744592E+04  0.00000000000E+00 0. -1.
<mgrwt>
<rscale>  0 0.42299994E+04</rscale>
<asrwt>0</asrwt>
<pdfrwt beam="1">  1        2 0.16658676E+00 0.42299994E+04</pdfrwt>
<pdfrwt beam="2">  1       -2 0.63555542E+00 0.42299994E+04</pdfrwt>
<totfact> 0.65112294E-03</totfact>
</mgrwt>
</event>
<event>
 6    1  0.2436515E-005  0.2851033E+04  0.7818608E-02  0.8287598E-01
          2   -1    0    0  501    0  0.00000000000E+00  0.00000000000E+00  0.82367570048E+03  0.82367570048E+03  0.00000000000E+00 0.  1.
         -2   -1    0    0    0  501 -0.00000000000E+00 -0.00000000000E+00 -0.24671080580E+04  0.24671080580E+04  0.00000000000E+00 0. -1.
         23    2    1    2    0    0  0.62639134269E+03  0.12516551778E+04 -0.51961028182E+03  0.14957954977E+04  0.91665302592E+02 0.  0.
         13    1    3    3    0    0  0.12834274217E+03  0.25527928250E+03 -0.67287670205E+02  0.29354216410E+03  0.00000000000E+00 0.  1.
        -13    1    3    3    0    0  0.49804860051E+03  0.99637589532E+03 -0.45232261162E+03  0.12022533336E+04  0.00000000000E+00 0. -1.
         22    1    1    2    0    0 -0.62639134269E+03 -0.12516551778E+04 -0.11238220757E+04  0.17949882607E+04  0.00000000000E+00 0. -1.
<mgrwt>
<rscale>  0 0.28510328E+04</rscale>
<asrwt>0</asrwt>
<pdfrwt beam="1">  1        2 0.12671934E+00 0.28510328E+04</pdfrwt>
<pdfrwt beam="2">  1       -2 0.37955509E+00 0.28510328E+04</pdfrwt>
<totfact> 0.28920844E-01</totfact>
</mgrwt>
</event>
<event>
 6    1  0.2436515E-005  0.1062266E+04  0.7818608E-02  0.9242771E-01
         -2   -1    0    0    0  501 -0.00000000000E+00  0.00000000000E+00  0.30606766706E+03  0.30606766706E+03  0.00000000000E+00 0. -1.
          2   -1    0    0  501    0  0.00000000000E+00 -0.00000000000E+00 -0.92169970819E+03  0.92169970819E+03  0.00000000000E+00 0.  1.
         23    2    1    2    0    0 -0.16254719798E+03  0.22215006217E+03  0.20931792895E+03  0.35810382259E+03  0.93016722579E+02 0.  0.
         11    1    3    3    0    0 -0.88577050818E+02  0.16587281548E+03  0.18085442178E+03  0.26089846056E+03  0.00000000000E+00 0.  1.
        -11    1    3    3    0    0 -0.73970147157E+02  0.56277246690E+02  0.28463507168E+02  0.97205362022E+02  0.00000000000E+00 0. -1.
         22    1    1    2    0    0  0.16254719798E+03 -0.22215006217E+03 -0.82494997008E+03  0.86966355266E+03  0.00000000000E+00 0.  1.
<mgrwt>
<rscale>  0 0.10622664E+04</rscale>
<asrwt>0</asrwt>
<pdfrwt beam="1">  1        2 0.14179995E+00 0.10622664E+04</pdfrwt>
<pdfrwt beam="2">  1       -2 0.47087334E-01 0.10622664E+04</pdfrwt>
<totfact> 0.12056215E+02</totfact>
</mgrwt>
</event>
<event>
 6    1  0.2436515E-005  0.1194742E+04  0.7818608E-02  0.9117471E-01
          2   -1    0    0  501    0  0.00000000000E+00  0.00000000000E+00  0.21635254226E+03  0.21635254226E+03  0.00000000000E+00 0.  1.
         -2   -1    0    0    0  501 -0.00000000000E+00 -0.00000000000E+00 -0.16494018342E+04  0.16494018342E+04  0.00000000000E+00 0. -1.
         23    2    1    2    0    0 -0.74397093129E+02  0.34834311190E+03  0.20426226501E+02  0.36926884903E+03  0.95207148161E+02 0.  0.
         11    1    3    3    0    0 -0.14932464347E+02  0.26961701701E+03  0.16334760482E+02  0.27052382289E+03  0.00000000000E+00 0. -1.
        -11    1    3    3    0    0 -0.59464628782E+02  0.78726094895E+02  0.40914660199E+01  0.98745026142E+02  0.00000000000E+00 0.  1.
         22    1    1    2    0    0  0.74397093129E+02 -0.34834311190E+03 -0.14534755185E+04  0.14964855274E+04  0.00000000000E+00 0. -1.
<mgrwt>
<rscale>  0 0.11947423E+04</rscale>
<asrwt>0</asrwt>
<pdfrwt beam="1">  1        2 0.33285007E-01 0.11947423E+04</pdfrwt>
<pdfrwt beam="2">  1       -2 0.25375412E+00 0.11947423E+04</pdfrwt>
<totfact> 0.95546336E+00</totfact>
</mgrwt>
</event>
<event>
 6    1  0.2436515E-005  0.1661948E+04  0.7818608E-02  0.8783369E-01
         -2   -1    0    0    0  501 -0.00000000000E+00  0.00000000000E+00  0.16897560190E+04  0.16897560190E+04  0.00000000000E+00 0. -1.
          2   -1    0    0  501    0  0.00000000000E+00 -0.00000000000E+00 -0.40864951914E+03  0.40864951914E+03  0.00000000000E+00 0.  1.
         23    2    1    2    0    0  0.27717621767E+03  0.74712224609E+03  0.92850171315E+03  0.12269995238E+04  0.91619287102E+02 0.  0.
         13    1    3    3    0    0  0.19474532415E+03  0.54394781009E+03  0.73227921241E+03  0.93275817140E+03  0.00000000000E+00 0. -1.
        -13    1    3    3    0    0  0.82430893519E+02  0.20317443600E+03  0.19622250074E+03  0.29424135237E+03  0.00000000000E+00 0.  1.
         22    1    1    2    0    0 -0.27717621767E+03 -0.74712224609E+03  0.35260478672E+03  0.87140601436E+03  0.00000000000E+00 0.  1.
<mgrwt>
<rscale>  0 0.16619482E+04</rscale>
<asrwt>0</asrwt>
<pdfrwt beam="1">  1        2 0.62869158E-01 0.16619482E+04</pdfrwt>
<pdfrwt beam="2">  1       -2 0.25996246E+00 0.16619482E+04</pdfrwt>
<totfact> 0.41373194E+00</totfact>
</mgrwt>
</event>
<event>
 6    1  0.2436515E-005  0.3486049E+04  0.7818608E-02  0.8117104E-01
         -1   -1    0    0    0  501 -0.00000000000E+00  0.00000000000E+00  0.17737344541E+04  0.17737344541E+04  0.00000000000E+00 0. -1.
          1   -1    0    0  501    0  0.00000000000E+00 -0.00000000000E+00 -0.17128461357E+04  0.17128461357E+04  0.00000000000E+00 0.  1.
         23    2    1    2    0    0 -0.14277011178E+04 -0.42493488252E+02  0.10271489772E+04  0.17621108630E+04  0.99315123371E+02 0.  0.
         13    1    3    3    0    0 -0.11438279659E+04 -0.30847033982E+02  0.77266382888E+03  0.13806894465E+04  0.00000000000E+00 0.  1.
        -13    1    3    3    0    0 -0.28387315187E+03 -0.11646454270E+02  0.25448514828E+03  0.38142141647E+03  0.00000000000E+00 0. -1.
         22    1    1    2    0    0  0.14277011178E+04  0.42493488252E+02 -0.96626065868E+03  0.17244697269E+04  0.00000000000E+00 0.  1.
<mgrwt>
<rscale>  0 0.34860489E+04</rscale>
<asrwt>0</asrwt>
<pdfrwt beam="1">  1        1 0.26351479E+00 0.34860489E+04</pdfrwt>
<pdfrwt beam="2">  1       -1 0.27288222E+00 0.34860489E+04</pdfrwt>
<totfact> 0.18881176E-01</totfact>
</mgrwt>
</event>
<event>
 6    1  0.2436515E-005  0.2375648E+04  0.7818608E-02  0.8448677E-01
          2   -1    0    0  501    0  0.00000000000E+00  0.00000000000E+00  0.23682793117E+04  0.23682793117E+04  0.00000000000E+00 0.  1.
         -2   -1    0    0    0  501 -0.00000000000E+00 -0.00000000000E+00 -0.59575980646E+03  0.59575980646E+03  0.00000000000E+00 0. -1.
         23    2    1    2    0    0 -0.42836594521E+03 -0.97143599554E+03  0.22828774720E+03  0.10900495240E+04  0.94378985138E+02 0.  0.
         11    1    3    3    0    0 -0.28814619227E+03 -0.53875618239E+03  0.13710277750E+03  0.62616581173E+03  0.00000000000E+00 0.  1.
        -11    1    3    3    0    0 -0.14021975294E+03 -0.43267981315E+03  0.91184969702E+02  0.46388371229E+03  0.00000000000E+00 0. -1.
         22    1    1    2    0    0  0.42836594521E+03  0.97143599554E+03  0.15442317581E+04  0.18739895942E+04  0.00000000000E+00 0.  1.
<mgrwt>
<rscale>  0 0.23756478E+04</rscale>
<asrwt>0</asrwt>
<pdfrwt beam="1">  1        2 0.36435066E+00 0.23756478E+04</pdfrwt>
<pdfrwt beam="2">  1       -2 0.91655356E-01 0.23756478E+04</pdfrwt>
<totfact> 0.37836043E+00</totfact>
</mgrwt>
</event>
<event>
 6    1  0.2436515E-005  0.1761274E+04  0.7818608E-02  0.8727169E-01
         -2   -1    0    0    0  501 -0.00000000000E+00  0.00000000000E+00  0.39140777312E+03  0.39140777312E+03  0.00000000000E+00 0. -1.
          2   -1    0    0  501    0  0.00000000000E+00 -0.00000000000E+00 -0.19813649233E+04  0.19813649233E+04  0.00000000000E+00 0.  1.
         23    2    1    2    0    0 -0.81617587751E+03  0.11779232889E+03 -0.12043571818E+04  0.14624401026E+04  0.90756468237E+02 0.  0.
         11    1    3    3    0    0 -0.48156813018E+03  0.10707665658E+03 -0.67386676229E+03  0.83514650673E+03  0.00000000000E+00 0.  1.
        -11    1    3    3    0    0 -0.33460774733E+03  0.10715672311E+02 -0.53049041955E+03  0.62729359589E+03  0.00000000000E+00 0. -1.
         22    1    1    2    0    0  0.81617587751E+03 -0.11779232889E+03 -0.38559996838E+03  0.91033259383E+03  0.00000000000E+00 0.  1.
<mgrwt>
<rscale>  0 0.17612741E+04</rscale>
<asrwt>0</asrwt>
<pdfrwt beam="1">  1        2 0.30482538E+00 0.17612741E+04</pdfrwt>
<pdfrwt beam="2">  1       -2 0.60216579E-01 0.17612741E+04</pdfrwt>
<totfact> 0.16655061E+01</totfact>
</mgrwt>
</event>
<event>
 6    1  0.2436515E-005  0.1205924E+04  0.7818608E-02  0.9107687E-01
          2   -1    0    0  501    0  0.00000000000E+00  0.00000000000E+00  0.48891379864E+03  0.48891379864E+03  0.00000000000E+00 0.  1.
         -2   -1    0    0    0  501 -0.00000000000E+00 -0.00000000000E+00 -0.74361402968E+03  0.74361402968E+03  0.00000000000E+00 0. -1.
         23    2    1    2    0    0 -0.58761345496E+03 -0.28203970724E+02 -0.10170273328E+02  0.59544075685E+03  0.91439728981E+02 0.  0.
         11    1    3    3    0    0 -0.25863708351E+03  0.19833421889E+02  0.27492037923E+02  0.26084922415E+03  0.00000000000E+00 0. -1.
        -11    1    3    3    0    0 -0.32897637146E+03 -0.48037392613E+02 -0.37662311252E+02  0.33459153270E+03  0.00000000000E+00 0.  1.
         22    1    1    2    0    0  0.58761345496E+03  0.28203970724E+02 -0.24452995772E+03  0.63708707147E+03  0.00000000000E+00 0. -1.
<mgrwt>
<rscale>  0 0.12059240E+04</rscale>
<asrwt>0</asrwt>
<pdfrwt beam="1">  1        2 0.75217508E-01 0.12059240E+04</pdfrwt>
<pdfrwt beam="2">  1       -2 0.11440216E+00 0.12059240E+04</pdfrwt>
<totfact> 0.37226650E+01</totfact>
</mgrwt>
</event>
<event>
 6    1  0.2436515E-005  0.3324633E+04  0.7818608E-02  0.8156656E-01
         -2   -1    0    0    0  501 -0.00000000000E+00  0.00000000000E+00  0.15940893621E+04  0.15940893621E+04  0.00000000000E+00 0. -1.
          2   -1    0    0  501    0  0.00000000000E+00 -0.00000000000E+00 -0.17334639654E+04  0.17334639654E+04  0.00000000000E+00 0.  1.
         23    2    1    2    0    0  0.10288750349E+04 -0.28519321657E+03  0.12037253260E+04  0.16117921471E+04  0.94869683437E+02 0.  0.
         11    1    3    3    0    0  0.83268243532E+03 -0.20007248167E+03  0.99768194072E+03  0.13148225321E+04  0.00000000000E+00 0. -1.
        -11    1    3    3    0    0  0.19619259953E+03 -0.85120734905E+02  0.20604338524E+03  0.29696961498E+03  0.00000000000E+00 0.  1.
         22    1    1    2    0    0 -0.10288750349E+04  0.28519321657E+03 -0.13430999292E+04  0.17157611804E+04  0.00000000000E+00 0.  1.
<mgrwt>
<rscale>  0 0.33246332E+04</rscale>
<asrwt>0</asrwt>
<pdfrwt beam="1">  1        2 0.26668676E+00 0.33246332E+04</pdfrwt>
<pdfrwt beam="2">  1       -2 0.24524452E+00 0.33246332E+04</pdfrwt>
<totfact> 0.53841710E-01</totfact>
</mgrwt>
</event>
<event>
 6    1  0.2436515E-005  0.5963531E+03  0.7818608E-02  0.9913001E-01
          2   -1    0    0  501    0  0.00000000000E+00  0.00000000000E+00  0.20573599613E+03  0.20573599613E+03  0.00000000000E+00 0.  1.
         -2   -1    0    0    0  501 -0.00000000000E+00 -0.00000000000E+00 -0.43215218945E+03  0.43215218945E+03  0.00000000000E+00 0. -1.
         23    2    1    2    0    0  0.14075666699E+03  0.12837938385E+03  0.11925382499E+03  0.24319657551E+03  0.92894531959E+02 0.  0.
         13    1    3    3    0    0  0.59713975207E+02  0.41770187522E+02  0.98902261188E+02  0.12285017163E+03  0.00000000000E+00 0.  1.
        -13    1    3    3    0    0  0.81042691778E+02  0.86609196324E+02  0.20351563801E+02  0.12034640388E+03  0.00000000000E+00 0. -1.
         22    1    1    2    0    0 -0.14075666699E+03 -0.12837938385E+03 -0.34567001831E+03  0.39469161007E+03  0.00000000000E+00 0. -1.
<mgrwt>
<rscale>  0 0.59635312E+03</rscale>
<asrwt>0</asrwt>
<pdfrwt beam="1">  1        2 0.31651692E-01 0.59635312E+03</pdfrwt>
<pdfrwt beam="2">  1       -2 0.66484952E-01 0.59635312E+03</pdfrwt>
<totfact> 0.35183686E+02</totfact>
</mgrwt>
</event>
<event>
 6    1  0.2436515E-005  0.1773184E+04  0.7818608E-02  0.8720691E-01
         -2   -1    0    0    0  501 -0.00000000000E+00  0.00000000000E+00  0.50377108414E+03  0.50377108414E+03  0.00000000000E+00 0. -1.
          2   -1    0    0  501    0  0.00000000000E+00 -0.00000000000E+00 -0.15603233813E+04  0.15603233813E+04  0.00000000000E+00 0.  1.
         23    2    1    2    0    0 -0.53358405681E+03  0.66884540826E+03 -0.26950713231E+03  0.90155146952E+03  0.89971284270E+02 0.  0.
         13    1    3    3    0    0 -0.42527328037E+03  0.47087954419E+03 -0.20670556585E+03  0.66731709036E+03  0.00000000000E+00 0. -1.
        -13    1    3    3    0    0 -0.10831077644E+03  0.19796586407E+03 -0.62801566457E+02  0.23423437916E+03  0.00000000000E+00 0.  1.
         22    1    1    2    0    0  0.53358405681E+03 -0.66884540826E+03 -0.78704516483E+03  0.11625429959E+04  0.00000000000E+00 0.  1.
<mgrwt>
<rscale>  0 0.17731845E+04</rscale>
<asrwt>0</asrwt>
<pdfrwt beam="1">  1        2 0.24004975E+00 0.17731845E+04</pdfrwt>
<pdfrwt beam="2">  1       -2 0.77503243E-01 0.17731845E+04</pdfrwt>
<totfact> 0.16481770E+01</totfact>
</mgrwt>
</event>
<event>
 6    1  0.2436515E-005  0.8967391E+03  0.7818608E-02  0.9429667E-01
         -2   -1    0    0    0  501 -0.00000000000E+00  0.00000000000E+00  0.17453735031E+03  0.17453735031E+03  0.00000000000E+00 0. -1.
          2   -1    0    0  501    0  0.00000000000E+00 -0.00000000000E+00 -0.11518178817E+04  0.11518178817E+04  0.00000000000E+00 0.  1.
         23    2    1    2    0    0  0.38553772999E+03 -0.14535402485E+03 -0.25108459607E+03  0.49141351531E+03  0.93148456061E+02 0.  0.
         13    1    3    3    0    0  0.21506002853E+02 -0.16433397625E+02 -0.47949443273E+02  0.55061000957E+02  0.00000000000E+00 0.  1.
        -13    1    3    3    0    0  0.36403172713E+03 -0.12892062723E+03 -0.20313515280E+03  0.43635251436E+03  0.00000000000E+00 0. -1.
         22    1    1    2    0    0 -0.38553772999E+03  0.14535402485E+03 -0.72619593530E+03  0.83494171667E+03  0.00000000000E+00 0.  1.
<mgrwt>
<rscale>  0 0.89673907E+03</rscale>
<asrwt>0</asrwt>
<pdfrwt beam="1">  1        2 0.17720275E+00 0.89673907E+03</pdfrwt>
<pdfrwt beam="2">  1       -2 0.26851901E-01 0.89673907E+03</pdfrwt>
<totfact> 0.25528169E+02</totfact>
</mgrwt>
</event>
<event>
 6    1  0.2436515E-005  0.1889945E+04  0.7818608E-02  0.8659877E-01
          2   -1    0    0  501    0  0.00000000000E+00  0.00000000000E+00  0.27046021934E+04  0.27046021934E+04  0.00000000000E+00 0.  1.
         -2   -1    0    0    0  501 -0.00000000000E+00 -0.00000000000E+00 -0.33016810490E+03  0.33016810490E+03  0.00000000000E+00 0. -1.
         23    2    1    2    0    0 -0.23461791434E+03 -0.86583155724E+03  0.72411607795E+03  0.11564041500E+04  0.90645531886E+02 0.  0.
         11    1    3    3    0    0 -0.26491763786E+02 -0.35825908538E+02  0.22937319309E+02  0.50114168537E+02  0.00000000000E+00 0. -1.
        -11    1    3    3    0    0 -0.20812615055E+03 -0.83000564870E+03  0.70117875864E+03  0.11062899814E+04  0.00000000000E+00 0.  1.
         22    1    1    2    0    0  0.23461791434E+03  0.86583155724E+03  0.16503180105E+04  0.18783661483E+04  0.00000000000E+00 0. -1.
<mgrwt>
<rscale>  0 0.18899454E+04</rscale>
<asrwt>0</asrwt>
<pdfrwt beam="1">  1        2 0.41609263E+00 0.18899454E+04</pdfrwt>
<pdfrwt beam="2">  1       -2 0.50795095E-01 0.18899454E+04</pdfrwt>
<totfact> 0.90772138E+00</totfact>
</mgrwt>
</event>
<event>
 6    1  0.2436515E-005  0.2776897E+04  0.7818608E-02  0.8310477E-01
          1   -1    0    0  501    0  0.00000000000E+00  0.00000000000E+00  0.19976159094E+04  0.19976159094E+04  0.00000000000E+00 0.  1.
         -1   -1    0    0    0  501 -0.00000000000E+00 -0.00000000000E+00 -0.96504524979E+03  0.96504524979E+03  0.00000000000E+00 0. -1.
         23    2    1    2    0    0 -0.40803483470E+03 -0.12553889802E+04  0.62809149253E+02  0.13246955598E+04  0.91539166116E+02 0.  0.
         11    1    3    3    0    0 -0.16058893101E+03 -0.54075918909E+03  0.69825937927E+02  0.56840563593E+03  0.00000000000E+00 0.  1.
        -11    1    3    3    0    0 -0.24744590369E+03 -0.71462979111E+03 -0.70167886733E+01  0.75628992385E+03  0.00000000000E+00 0. -1.
         22    1    1    2    0    0  0.40803483470E+03  0.12553889802E+04  0.96976151037E+03  0.16379655994E+04  0.00000000000E+00 0.  1.
<mgrwt>
<rscale>  0 0.27768974E+04</rscale>
<asrwt>0</asrwt>
<pdfrwt beam="1">  1        1 0.30732552E+00 0.27768974E+04</pdfrwt>
<pdfrwt beam="2">  1       -1 0.14846850E+00 0.27768974E+04</pdfrwt>
<totfact> 0.93053930E-01</totfact>
</mgrwt>
</event>
<event>
 6    1  0.2436515E-005  0.7041797E+04  0.7818608E-02  0.7573140E-01
         -2   -1    0    0    0  501 -0.00000000000E+00  0.00000000000E+00  0.41876911657E+04  0.41876911657E+04  0.00000000000E+00 0. -1.
          2   -1    0    0  501    0  0.00000000000E+00 -0.00000000000E+00 -0.29602767194E+04  0.29602767194E+04  0.00000000000E+00 0.  1.
         23    2    1    2    0    0 -0.25570668269E+04  0.15835004592E+04 -0.12431399912E+04  0.32557058576E+04  0.90327913725E+02 0.  0.
         11    1    3    3    0    0 -0.20390118462E+04  0.12889471800E+04 -0.96609670862E+03  0.25985182301E+04  0.00000000000E+00 0. -1.
        -11    1    3    3    0    0 -0.51805498069E+03  0.29455327920E+03 -0.27704328260E+03  0.65718762750E+03  0.00000000000E+00 0.  1.
         22    1    1    2    0    0  0.25570668269E+04 -0.15835004592E+04  0.24705544376E+04  0.38922620275E+04  0.00000000000E+00 0.  1.
<mgrwt>
<rscale>  0 0.70417966E+04</rscale>
<asrwt>0</asrwt>
<pdfrwt beam="1">  1        2 0.45542719E+00 0.70417966E+04</pdfrwt>
<pdfrwt beam="2">  1       -2 0.64426018E+00 0.70417966E+04</pdfrwt>
<totfact> 0.41475617E-04</totfact>
</mgrwt>
</event>
<event>
 6    1  0.2436515E-005  0.3545672E+03  0.7818608E-02  0.1060756E+00
          1   -1    0    0  501    0  0.00000000000E+00  0.00000000000E+00  0.52177188293E+03  0.52177188293E+03  0.00000000000E+00 0.  1.
         -1   -1    0    0    0  501 -0.00000000000E+00 -0.00000000000E+00 -0.60236046671E+02  0.60236046671E+02  0.00000000000E+00 0. -1.
         23    2    1    2    0    0  0.36082266211E+00 -0.16314884614E+03  0.20420802872E+03  0.27731911011E+03  0.92667651578E+02 0.  0.
         13    1    3    3    0    0  0.43952969270E+02 -0.98994081015E+02  0.13733684839E+03  0.17490883771E+03  0.00000000000E+00 0.  1.
        -13    1    3    3    0    0 -0.43592146608E+02 -0.64154765126E+02  0.66871180325E+02  0.10241027240E+03  0.00000000000E+00 0. -1.
         22    1    1    2    0    0 -0.36082266211E+00  0.16314884614E+03  0.25732780754E+03  0.30468881949E+03  0.00000000000E+00 0.  1.
<mgrwt>
<rscale>  0 0.35456720E+03</rscale>
<asrwt>0</asrwt>
<pdfrwt beam="1">  1        1 0.80272594E-01 0.35456720E+03</pdfrwt>
<pdfrwt beam="2">  1       -1 0.92670844E-02 0.35456720E+03</pdfrwt>
<totfact> 0.29342778E+03</totfact>
</mgrwt>
</event>
<event>
 6    1  0.2436515E-005  0.2147731E+04  0.7818608E-02  0.8540504E-01
         -2   -1    0    0    0  501 -0.00000000000E+00  0.00000000000E+00  0.52969464091E+03  0.52969464091E+03  0.00000000000E+00 0. -1.
          2   -1    0    0  501    0  0.00000000000E+00 -0.00000000000E+00 -0.21770798223E+04  0.21770798223E+04  0.00000000000E+00 0.  1.
         23    2    1    2    0    0  0.48995137298E+03 -0.93050711000E+03 -0.56319297305E+03  0.11963544639E+04  0.90453572836E+02 0.  0.
         13    1    3    3    0    0  0.15063140333E+03 -0.24479095104E+03 -0.19469240845E+03  0.34715639601E+03  0.00000000000E+00 0. -1.
        -13    1    3    3    0    0  0.33931996965E+03 -0.68571615896E+03 -0.36850056460E+03  0.84919806792E+03  0.00000000000E+00 0.  1.
         22    1    1    2    0    0 -0.48995137298E+03  0.93050711000E+03 -0.10841922084E+04  0.15104199993E+04  0.00000000000E+00 0.  1.
<mgrwt>
<rscale>  0 0.21477314E+04</rscale>
<asrwt>0</asrwt>
<pdfrwt beam="1">  1        2 0.33493535E+00 0.21477314E+04</pdfrwt>
<pdfrwt beam="2">  1       -2 0.81491484E-01 0.21477314E+04</pdfrwt>
<totfact> 0.64737186E+00</totfact>
</mgrwt>
</event>
<event>
 6    1  0.2436515E-005  0.6173053E+04  0.7818608E-02  0.7669308E-01
         -2   -1    0    0    0  501 -0.00000000000E+00  0.00000000000E+00  0.33306152625E+04  0.33306152625E+04  0.00000000000E+00 0. -1.
          2   -1    0    0  501    0  0.00000000000E+00 -0.00000000000E+00 -0.28603260423E+04  0.28603260423E+04  0.00000000000E+00 0.  1.
         23    2    1    2    0    0 -0.13193510361E+04 -0.27530451509E+04 -0.21585417766E+03  0.30619258810E+04  0.94086744724E+02 0.  0.
         11    1    3    3    0    0 -0.87576676532E+03 -0.17943154322E+04 -0.18365213072E+03  0.20050594512E+04  0.00000000000E+00 0.  1.
        -11    1    3    3    0    0 -0.44358427075E+03 -0.95872971869E+03 -0.32202046939E+02  0.10568664299E+04  0.00000000000E+00 0. -1.
         22    1    1    2    0    0  0.13193510361E+04  0.27530451509E+04  0.68614339783E+03  0.31290154237E+04  0.00000000000E+00 0.  1.
<mgrwt>
<rscale>  0 0.61730529E+04</rscale>
<asrwt>0</asrwt>
<pdfrwt beam="1">  1        2 0.44005016E+00 0.61730529E+04</pdfrwt>
<pdfrwt beam="2">  1       -2 0.51240235E+00 0.61730529E+04</pdfrwt>
<totfact> 0.19830834E-03</totfact>
</mgrwt>
</event>
<event>
 6    1  0.2436515E-005  0.6743989E+03  0.7818608E-02  0.9762044E-01
          2   -1    0    0  501    0  0.00000000000E+00  0.00000000000E+00  0.10158547454E+04  0.10158547454E+04  0.00000000000E+00 0.  1.
         -2   -1    0    0    0  501 -0.00000000000E+00 -0.00000000000E+00 -0.11192887485E+03  0.11192887485E+03  0.00000000000E+00 0. -1.
         23    2    1    2    0    0 -0.18392903650E+03  0.27522292918E+03  0.45221805025E+03  0.56776799000E+03  0.91004254166E+02 0.  0.
         13    1    3    3    0    0 -0.26702805125E+02  0.95687632442E+02  0.18125737678E+03  0.20669639436E+03  0.00000000000E+00 0. -1.
        -13    1    3    3    0    0 -0.15722623138E+03  0.17953529674E+03  0.27096067347E+03  0.36107159564E+03  0.00000000000E+00 0.  1.
         22    1    1    2    0    0  0.18392903650E+03 -0.27522292918E+03  0.45170782031E+03  0.56001563027E+03  0.00000000000E+00 0.  1.
<mgrwt>
<rscale>  0 0.67439893E+03</rscale>
<asrwt>0</asrwt>
<pdfrwt beam="1">  1        2 0.15628534E+00 0.67439893E+03</pdfrwt>
<pdfrwt beam="2">  1       -2 0.17219828E-01 0.67439893E+03</pdfrwt>
<totfact> 0.68626981E+02</totfact>
</mgrwt>
</event>
<event>
 6    1  0.2436515E-005  0.3636844E+04  0.7818608E-02  0.8082104E-01
         -1   -1    0    0    0  501 -0.00000000000E+00  0.00000000000E+00  0.10351616099E+04  0.10351616099E+04  0.00000000000E+00 0.  1.
          1   -1    0    0  501    0  0.00000000000E+00 -0.00000000000E+00 -0.31943400408E+04  0.31943400408E+04  0.00000000000E+00 0. -1.
         23    2    1    2    0    0 -0.14222572031E+04  0.82777157083E+03 -0.19769689085E+04  0.25738381477E+04  0.90638952563E+02 0.  0.
         13    1    3    3    0    0 -0.27968481125E+03  0.12811392096E+03 -0.39886692397E+03  0.50371777160E+03  0.00000000000E+00 0.  1.
        -13    1    3    3    0    0 -0.11425723919E+04  0.69965764987E+03 -0.15781019846E+04  0.20701203761E+04  0.00000000000E+00 0. -1.
         22    1    1    2    0    0  0.14222572031E+04 -0.82777157083E+03 -0.18220952232E+03  0.16556635030E+04  0.00000000000E+00 0.  1.
<mgrwt>
<rscale>  0 0.36368438E+04</rscale>
<asrwt>0</asrwt>
<pdfrwt beam="1">  1        1 0.49143693E+00 0.36368438E+04</pdfrwt>
<pdfrwt beam="2">  1       -1 0.15925563E+00 0.36368438E+04</pdfrwt>
<totfact> 0.10240187E-01</totfact>
</mgrwt>
</event>
<event>
 6    1  0.2436515E-005  0.1659693E+04  0.7818608E-02  0.8784693E-01
          2   -1    0    0  501    0  0.00000000000E+00  0.00000000000E+00  0.34076989886E+04  0.34076989886E+04  0.00000000000E+00 0.  1.
         -2   -1    0    0    0  501 -0.00000000000E+00 -0.00000000000E+00 -0.20208502981E+03  0.20208502981E+03  0.00000000000E+00 0. -1.
         23    2    1    2    0    0 -0.73093907558E+03 -0.41459669247E+02  0.77057195221E+03  0.10670649206E+04  0.94104064350E+02 0.  0.
         13    1    3    3    0    0 -0.11131387067E+03  0.19556172842E+02  0.15190422468E+03  0.18933598489E+03  0.00000000000E+00 0. -1.
        -13    1    3    3    0    0 -0.61962520491E+03 -0.61015842090E+02  0.61866772753E+03  0.87772893574E+03  0.00000000000E+00 0.  1.
         22    1    1    2    0    0  0.73093907558E+03  0.41459669247E+02  0.24350420066E+04  0.25427190978E+04  0.00000000000E+00 0.  1.
<mgrwt>
<rscale>  0 0.16596927E+04</rscale>
<asrwt>0</asrwt>
<pdfrwt beam="1">  1        2 0.52426134E+00 0.16596927E+04</pdfrwt>
<pdfrwt beam="2">  1       -2 0.31090007E-01 0.16596927E+04</pdfrwt>
<totfact> 0.87060299E+00</totfact>
</mgrwt>
</event>
<event>
 6    1  0.2436515E-005  0.3284724E+04  0.7818608E-02  0.8166793E-01
          2   -1    0    0  501    0  0.00000000000E+00  0.00000000000E+00  0.11062869366E+04  0.11062869366E+04  0.00000000000E+00 0.  1.
         -2   -1    0    0    0  501 -0.00000000000E+00 -0.00000000000E+00 -0.24382044173E+04  0.24382044173E+04  0.00000000000E+00 0. -1.
         23    2    1    2    0    0 -0.98634144223E+03 -0.12262079013E+04 -0.11688653004E+04  0.19623910817E+04  0.90980268367E+02 0.  0.
         13    1    3    3    0    0 -0.94547643175E+03 -0.11862739985E+04 -0.11053500296E+04  0.18769577433E+04  0.00000000000E+00 0. -1.
        -13    1    3    3    0    0 -0.40865010480E+02 -0.39933902874E+02 -0.63515270827E+02  0.85433338391E+02  0.00000000000E+00 0.  1.
         22    1    1    2    0    0  0.98634144223E+03  0.12262079013E+04 -0.16305218033E+03  0.15821002723E+04  0.00000000000E+00 0.  1.
<mgrwt>
<rscale>  0 0.32847245E+04</rscale>
<asrwt>0</asrwt>
<pdfrwt beam="1">  1        2 0.17019799E+00 0.32847245E+04</pdfrwt>
<pdfrwt beam="2">  1       -2 0.37510837E+00 0.32847245E+04</pdfrwt>
<totfact> 0.19426740E-01</totfact>
</mgrwt>
</event>
<event>
 6    1  0.2436515E-005  0.2076322E+04  0.7818608E-02  0.8571746E-01
         -2   -1    0    0    0  501 -0.00000000000E+00  0.00000000000E+00  0.10761968819E+04  0.10761968819E+04  0.00000000000E+00 0. -1.
          2   -1    0    0  501    0  0.00000000000E+00 -0.00000000000E+00 -0.10014693855E+04  0.10014693855E+04  0.00000000000E+00 0.  1.
         23    2    1    2    0    0  0.80915140152E+03 -0.58435962083E+03  0.31572300140E+03  0.10508844061E+04  0.92059026895E+02 0.  0.
         11    1    3    3    0    0  0.44069608299E+03 -0.29308199640E+03  0.21036869111E+03  0.56953057896E+03  0.00000000000E+00 0. -1.
        -11    1    3    3    0    0  0.36845531854E+03 -0.29127762443E+03  0.10535431029E+03  0.48135382719E+03  0.00000000000E+00 0.  1.
         22    1    1    2    0    0 -0.80915140152E+03  0.58435962083E+03 -0.24099550501E+03  0.10267818612E+04  0.00000000000E+00 0.  1.
<mgrwt>
<rscale>  0 0.20763220E+04</rscale>
<asrwt>0</asrwt>
<pdfrwt beam="1">  1        2 0.15407221E+00 0.20763220E+04</pdfrwt>
<pdfrwt beam="2">  1       -2 0.16556875E+00 0.20763220E+04</pdfrwt>
<totfact> 0.53211033E+00</totfact>
</mgrwt>
</event>
<event>
 6    1  0.2436515E-005  0.1012601E+04  0.7818608E-02  0.9294831E-01
          2   -1    0    0  501    0  0.00000000000E+00  0.00000000000E+00  0.91994830729E+03  0.91994830729E+03  0.00000000000E+00 0.  1.
         -2   -1    0    0    0  501 -0.00000000000E+00 -0.00000000000E+00 -0.27864630764E+03  0.27864630764E+03  0.00000000000E+00 0. -1.
         23    2    1    2    0    0 -0.39331123821E+03  0.31165284035E+03  0.33539255453E+03  0.61088566348E+03  0.94190791563E+02 0.  0.
         13    1    3    3    0    0 -0.14207139440E+03  0.17121831393E+03  0.15609935107E+03  0.27178484052E+03  0.00000000000E+00 0. -1.
        -13    1    3    3    0    0 -0.25123984381E+03  0.14043452642E+03  0.17929320346E+03  0.33910082297E+03  0.00000000000E+00 0.  1.
         22    1    1    2    0    0  0.39331123821E+03 -0.31165284035E+03  0.30590944511E+03  0.58770895144E+03  0.00000000000E+00 0. -1.
<mgrwt>
<rscale>  0 0.10126010E+04</rscale>
<asrwt>0</asrwt>
<pdfrwt beam="1">  1        2 0.14153051E+00 0.10126010E+04</pdfrwt>
<pdfrwt beam="2">  1       -2 0.42868663E-01 0.10126010E+04</pdfrwt>
<totfact> 0.14623696E+02</totfact>
</mgrwt>
</event>
<event>
 6    1  0.2436515E-005  0.3911745E+04  0.7818608E-02  0.8022591E-01
         -2   -1    0    0    0  501 -0.00000000000E+00  0.00000000000E+00  0.15573833326E+04  0.15573833326E+04  0.00000000000E+00 0. -1.
          2   -1    0    0  501    0  0.00000000000E+00 -0.00000000000E+00 -0.24563230068E+04  0.24563230068E+04  0.00000000000E+00 0.  1.
         23    2    1    2    0    0  0.10721013290E+04  0.14428930706E+04 -0.12379152228E+04  0.21844315936E+04  0.89250294946E+02 0.  0.
         11    1    3    3    0    0  0.24784932504E+03  0.38827268966E+03 -0.34297891100E+03  0.57429914056E+03  0.00000000000E+00 0. -1.
        -11    1    3    3    0    0  0.82425200401E+03  0.10546203810E+04 -0.89493631181E+03  0.16101324530E+04  0.00000000000E+00 0.  1.
         22    1    1    2    0    0 -0.10721013290E+04 -0.14428930706E+04  0.33897554866E+03  0.18292747458E+04  0.00000000000E+00 0. -1.
<mgrwt>
<rscale>  0 0.39117446E+04</rscale>
<asrwt>0</asrwt>
<pdfrwt beam="1">  1        2 0.37789584E+00 0.39117446E+04</pdfrwt>
<pdfrwt beam="2">  1       -2 0.23959744E+00 0.39117446E+04</pdfrwt>
<totfact> 0.21840762E-01</totfact>
</mgrwt>
</event>
<event>
 6    1  0.2436515E-005  0.1264687E+04  0.7818608E-02  0.9058047E-01
          2   -1    0    0  501    0  0.00000000000E+00  0.00000000000E+00  0.12423021566E+04  0.12423021566E+04  0.00000000000E+00 0.  1.
         -2   -1    0    0    0  501 -0.00000000000E+00 -0.00000000000E+00 -0.32186890349E+03  0.32186890349E+03  0.00000000000E+00 0. -1.
         23    2    1    2    0    0 -0.38483128476E+03 -0.44913070992E+03  0.72821537464E+03  0.94226976156E+03  0.88097442371E+02 0.  0.
         11    1    3    3    0    0 -0.20812167762E+03 -0.26319123680E+03  0.34616867625E+03  0.48209647607E+03  0.00000000000E+00 0. -1.
        -11    1    3    3    0    0 -0.17670960715E+03 -0.18593947311E+03  0.38204669839E+03  0.46017328548E+03  0.00000000000E+00 0.  1.
         22    1    1    2    0    0  0.38483128476E+03  0.44913070992E+03  0.19221787847E+03  0.62190129854E+03  0.00000000000E+00 0. -1.
<mgrwt>
<rscale>  0 0.12646872E+04</rscale>
<asrwt>0</asrwt>
<pdfrwt beam="1">  1        2 0.19112341E+00 0.12646872E+04</pdfrwt>
<pdfrwt beam="2">  1       -2 0.49518294E-01 0.12646872E+04</pdfrwt>
<totfact> 0.67765142E+01</totfact>
</mgrwt>
</event>
<event>
 6    1  0.2436515E-005  0.3313846E+04  0.7818608E-02  0.8159381E-01
          1   -1    0    0  501    0  0.00000000000E+00  0.00000000000E+00  0.30779872725E+04  0.30779872725E+04  0.00000000000E+00 0.  1.
         -1   -1    0    0    0  501 -0.00000000000E+00 -0.00000000000E+00 -0.89194468183E+03  0.89194468183E+03  0.00000000000E+00 0. -1.
         23    2    1    2    0    0  0.55671513693E+03 -0.66136063412E+03  0.27854667847E+04  0.29179628501E+04  0.91391213399E+02 0.  0.
         13    1    3    3    0    0  0.38474649090E+03 -0.43644269307E+03  0.20058410193E+04  0.20885186811E+04  0.00000000000E+00 0.  1.
        -13    1    3    3    0    0  0.17196864604E+03 -0.22491794105E+03  0.77962576534E+03  0.82944416895E+03  0.00000000000E+00 0. -1.
         22    1    1    2    0    0 -0.55671513693E+03  0.66136063412E+03 -0.59942419396E+03  0.10519691043E+04  0.00000000000E+00 0. -1.
<mgrwt>
<rscale>  0 0.33138463E+04</rscale>
<asrwt>0</asrwt>
<pdfrwt beam="1">  1        1 0.47353650E+00 0.33138463E+04</pdfrwt>
<pdfrwt beam="2">  1       -1 0.13722226E+00 0.33138463E+04</pdfrwt>
<totfact> 0.19156829E-01</totfact>
</mgrwt>
</event>
<event>
 6    1  0.2436515E-005  0.3535779E+04  0.7818608E-02  0.8105363E-01
         -2   -1    0    0    0  501 -0.00000000000E+00  0.00000000000E+00  0.20757931375E+04  0.20757931375E+04  0.00000000000E+00 0. -1.
          2   -1    0    0  501    0  0.00000000000E+00 -0.00000000000E+00 -0.15056574808E+04  0.15056574808E+04  0.00000000000E+00 0.  1.
         23    2    1    2    0    0 -0.14767642961E+03  0.67176755199E+03 -0.13631479487E+04  0.15294600066E+04  0.89418174756E+02 0.  0.
         11    1    3    3    0    0 -0.10307065500E+03  0.52151425543E+03 -0.11262370584E+04  0.12453957565E+04  0.00000000000E+00 0.  1.
        -11    1    3    3    0    0 -0.44605774618E+02  0.15025329656E+03 -0.23691089032E+03  0.28406425014E+03  0.00000000000E+00 0. -1.
         22    1    1    2    0    0  0.14767642961E+03 -0.67176755199E+03  0.19332836054E+04  0.20519906117E+04  0.00000000000E+00 0. -1.
<mgrwt>
<rscale>  0 0.35357791E+04</rscale>
<asrwt>0</asrwt>
<pdfrwt beam="1">  1        2 0.23163961E+00 0.35357791E+04</pdfrwt>
<pdfrwt beam="2">  1       -2 0.31935279E+00 0.35357791E+04</pdfrwt>
<totfact> 0.24943616E-01</totfact>
</mgrwt>
</event>
<event>
 6    1  0.2436515E-005  0.4419249E+04  0.7818608E-02  0.7924928E-01
         -2   -1    0    0    0  501 -0.00000000000E+00  0.00000000000E+00  0.12629862480E+04  0.12629862480E+04  0.00000000000E+00 0. -1.
          2   -1    0    0  501    0  0.00000000000E+00 -0.00000000000E+00 -0.38657907518E+04  0.38657907518E+04  0.00000000000E+00 0.  1.
         23    2    1    2    0    0  0.21370472580E+04 -0.26771896135E+03 -0.18699015060E+04  0.28537404662E+04  0.93051496810E+02 0.  0.
         11    1    3    3    0    0  0.54625845366E+03 -0.29375138721E+02 -0.49011062052E+03  0.73448595448E+03  0.00000000000E+00 0.  1.
        -11    1    3    3    0    0  0.15907888043E+04 -0.23834382263E+03 -0.13797908854E+04  0.21192545117E+04  0.00000000000E+00 0. -1.
         22    1    1    2    0    0 -0.21370472580E+04  0.26771896135E+03 -0.73290299787E+03  0.22750365337E+04  0.00000000000E+00 0. -1.
<mgrwt>
<rscale>  0 0.44192491E+04</rscale>
<asrwt>0</asrwt>
<pdfrwt beam="1">  1        2 0.59473703E+00 0.44192491E+04</pdfrwt>
<pdfrwt beam="2">  1       -2 0.19430558E+00 0.44192491E+04</pdfrwt>
<totfact> 0.48194083E-02</totfact>
</mgrwt>
</event>
<event>
 6    1  0.2436515E-005  0.2533702E+04  0.7818608E-02  0.8391077E-01
         -2   -1    0    0    0  501 -0.00000000000E+00  0.00000000000E+00  0.10112331156E+04  0.10112331156E+04  0.00000000000E+00 0. -1.
          2   -1    0    0  501    0  0.00000000000E+00 -0.00000000000E+00 -0.15870830299E+04  0.15870830299E+04  0.00000000000E+00 0.  1.
         23    2    1    2    0    0 -0.25687261920E+03  0.12240512708E+04 -0.48370401539E+03  0.13442125123E+04  0.93019609252E+02 0.  0.
         13    1    3    3    0    0 -0.50398737141E+02  0.43790366180E+03 -0.15089577498E+03  0.46590684115E+03  0.00000000000E+00 0. -1.
        -13    1    3    3    0    0 -0.20647388205E+03  0.78614760903E+03 -0.33280824041E+03  0.87830567119E+03  0.00000000000E+00 0.  1.
         22    1    1    2    0    0  0.25687261920E+03 -0.12240512708E+04 -0.92145898949E+02  0.12541036332E+04  0.00000000000E+00 0. -1.
<mgrwt>
<rscale>  0 0.25337016E+04</rscale>
<asrwt>0</asrwt>
<pdfrwt beam="1">  1        2 0.24416662E+00 0.25337016E+04</pdfrwt>
<pdfrwt beam="2">  1       -2 0.15557433E+00 0.25337016E+04</pdfrwt>
<totfact> 0.27416613E+00</totfact>
</mgrwt>
</event>
<event>
 6    1  0.2436515E-005  0.1739217E+04  0.7818608E-02  0.8739308E-01
          2   -1    0    0  501    0  0.00000000000E+00  0.00000000000E+00  0.25053099469E+04  0.25053099469E+04  0.00000000000E+00 0.  1.
         -2   -1    0    0    0  501 -0.00000000000E+00 -0.00000000000E+00 -0.30184642330E+03  0.30184642330E+03  0.00000000000E+00 0. -1.
         23    2    1    2    0    0 -0.79724530050E+03 -0.91740710976E+02  0.57680621278E+03  0.99331226608E+03  0.99736771609E+02 0.  0.
         11    1    3    3    0    0 -0.36041914846E+03 -0.78989565312E+02  0.30458709677E+03  0.47845022052E+03  0.00000000000E+00 0.  1.
        -11    1    3    3    0    0 -0.43682615205E+03 -0.12751145664E+02  0.27221911601E+03  0.51486204555E+03  0.00000000000E+00 0. -1.
         22    1    1    2    0    0  0.79724530050E+03  0.91740710976E+02  0.16266573109E+04  0.18138441042E+04  0.00000000000E+00 0. -1.
<mgrwt>
<rscale>  0 0.17392169E+04</rscale>
<asrwt>0</asrwt>
<pdfrwt beam="1">  1        2 0.38543229E+00 0.17392169E+04</pdfrwt>
<pdfrwt beam="2">  1       -2 0.46437913E-01 0.17392169E+04</pdfrwt>
<totfact> 0.14436859E+01</totfact>
</mgrwt>
</event>
<event>
 6    1  0.2436515E-005  0.2500595E+04  0.7818608E-02  0.8402774E-01
          1   -1    0    0  501    0  0.00000000000E+00  0.00000000000E+00  0.16920970282E+04  0.16920970282E+04  0.00000000000E+00 0.  1.
         -1   -1    0    0    0  501 -0.00000000000E+00 -0.00000000000E+00 -0.92384976154E+03  0.92384976154E+03  0.00000000000E+00 0. -1.
         23    2    1    2    0    0  0.65448071770E+03 -0.93879151654E+03  0.90721379290E+03  0.14631301448E+04  0.89657310095E+02 0.  0.
         13    1    3    3    0    0  0.57528416150E+03 -0.86595810047E+03  0.80689299674E+03  0.13160211269E+04  0.00000000000E+00 0. -1.
        -13    1    3    3    0    0  0.79196556195E+02 -0.72833416072E+02  0.10032079615E+03  0.14710901791E+03  0.00000000000E+00 0.  1.
         22    1    1    2    0    0 -0.65448071770E+03  0.93879151654E+03 -0.13896652626E+03  0.11528166449E+04  0.00000000000E+00 0.  1.
<mgrwt>
<rscale>  0 0.25005947E+04</rscale>
<asrwt>0</asrwt>
<pdfrwt beam="1">  1        1 0.26032262E+00 0.25005947E+04</pdfrwt>
<pdfrwt beam="2">  1       -1 0.14213073E+00 0.25005947E+04</pdfrwt>
<totfact> 0.17269152E+00</totfact>
</mgrwt>
</event>
<event>
 6    1  0.2436515E-005  0.1174659E+04  0.7818608E-02  0.9135331E-01
          2   -1    0    0  501    0  0.00000000000E+00  0.00000000000E+00  0.74915481057E+03  0.74915481057E+03  0.00000000000E+00 0.  1.
         -2   -1    0    0    0  501 -0.00000000000E+00 -0.00000000000E+00 -0.46046039258E+03  0.46046039258E+03  0.00000000000E+00 0. -1.
         23    2    1    2    0    0 -0.24960321284E+03  0.30244486916E+03  0.59051638798E+03  0.71477061712E+03  0.91721141964E+02 0.  0.
         11    1    3    3    0    0 -0.10231612820E+03  0.19562066329E+03  0.32063350240E+03  0.38928379989E+03  0.00000000000E+00 0.  1.
        -11    1    3    3    0    0 -0.14728708464E+03  0.10682420587E+03  0.26988288558E+03  0.32548681723E+03  0.00000000000E+00 0. -1.
         22    1    1    2    0    0  0.24960321284E+03 -0.30244486916E+03 -0.30182197000E+03  0.49484458602E+03  0.00000000000E+00 0.  1.
<mgrwt>
<rscale>  0 0.11746593E+04</rscale>
<asrwt>0</asrwt>
<pdfrwt beam="1">  1        2 0.11525459E+00 0.11746593E+04</pdfrwt>
<pdfrwt beam="2">  1       -2 0.70840060E-01 0.11746593E+04</pdfrwt>
<totfact> 0.67252817E+01</totfact>
</mgrwt>
</event>
<event>
 6    1  0.2436515E-005  0.5499347E+04  0.7818608E-02  0.7755779E-01
          2   -1    0    0  501    0  0.00000000000E+00  0.00000000000E+00  0.29145470827E+04  0.29145470827E+04  0.00000000000E+00 0.  1.
         -2   -1    0    0    0  501 -0.00000000000E+00 -0.00000000000E+00 -0.25941266305E+04  0.25941266305E+04  0.00000000000E+00 0. -1.
         23    2    1    2    0    0  0.27421940738E+03 -0.25419264649E+04  0.11718577989E+04  0.28139507235E+04  0.92095262007E+02 0.  0.
         13    1    3    3    0    0  0.16540891878E+03 -0.13534158470E+04  0.57897837604E+03  0.14813205343E+04  0.00000000000E+00 0.  1.
        -13    1    3    3    0    0  0.10881048861E+03 -0.11885106179E+04  0.59287942281E+03  0.13326301892E+04  0.00000000000E+00 0. -1.
         22    1    1    2    0    0 -0.27421940738E+03  0.25419264649E+04 -0.85143734666E+03  0.26947229898E+04  0.00000000000E+00 0. -1.
<mgrwt>
<rscale>  0 0.54993469E+04</rscale>
<asrwt>0</asrwt>
<pdfrwt beam="1">  1        2 0.44839186E+00 0.54993469E+04</pdfrwt>
<pdfrwt beam="2">  1       -2 0.39909640E+00 0.54993469E+04</pdfrwt>
<totfact> 0.10370040E-02</totfact>
</mgrwt>
</event>
<event>
 6    1  0.2436515E-005  0.2155812E+04  0.7818608E-02  0.8537048E-01
         -2   -1    0    0    0  501 -0.00000000000E+00  0.00000000000E+00  0.42220138599E+03  0.42220138599E+03  0.00000000000E+00 0.  1.
          2   -1    0    0  501    0  0.00000000000E+00 -0.00000000000E+00 -0.27519605201E+04  0.27519605201E+04  0.00000000000E+00 0. -1.
         23    2    1    2    0    0 -0.68871910965E+03 -0.82311218874E+03 -0.10516464421E+04  0.15052042251E+04  0.88497643936E+02 0.  0.
         11    1    3    3    0    0 -0.70754053585E+02 -0.12927004965E+03 -0.15797309748E+03  0.21603791650E+03  0.00000000000E+00 0. -1.
        -11    1    3    3    0    0 -0.61796505607E+03 -0.69384213908E+03 -0.89367334461E+03  0.12891663086E+04  0.00000000000E+00 0.  1.
         22    1    1    2    0    0  0.68871910965E+03  0.82311218874E+03 -0.12781126920E+04  0.16689576809E+04  0.00000000000E+00 0.  1.
<mgrwt>
<rscale>  0 0.21558122E+04</rscale>
<asrwt>0</asrwt>
<pdfrwt beam="1">  1        2 0.42337854E+00 0.21558122E+04</pdfrwt>
<pdfrwt beam="2">  1       -2 0.64954059E-01 0.21558122E+04</pdfrwt>
<totfact> 0.49617235E+00</totfact>
</mgrwt>
</event>
<event>
 6    1  0.2436515E-005  0.1989924E+04  0.7818608E-02  0.8611346E-01
          2   -1    0    0  501    0  0.00000000000E+00  0.00000000000E+00  0.14941464049E+04  0.14941464049E+04  0.00000000000E+00 0. -1.
         -2   -1    0    0    0  501 -0.00000000000E+00 -0.00000000000E+00 -0.66255168923E+03  0.66255168923E+03  0.00000000000E+00 0.  1.
         23    2    1    2    0    0  0.54190470460E+03 -0.78327408466E+03  0.72047873683E+03  0.11977790353E+04  0.91684276927E+02 0.  0.
         11    1    3    3    0    0  0.26588774709E+03 -0.33404437809E+03  0.27814413804E+03  0.50955480776E+03  0.00000000000E+00 0. -1.
        -11    1    3    3    0    0  0.27601695750E+03 -0.44922970657E+03  0.44233459879E+03  0.68822422755E+03  0.00000000000E+00 0.  1.
         22    1    1    2    0    0 -0.54190470460E+03  0.78327408466E+03  0.11111597880E+03  0.95891905879E+03  0.00000000000E+00 0.  1.
<mgrwt>
<rscale>  0 0.19899238E+04</rscale>
<asrwt>0</asrwt>
<pdfrwt beam="1">  1        2 0.22986868E+00 0.19899238E+04</pdfrwt>
<pdfrwt beam="2">  1       -2 0.10193103E+00 0.19899238E+04</pdfrwt>
<totfact> 0.93874457E+00</totfact>
</mgrwt>
</event>
<event>
 6    1  0.2436515E-005  0.6048441E+04  0.7818608E-02  0.7684425E-01
         -2   -1    0    0    0  501 -0.00000000000E+00  0.00000000000E+00  0.24056013890E+04  0.24056013890E+04  0.00000000000E+00 0. -1.
          2   -1    0    0  501    0  0.00000000000E+00 -0.00000000000E+00 -0.38019225215E+04  0.38019225215E+04  0.00000000000E+00 0.  1.
         23    2    1    2    0    0  0.26025573218E+03 -0.13531624956E+04 -0.34603910811E+04  0.37257570926E+04  0.90430597315E+02 0.  0.
         13    1    3    3    0    0  0.13996438821E+03 -0.56283165810E+03 -0.13692482943E+04  0.14870139195E+04  0.00000000000E+00 0.  1.
        -13    1    3    3    0    0  0.12029134397E+03 -0.79033083753E+03 -0.20911427868E+04  0.22387431731E+04  0.00000000000E+00 0. -1.
         22    1    1    2    0    0 -0.26025573218E+03  0.13531624956E+04  0.20640699486E+04  0.24817668179E+04  0.00000000000E+00 0. -1.
<mgrwt>
<rscale>  0 0.60484412E+04</rscale>
<asrwt>0</asrwt>
<pdfrwt beam="1">  1        2 0.58491116E+00 0.60484412E+04</pdfrwt>
<pdfrwt beam="2">  1       -2 0.37009252E+00 0.60484412E+04</pdfrwt>
<totfact> 0.37923977E-03</totfact>
</mgrwt>
</event>
<event>
 6    1  0.2436515E-005  0.2516704E+04  0.7818608E-02  0.8397059E-01
          2   -1    0    0  501    0  0.00000000000E+00  0.00000000000E+00  0.16263707608E+04  0.16263707608E+04  0.00000000000E+00 0.  1.
         -2   -1    0    0    0  501 -0.00000000000E+00 -0.00000000000E+00 -0.97360921870E+03  0.97360921870E+03  0.00000000000E+00 0. -1.
         23    2    1    2    0    0  0.96236553893E+02 -0.36336890516E+03  0.15656700244E+04  0.16127108507E+04  0.90637890772E+02 0.  0.
         13    1    3    3    0    0  0.92313958405E+02 -0.19870013320E+03  0.98899304224E+03  0.10129712965E+04  0.00000000000E+00 0.  1.
        -13    1    3    3    0    0  0.39225954888E+01 -0.16466877197E+03  0.57667698213E+03  0.59973955425E+03  0.00000000000E+00 0. -1.
         22    1    1    2    0    0 -0.96236553893E+02  0.36336890516E+03 -0.91290848230E+03  0.98726912876E+03  0.00000000000E+00 0. -1.
<mgrwt>
<rscale>  0 0.25167038E+04</rscale>
<asrwt>0</asrwt>
<pdfrwt beam="1">  1        2 0.25021088E+00 0.25167038E+04</pdfrwt>
<pdfrwt beam="2">  1       -2 0.14978603E+00 0.25167038E+04</pdfrwt>
<totfact> 0.28879613E+00</totfact>
</mgrwt>
</event>
<event>
 6    1  0.2436515E-005  0.2571512E+04  0.7818608E-02  0.8377943E-01
         -2   -1    0    0    0  501 -0.00000000000E+00  0.00000000000E+00  0.15422792152E+04  0.15422792152E+04  0.00000000000E+00 0. -1.
          2   -1    0    0  501    0  0.00000000000E+00 -0.00000000000E+00 -0.10718998834E+04  0.10718998834E+04  0.00000000000E+00 0.  1.
         23    2    1    2    0    0  0.29444591143E+03 -0.19844082235E+03 -0.10188752410E+04  0.10831806214E+04  0.95374771183E+02 0.  0.
         11    1    3    3    0    0  0.18145825090E+03 -0.86105597921E+02 -0.45780636088E+03  0.49992792969E+03  0.00000000000E+00 0. -1.
        -11    1    3    3    0    0  0.11298766052E+03 -0.11233522443E+03 -0.56106888015E+03  0.58325269168E+03  0.00000000000E+00 0.  1.
         22    1    1    2    0    0 -0.29444591143E+03  0.19844082235E+03  0.14892545728E+04  0.15309984773E+04  0.00000000000E+00 0. -1.
<mgrwt>
<rscale>  0 0.25715123E+04</rscale>
<asrwt>0</asrwt>
<pdfrwt beam="1">  1        2 0.16490768E+00 0.25715123E+04</pdfrwt>
<pdfrwt beam="2">  1       -2 0.23727372E+00 0.25715123E+04</pdfrwt>
<totfact> 0.15485692E+00</totfact>
</mgrwt>
</event>
<event>
 6    1  0.2436515E-005  0.2476065E+04  0.7818608E-02  0.8411562E-01
          2   -1    0    0  501    0  0.00000000000E+00  0.00000000000E+00  0.82463190242E+03  0.82463190242E+03  0.00000000000E+00 0.  1.
         -2   -1    0    0    0  501 -0.00000000000E+00 -0.00000000000E+00 -0.18586770333E+04  0.18586770333E+04  0.00000000000E+00 0. -1.
         23    2    1    2    0    0 -0.73442109540E+03  0.35974466983E+03  0.48726246334E+03  0.95612412538E+03  0.89207971144E+02 0.  0.
         13    1    3    3    0    0 -0.54148101857E+03  0.29445931160E+03  0.33264456576E+03  0.70040016190E+03  0.00000000000E+00 0.  1.
        -13    1    3    3    0    0 -0.19294007683E+03  0.65285358233E+02  0.15461789759E+03  0.25572396349E+03  0.00000000000E+00 0. -1.
         22    1    1    2    0    0  0.73442109540E+03 -0.35974466983E+03 -0.15213075942E+04  0.17271848103E+04  0.00000000000E+00 0. -1.
<mgrwt>
<rscale>  0 0.24760649E+04</rscale>
<asrwt>0</asrwt>
<pdfrwt beam="1">  1        2 0.12686645E+00 0.24760649E+04</pdfrwt>
<pdfrwt beam="2">  1       -2 0.28595031E+00 0.24760649E+04</pdfrwt>
<totfact> 0.11448966E+00</totfact>
</mgrwt>
</event>
<event>
 6    1  0.2436515E-005  0.2256934E+04  0.7818608E-02  0.8495098E-01
         -2   -1    0    0    0  501 -0.00000000000E+00  0.00000000000E+00  0.10963418052E+04  0.10963418052E+04  0.00000000000E+00 0. -1.
          2   -1    0    0  501    0  0.00000000000E+00 -0.00000000000E+00 -0.11615332634E+04  0.11615332634E+04  0.00000000000E+00 0.  1.
         23    2    1    2    0    0 -0.69798201595E+03  0.79569505396E+03 -0.41879299165E+03  0.11419254471E+04  0.91085911949E+02 0.  0.
         13    1    3    3    0    0 -0.21095500155E+03  0.28582634819E+03 -0.17377870285E+03  0.39547155594E+03  0.00000000000E+00 0. -1.
        -13    1    3    3    0    0 -0.48702701439E+03  0.50986870577E+03 -0.24501428881E+03  0.74645389114E+03  0.00000000000E+00 0.  1.
         22    1    1    2    0    0  0.69798201595E+03 -0.79569505396E+03  0.35360153343E+03  0.11159496216E+04  0.00000000000E+00 0. -1.
<mgrwt>
<rscale>  0 0.22569337E+04</rscale>
<asrwt>0</asrwt>
<pdfrwt beam="1">  1        2 0.17869743E+00 0.22569337E+04</pdfrwt>
<pdfrwt beam="2">  1       -2 0.16866797E+00 0.22569337E+04</pdfrwt>
<totfact> 0.39596637E+00</totfact>
</mgrwt>
</event>
<event>
 6    1  0.2436515E-005  0.5790805E+04  0.7818608E-02  0.7716895E-01
         -2   -1    0    0    0  501 -0.00000000000E+00  0.00000000000E+00  0.27816491784E+04  0.27816491784E+04  0.00000000000E+00 0. -1.
          2   -1    0    0  501    0  0.00000000000E+00 -0.00000000000E+00 -0.30138076155E+04  0.30138076155E+04  0.00000000000E+00 0.  1.
         23    2    1    2    0    0  0.21119346351E+04 -0.33296716960E+02  0.18647800998E+04  0.28191288882E+04  0.93307521064E+02 0.  0.
         13    1    3    3    0    0  0.15998027230E+04  0.12635595614E+02  0.14284432855E+04  0.21447560772E+04  0.00000000000E+00 0.  1.
        -13    1    3    3    0    0  0.51213191212E+03 -0.45932312574E+02  0.43633681434E+03  0.67437281106E+03  0.00000000000E+00 0. -1.
         22    1    1    2    0    0 -0.21119346351E+04  0.33296716960E+02 -0.20969385369E+04  0.29763279056E+04  0.00000000000E+00 0.  1.
<mgrwt>
<rscale>  0 0.57908049E+04</rscale>
<asrwt>0</asrwt>
<pdfrwt beam="1">  1        2 0.46366271E+00 0.57908049E+04</pdfrwt>
<pdfrwt beam="2">  1       -2 0.42794603E+00 0.57908049E+04</pdfrwt>
<totfact> 0.56842781E-03</totfact>
</mgrwt>
</event>
<event>
 6    1  0.2436515E-005  0.1372472E+04  0.7818608E-02  0.8973990E-01
          2   -1    0    0  501    0  0.00000000000E+00  0.00000000000E+00  0.76885198957E+03  0.76885198957E+03  0.00000000000E+00 0.  1.
         -2   -1    0    0    0  501 -0.00000000000E+00 -0.00000000000E+00 -0.61249704189E+03  0.61249704189E+03  0.00000000000E+00 0. -1.
         23    2    1    2    0    0  0.45737580030E+03  0.11576922179E+02 -0.43271113782E+03  0.63547672275E+03  0.85235488736E+02 0.  0.
         11    1    3    3    0    0  0.29114127098E+03 -0.22899340403E+02 -0.31072145921E+03  0.42642167472E+03  0.00000000000E+00 0.  1.
        -11    1    3    3    0    0  0.16623452932E+03  0.34476262583E+02 -0.12198967861E+03  0.20905504803E+03  0.00000000000E+00 0. -1.
         22    1    1    2    0    0 -0.45737580030E+03 -0.11576922179E+02  0.58906608549E+03  0.74587230871E+03  0.00000000000E+00 0.  1.
<mgrwt>
<rscale>  0 0.13724716E+04</rscale>
<asrwt>0</asrwt>
<pdfrwt beam="1">  1        2 0.11828492E+00 0.13724716E+04</pdfrwt>
<pdfrwt beam="2">  1       -2 0.94230314E-01 0.13724716E+04</pdfrwt>
<totfact> 0.33640760E+01</totfact>
</mgrwt>
</event>
<event>
 6    1  0.2436515E-005  0.4069378E+04  0.7818608E-02  0.7990695E-01
         -2   -1    0    0    0  501 -0.00000000000E+00  0.00000000000E+00  0.23015134907E+04  0.23015134907E+04  0.00000000000E+00 0. -1.
          2   -1    0    0  501    0  0.00000000000E+00 -0.00000000000E+00 -0.17987983735E+04  0.17987983735E+04  0.00000000000E+00 0.  1.
         23    2    1    2    0    0 -0.15828799644E+03  0.13993888367E+04 -0.12267433526E+04  0.18699821117E+04  0.92680304370E+02 0.  0.
         13    1    3    3    0    0 -0.12293810831E+03  0.69185272273E+03 -0.62846981860E+03  0.94273447021E+03  0.00000000000E+00 0. -1.
        -13    1    3    3    0    0 -0.35349888131E+02  0.70753611400E+03 -0.59827353398E+03  0.92724764150E+03  0.00000000000E+00 0.  1.
         22    1    1    2    0    0  0.15828799644E+03 -0.13993888367E+04  0.17294584697E+04  0.22303297525E+04  0.00000000000E+00 0. -1.
<mgrwt>
<rscale>  0 0.40693777E+04</rscale>
<asrwt>0</asrwt>
<pdfrwt beam="1">  1        2 0.27673821E+00 0.40693777E+04</pdfrwt>
<pdfrwt beam="2">  1       -2 0.35407900E+00 0.40693777E+04</pdfrwt>
<totfact> 0.99377497E-02</totfact>
</mgrwt>
</event>
<event>
 6    1  0.2436515E-005  0.2279874E+04  0.7818608E-02  0.8485899E-01
          2   -1    0    0  501    0  0.00000000000E+00  0.00000000000E+00  0.15925600169E+04  0.15925600169E+04  0.00000000000E+00 0.  1.
         -2   -1    0    0    0  501 -0.00000000000E+00 -0.00000000000E+00 -0.81595421005E+03  0.81595421005E+03  0.00000000000E+00 0. -1.
         23    2    1    2    0    0 -0.74352066486E+03  0.57937443126E+03  0.10636976966E+04  0.14231617703E+04  0.73749061679E+02 0.  0.
         11    1    3    3    0    0 -0.39025092325E+03  0.35055931563E+03  0.58991313856E+03  0.78942075468E+03  0.00000000000E+00 0.  1.
        -11    1    3    3    0    0 -0.35326974161E+03  0.22881511563E+03  0.47378455804E+03  0.63374101565E+03  0.00000000000E+00 0. -1.
         22    1    1    2    0    0  0.74352066486E+03 -0.57937443126E+03 -0.28709188972E+03  0.98535245665E+03  0.00000000000E+00 0. -1.
<mgrwt>
<rscale>  0 0.22798737E+04</rscale>
<asrwt>0</asrwt>
<pdfrwt beam="1">  1        2 0.24500923E+00 0.22798737E+04</pdfrwt>
<pdfrwt beam="2">  1       -2 0.12553142E+00 0.22798737E+04</pdfrwt>
<totfact> 0.48513189E+00</totfact>
</mgrwt>
</event>
<event>
 6    1  0.2436515E-005  0.2547053E+04  0.7818608E-02  0.8386412E-01
          2   -1    0    0  501    0  0.00000000000E+00  0.00000000000E+00  0.22504286525E+04  0.22504286525E+04  0.00000000000E+00 0.  1.
         -2   -1    0    0    0  501 -0.00000000000E+00 -0.00000000000E+00 -0.72069348239E+03  0.72069348239E+03  0.00000000000E+00 0. -1.
         23    2    1    2    0    0  0.62126174736E+03 -0.43230413321E+03 -0.42614658769E+03  0.87390338788E+03  0.96193527974E+02 0.  0.
         13    1    3    3    0    0  0.24149328445E+03 -0.14207697334E+03 -0.11091652137E+03  0.30134257499E+03  0.00000000000E+00 0.  1.
        -13    1    3    3    0    0  0.37976846291E+03 -0.29022715988E+03 -0.31523006631E+03  0.57256081289E+03  0.00000000000E+00 0. -1.
         22    1    1    2    0    0 -0.62126174736E+03  0.43230413321E+03  0.19558817578E+04  0.20972187470E+04  0.00000000000E+00 0.  1.
<mgrwt>
<rscale>  0 0.25470526E+04</rscale>
<asrwt>0</asrwt>
<pdfrwt beam="1">  1        2 0.34621979E+00 0.25470526E+04</pdfrwt>
<pdfrwt beam="2">  1       -2 0.11087592E+00 0.25470526E+04</pdfrwt>
<totfact> 0.27689301E+00</totfact>
</mgrwt>
</event>
<event>
 6    1  0.2436515E-005  0.9865251E+03  0.7818608E-02  0.9323449E-01
         -2   -1    0    0    0  501 -0.00000000000E+00  0.00000000000E+00  0.25206084807E+03  0.25206084807E+03  0.00000000000E+00 0. -1.
          2   -1    0    0  501    0  0.00000000000E+00 -0.00000000000E+00 -0.96527458071E+03  0.96527458071E+03  0.00000000000E+00 0.  1.
         23    2    1    2    0    0  0.22005459556E+03 -0.26130813510E+03  0.72004705848E+02  0.36102125592E+03  0.91900506341E+02 0.  0.
         11    1    3    3    0    0  0.10746573399E+03 -0.93850866803E+02 -0.10400577509E+02  0.14305607709E+03  0.00000000000E+00 0. -1.
        -11    1    3    3    0    0  0.11258886158E+03 -0.16745726829E+03  0.82405283357E+02  0.21796517882E+03  0.00000000000E+00 0.  1.
         22    1    1    2    0    0 -0.22005459556E+03  0.26130813510E+03 -0.78521843849E+03  0.85631417286E+03  0.00000000000E+00 0.  1.
<mgrwt>
<rscale>  0 0.98652507E+03</rscale>
<asrwt>0</asrwt>
<pdfrwt beam="1">  1        2 0.14850378E+00 0.98652507E+03</pdfrwt>
<pdfrwt beam="2">  1       -2 0.38778593E-01 0.98652507E+03</pdfrwt>
<totfact> 0.16639448E+02</totfact>
</mgrwt>
</event>
<event>
 6    1  0.2436515E-005  0.7280992E+03  0.7818608E-02  0.9670350E-01
         -2   -1    0    0    0  501 -0.00000000000E+00  0.00000000000E+00  0.97934382644E+02  0.97934382644E+02  0.00000000000E+00 0. -1.
          2   -1    0    0  501    0  0.00000000000E+00 -0.00000000000E+00 -0.13532745518E+04  0.13532745518E+04  0.00000000000E+00 0.  1.
         23    2    1    2    0    0 -0.30026741182E+03  0.78609390045E+02 -0.99458059634E+03  0.10458257705E+04  0.90669867179E+02 0.  0.
         13    1    3    3    0    0 -0.13306359496E+03  0.79171798040E+02 -0.52548358458E+03  0.54782030957E+03  0.00000000000E+00 0.  1.
        -13    1    3    3    0    0 -0.16720381686E+03 -0.56240799565E+00 -0.46909701176E+03  0.49800546093E+03  0.00000000000E+00 0. -1.
         22    1    1    2    0    0  0.30026741182E+03 -0.78609390045E+02 -0.26075957285E+03  0.40538316398E+03  0.00000000000E+00 0. -1.
<mgrwt>
<rscale>  0 0.72809919E+03</rscale>
<asrwt>0</asrwt>
<pdfrwt beam="1">  1        2 0.20819609E+00 0.72809919E+03</pdfrwt>
<pdfrwt beam="2">  1       -2 0.15066828E-01 0.72809919E+03</pdfrwt>
<totfact> 0.54113090E+02</totfact>
</mgrwt>
</event>
<event>
 6    1  0.2436515E-005  0.3314038E+04  0.7818608E-02  0.8159333E-01
         -2   -1    0    0    0  501 -0.00000000000E+00  0.00000000000E+00  0.68021330379E+03  0.68021330379E+03  0.00000000000E+00 0. -1.
          2   -1    0    0  501    0  0.00000000000E+00 -0.00000000000E+00 -0.40365452210E+04  0.40365452210E+04  0.00000000000E+00 0.  1.
         23    2    1    2    0    0 -0.60114142030E+03  0.77115023572E+03  0.22227966371E+03  0.10069735525E+04  0.92432642332E+02 0.  0.
         13    1    3    3    0    0 -0.40096840729E+03  0.56415967427E+03  0.12715009473E+03  0.70371794656E+03  0.00000000000E+00 0. -1.
        -13    1    3    3    0    0 -0.20017301301E+03  0.20699056144E+03  0.95129568972E+02  0.30325560598E+03  0.00000000000E+00 0.  1.
         22    1    1    2    0    0  0.60114142030E+03 -0.77115023572E+03 -0.35786115809E+04  0.37097849722E+04  0.00000000000E+00 0.  1.
<mgrwt>
<rscale>  0 0.33140379E+04</rscale>
<asrwt>0</asrwt>
<pdfrwt beam="1">  1        2 0.62100696E+00 0.33140379E+04</pdfrwt>
<pdfrwt beam="2">  1       -2 0.10464820E+00 0.33140379E+04</pdfrwt>
<totfact> 0.19704678E-01</totfact>
</mgrwt>
</event>
<event>
 6    1  0.2436515E-005  0.2253614E+04  0.7818608E-02  0.8496438E-01
         -2   -1    0    0    0  501 -0.00000000000E+00  0.00000000000E+00  0.94737663760E+03  0.94737663760E+03  0.00000000000E+00 0. -1.
          2   -1    0    0  501    0  0.00000000000E+00 -0.00000000000E+00 -0.13402212916E+04  0.13402212916E+04  0.00000000000E+00 0.  1.
         23    2    1    2    0    0 -0.57838169304E+03  0.70717479583E+03 -0.86299150056E+03  0.12601449463E+04  0.92678912768E+02 0.  0.
         13    1    3    3    0    0 -0.32879178742E+03  0.38132881117E+03 -0.53567593703E+03  0.73516284673E+03  0.00000000000E+00 0. -1.
        -13    1    3    3    0    0 -0.24958990562E+03  0.32584598466E+03 -0.32731556353E+03  0.52498209953E+03  0.00000000000E+00 0.  1.
         22    1    1    2    0    0  0.57838169304E+03 -0.70717479583E+03  0.47014684659E+03  0.10274529829E+04  0.00000000000E+00 0. -1.
<mgrwt>
<rscale>  0 0.22536143E+04</rscale>
<asrwt>0</asrwt>
<pdfrwt beam="1">  1        2 0.20618789E+00 0.22536143E+04</pdfrwt>
<pdfrwt beam="2">  1       -2 0.14575025E+00 0.22536143E+04</pdfrwt>
<totfact> 0.46089858E+00</totfact>
</mgrwt>
</event>
<event>
 6    1  0.2436515E-005  0.3546633E+04  0.7818608E-02  0.8102827E-01
          2   -1    0    0  501    0  0.00000000000E+00  0.00000000000E+00  0.27292973728E+04  0.27292973728E+04  0.00000000000E+00 0.  1.
         -2   -1    0    0    0  501 -0.00000000000E+00 -0.00000000000E+00 -0.11521834314E+04  0.11521834314E+04  0.00000000000E+00 0. -1.
         23    2    1    2    0    0  0.11779254306E+03  0.17411138528E+04  0.11271555669E+04  0.20793112588E+04  0.87767349213E+02 0.  0.
         11    1    3    3    0    0  0.44846087223E+02  0.54043034258E+03  0.30342667751E+03  0.62140475967E+03  0.00000000000E+00 0. -1.
        -11    1    3    3    0    0  0.72946455842E+02  0.12006835102E+04  0.82372888939E+03  0.14579064991E+04  0.00000000000E+00 0.  1.
         22    1    1    2    0    0 -0.11779254306E+03 -0.17411138528E+04  0.44995837459E+03  0.18021695454E+04  0.00000000000E+00 0.  1.
<mgrwt>
<rscale>  0 0.35466329E+04</rscale>
<asrwt>0</asrwt>
<pdfrwt beam="1">  1        2 0.41989190E+00 0.35466329E+04</pdfrwt>
<pdfrwt beam="2">  1       -2 0.17725899E+00 0.35466329E+04</pdfrwt>
<totfact> 0.39543068E-01</totfact>
</mgrwt>
</event>
<event>
 6    1  0.2436515E-005  0.1252106E+04  0.7818608E-02  0.9068432E-01
         -2   -1    0    0    0  501 -0.00000000000E+00  0.00000000000E+00  0.38989050931E+03  0.38989050931E+03  0.00000000000E+00 0. -1.
          2   -1    0    0  501    0  0.00000000000E+00 -0.00000000000E+00 -0.10052630426E+04  0.10052630426E+04  0.00000000000E+00 0.  1.
         23    2    1    2    0    0  0.36146595392E+03  0.22062945148E+02 -0.87390749705E+03  0.95019879371E+03  0.89549007623E+02 0.  0.
         11    1    3    3    0    0  0.12457450090E+02  0.15093567084E+01 -0.10248180046E+03  0.10324720648E+03  0.00000000000E+00 0.  1.
        -11    1    3    3    0    0  0.34900850383E+03  0.20553588440E+02 -0.77142569659E+03  0.84695158723E+03  0.00000000000E+00 0. -1.
         22    1    1    2    0    0 -0.36146595392E+03 -0.22062945148E+02  0.25853496373E+03  0.44495475822E+03  0.00000000000E+00 0. -1.
<mgrwt>
<rscale>  0 0.12521063E+04</rscale>
<asrwt>0</asrwt>
<pdfrwt beam="1">  1        2 0.15465585E+00 0.12521063E+04</pdfrwt>
<pdfrwt beam="2">  1       -2 0.59983156E-01 0.12521063E+04</pdfrwt>
<totfact> 0.63698603E+01</totfact>
</mgrwt>
</event>
<event>
 6    1  0.2436515E-005  0.3401785E+03  0.7818608E-02  0.1066720E+00
          4   -1    0    0  501    0  0.00000000000E+00  0.00000000000E+00  0.28912589158E+03  0.28912589158E+03  0.00000000000E+00 0.  1.
         -4   -1    0    0    0  501 -0.00000000000E+00 -0.00000000000E+00 -0.10006145952E+03  0.10006145952E+03  0.00000000000E+00 0. -1.
         23    2    1    2    0    0 -0.22885820436E+02 -0.15173619497E+03  0.14398051564E+03  0.22924925945E+03  0.90979120862E+02 0.  0.
         13    1    3    3    0    0  0.95216970643E+01 -0.84170084748E+02  0.12659863807E+03  0.15232360632E+03  0.00000000000E+00 0. -1.
        -13    1    3    3    0    0 -0.32407517501E+02 -0.67566110224E+02  0.17381877569E+02  0.76925653128E+02  0.00000000000E+00 0.  1.
         22    1    1    2    0    0  0.22885820436E+02  0.15173619497E+03  0.45083916424E+02  0.15993809165E+03  0.00000000000E+00 0.  1.
<mgrwt>
<rscale>  0 0.34017853E+03</rscale>
<asrwt>0</asrwt>
<pdfrwt beam="1">  1        4 0.44480906E-01 0.34017853E+03</pdfrwt>
<pdfrwt beam="2">  1       -4 0.15394071E-01 0.34017853E+03</pdfrwt>
<totfact> 0.33992553E+02</totfact>
</mgrwt>
</event>
<event>
 6    1  0.2436515E-005  0.2178919E+04  0.7818608E-02  0.8527254E-01
         -2   -1    0    0    0  501 -0.00000000000E+00  0.00000000000E+00  0.44640866087E+03  0.44640866087E+03  0.00000000000E+00 0. -1.
          2   -1    0    0  501    0  0.00000000000E+00 -0.00000000000E+00 -0.26588230425E+04  0.26588230425E+04  0.00000000000E+00 0.  1.
         23    2    1    2    0    0 -0.67298492022E+03  0.69644407701E+03 -0.40326567182E+03  0.10531688122E+04  0.92726962744E+02 0.  0.
         13    1    3    3    0    0 -0.32354935232E+03  0.39820386328E+03 -0.19731003266E+03  0.54971060487E+03  0.00000000000E+00 0. -1.
        -13    1    3    3    0    0 -0.34943556790E+03  0.29824021373E+03 -0.20595563916E+03  0.50345820730E+03  0.00000000000E+00 0.  1.
         22    1    1    2    0    0  0.67298492022E+03 -0.69644407701E+03 -0.18091487098E+04  0.20520628912E+04  0.00000000000E+00 0.  1.
<mgrwt>
<rscale>  0 0.21789187E+04</rscale>
<asrwt>0</asrwt>
<pdfrwt beam="1">  1        2 0.40904970E+00 0.21789187E+04</pdfrwt>
<pdfrwt beam="2">  1       -2 0.68678256E-01 0.21789187E+04</pdfrwt>
<totfact> 0.49870438E+00</totfact>
</mgrwt>
</event>
<event>
 6    1  0.2436515E-005  0.9364333E+03  0.7818608E-02  0.9381150E-01
          2   -1    0    0  501    0  0.00000000000E+00  0.00000000000E+00  0.56432935337E+03  0.56432935337E+03  0.00000000000E+00 0.  1.
         -2   -1    0    0    0  501 -0.00000000000E+00 -0.00000000000E+00 -0.38847320977E+03  0.38847320977E+03  0.00000000000E+00 0. -1.
         23    2    1    2    0    0 -0.25253528885E+02  0.44854949333E+03  0.20567882510E+03  0.50255398623E+03  0.91773314691E+02 0.  0.
         11    1    3    3    0    0 -0.36926336132E+02  0.21686227087E+03  0.14256591941E+03  0.26214087854E+03  0.00000000000E+00 0.  1.
        -11    1    3    3    0    0  0.11672807246E+02  0.23168722246E+03  0.63112905693E+02  0.24041310768E+03  0.00000000000E+00 0. -1.
         22    1    1    2    0    0  0.25253528885E+02 -0.44854949333E+03 -0.29822681507E+02  0.45024857692E+03  0.00000000000E+00 0. -1.
<mgrwt>
<rscale>  0 0.93643331E+03</rscale>
<asrwt>0</asrwt>
<pdfrwt beam="1">  1        2 0.86819901E-01 0.93643331E+03</pdfrwt>
<pdfrwt beam="2">  1       -2 0.59765109E-01 0.93643331E+03</pdfrwt>
<totfact> 0.13973836E+02</totfact>
</mgrwt>
</event>
<event>
 6    1  0.2436515E-005  0.2694119E+04  0.7818608E-02  0.8336916E-01
         -2   -1    0    0    0  501 -0.00000000000E+00  0.00000000000E+00  0.18334566816E+04  0.18334566816E+04  0.00000000000E+00 0. -1.
          2   -1    0    0  501    0  0.00000000000E+00 -0.00000000000E+00 -0.98969872629E+03  0.98969872629E+03  0.00000000000E+00 0.  1.
         23    2    1    2    0    0 -0.64743815820E+02 -0.99621194320E+03  0.13673992549E+04  0.16958443558E+04  0.97351730352E+02 0.  0.
         13    1    3    3    0    0 -0.30094410246E+02 -0.69166545631E+03  0.87386629378E+03  0.11148762606E+04  0.00000000000E+00 0.  1.
        -13    1    3    3    0    0 -0.34649405574E+02 -0.30454648688E+03  0.49353296113E+03  0.58096809525E+03  0.00000000000E+00 0. -1.
         22    1    1    2    0    0  0.64743815820E+02  0.99621194320E+03 -0.52364129961E+03  0.11273110521E+04  0.00000000000E+00 0.  1.
<mgrwt>
<rscale>  0 0.26941193E+04</rscale>
<asrwt>0</asrwt>
<pdfrwt beam="1">  1        2 0.15226134E+00 0.26941193E+04</pdfrwt>
<pdfrwt beam="2">  1       -2 0.28207026E+00 0.26941193E+04</pdfrwt>
<totfact> 0.91828451E-01</totfact>
</mgrwt>
</event>
<event>
 6    1  0.2436515E-005  0.2100554E+04  0.7818608E-02  0.8560999E-01
         -2   -1    0    0    0  501 -0.00000000000E+00  0.00000000000E+00  0.87813450296E+03  0.87813450296E+03  0.00000000000E+00 0. -1.
          2   -1    0    0  501    0  0.00000000000E+00 -0.00000000000E+00 -0.12561650151E+04  0.12561650151E+04  0.00000000000E+00 0.  1.
         23    2    1    2    0    0  0.97318649956E+02 -0.69619752821E+03 -0.97948062811E+03  0.12091486331E+04  0.92174824138E+02 0.  0.
         11    1    3    3    0    0  0.71073031991E+02 -0.34058534102E+03 -0.41592710550E+03  0.54225926224E+03  0.00000000000E+00 0.  1.
        -11    1    3    3    0    0  0.26245617965E+02 -0.35561218719E+03 -0.56355352261E+03  0.66688937088E+03  0.00000000000E+00 0. -1.
         22    1    1    2    0    0 -0.97318649956E+02  0.69619752821E+03  0.60145011597E+03  0.92515088495E+03  0.00000000000E+00 0. -1.
<mgrwt>
<rscale>  0 0.21005541E+04</rscale>
<asrwt>0</asrwt>
<pdfrwt beam="1">  1        2 0.19325616E+00 0.21005541E+04</pdfrwt>
<pdfrwt beam="2">  1       -2 0.13509762E+00 0.21005541E+04</pdfrwt>
<totfact> 0.63658329E+00</totfact>
</mgrwt>
</event>
<event>
 6    1  0.2436515E-005  0.1984872E+04  0.7818608E-02  0.8613726E-01
         -2   -1    0    0    0  501 -0.00000000000E+00  0.00000000000E+00  0.16056569790E+04  0.16056569790E+04  0.00000000000E+00 0. -1.
          2   -1    0    0  501    0  0.00000000000E+00 -0.00000000000E+00 -0.61341175086E+03  0.61341175086E+03  0.00000000000E+00 0.  1.
         23    2    1    2    0    0  0.44716953910E+03 -0.75788055475E+03  0.10047425997E+04  0.13390120747E+04  0.95404992682E+02 0.  0.
         11    1    3    3    0    0  0.21916713699E+03 -0.46132802614E+03  0.59747935385E+03  0.78602758216E+03  0.00000000000E+00 0. -1.
        -11    1    3    3    0    0  0.22800240211E+03 -0.29655252861E+03  0.40726324588E+03  0.55298449258E+03  0.00000000000E+00 0.  1.
         22    1    1    2    0    0 -0.44716953910E+03  0.75788055475E+03 -0.12497371549E+02  0.88005665515E+03  0.00000000000E+00 0.  1.
<mgrwt>
<rscale>  0 0.19848716E+04</rscale>
<asrwt>0</asrwt>
<pdfrwt beam="1">  1        2 0.94371039E-01 0.19848716E+04</pdfrwt>
<pdfrwt beam="2">  1       -2 0.24702415E+00 0.19848716E+04</pdfrwt>
<totfact> 0.30098118E+00</totfact>
</mgrwt>
</event>
<event>
 6    1  0.2436515E-005  0.2360056E+04  0.7818608E-02  0.8454611E-01
         -2   -1    0    0    0  501 -0.00000000000E+00  0.00000000000E+00  0.12039109055E+04  0.12039109055E+04  0.00000000000E+00 0. -1.
          2   -1    0    0  501    0  0.00000000000E+00 -0.00000000000E+00 -0.11566188785E+04  0.11566188785E+04  0.00000000000E+00 0.  1.
         23    2    1    2    0    0  0.47160113605E+03 -0.39187945048E+03 -0.98268200249E+03  0.11618539993E+04  0.90904689204E+02 0.  0.
         13    1    3    3    0    0  0.40164499373E+03 -0.32984309866E+03 -0.88716262828E+03  0.10281890389E+04  0.00000000000E+00 0. -1.
        -13    1    3    3    0    0  0.69956142321E+02 -0.62036351815E+02 -0.95519374211E+02  0.13366496042E+03  0.00000000000E+00 0.  1.
         22    1    1    2    0    0 -0.47160113605E+03  0.39187945048E+03  0.10299740295E+04  0.11986757847E+04  0.00000000000E+00 0. -1.
<mgrwt>
<rscale>  0 0.23600560E+04</rscale>
<asrwt>0</asrwt>
<pdfrwt beam="1">  1        2 0.17794137E+00 0.23600560E+04</pdfrwt>
<pdfrwt beam="2">  1       -2 0.18521706E+00 0.23600560E+04</pdfrwt>
<totfact> 0.30302137E+00</totfact>
</mgrwt>
</event>
<event>
 6    1  0.2436515E-005  0.1275975E+04  0.7818608E-02  0.9048837E-01
          2   -1    0    0  501    0  0.00000000000E+00  0.00000000000E+00  0.13969526630E+04  0.13969526630E+04  0.00000000000E+00 0.  1.
         -2   -1    0    0    0  501 -0.00000000000E+00 -0.00000000000E+00 -0.29136847659E+03  0.29136847659E+03  0.00000000000E+00 0. -1.
         23    2    1    2    0    0 -0.12350901298E+03 -0.56464092273E+03  0.20826029898E+03  0.62095803041E+03  0.90236774629E+02 0.  0.
         11    1    3    3    0    0 -0.37535098688E+02 -0.29382688103E+03  0.67224722482E+02  0.30374707071E+03  0.00000000000E+00 0. -1.
        -11    1    3    3    0    0 -0.85973914291E+02 -0.27081404170E+03  0.14103557650E+03  0.31721095970E+03  0.00000000000E+00 0.  1.
         22    1    1    2    0    0  0.12350901298E+03  0.56464092273E+03  0.89732388746E+03  0.10673631092E+04  0.00000000000E+00 0.  1.
<mgrwt>
<rscale>  0 0.12759749E+04</rscale>
<asrwt>0</asrwt>
<pdfrwt beam="1">  1        2 0.21491579E+00 0.12759749E+04</pdfrwt>
<pdfrwt beam="2">  1       -2 0.44825920E-01 0.12759749E+04</pdfrwt>
<totfact> 0.67294796E+01</totfact>
</mgrwt>
</event>
<event>
 6    1  0.2436515E-005  0.7269057E+03  0.7818608E-02  0.9672295E-01
         -2   -1    0    0    0  501 -0.00000000000E+00  0.00000000000E+00  0.22964945748E+03  0.22964945748E+03  0.00000000000E+00 0. -1.
          2   -1    0    0  501    0  0.00000000000E+00 -0.00000000000E+00 -0.57521565346E+03  0.57521565346E+03  0.00000000000E+00 0.  1.
         23    2    1    2    0    0  0.16059982654E+03 -0.39669831142E+02  0.17563219926E+03  0.25804359803E+03  0.91508629568E+02 0.  0.
         11    1    3    3    0    0  0.13615013226E+03  0.25403695663E+01  0.10384584320E+03  0.17125206901E+03  0.00000000000E+00 0. -1.
        -11    1    3    3    0    0  0.24449694278E+02 -0.42210200709E+02  0.71786356058E+02  0.86791529023E+02  0.00000000000E+00 0.  1.
         22    1    1    2    0    0 -0.16059982654E+03  0.39669831142E+02 -0.52119839523E+03  0.54682151290E+03  0.00000000000E+00 0.  1.
<mgrwt>
<rscale>  0 0.72690567E+03</rscale>
<asrwt>0</asrwt>
<pdfrwt beam="1">  1        2 0.88494716E-01 0.72690567E+03</pdfrwt>
<pdfrwt beam="2">  1       -2 0.35330686E-01 0.72690567E+03</pdfrwt>
<totfact> 0.39530065E+02</totfact>
</mgrwt>
</event>
<event>
 6    1  0.2436515E-005  0.4964998E+04  0.7818608E-02  0.7833929E-01
         -2   -1    0    0    0  501 -0.00000000000E+00  0.00000000000E+00  0.23778243891E+04  0.23778243891E+04  0.00000000000E+00 0. -1.
          2   -1    0    0  501    0  0.00000000000E+00 -0.00000000000E+00 -0.25917810301E+04  0.25917810301E+04  0.00000000000E+00 0.  1.
         23    2    1    2    0    0  0.14016452761E+04 -0.19754536242E+04 -0.64777094640E+03  0.25088694819E+04  0.88274438804E+02 0.  0.
         11    1    3    3    0    0  0.84924804906E+03 -0.12378744341E+04 -0.43826906881E+03  0.15638526593E+04  0.00000000000E+00 0.  1.
        -11    1    3    3    0    0  0.55239722708E+03 -0.73757919015E+03 -0.20950187758E+03  0.94501682257E+03  0.00000000000E+00 0. -1.
         22    1    1    2    0    0 -0.14016452761E+04  0.19754536242E+04  0.43381430540E+03  0.24607359373E+04  0.00000000000E+00 0.  1.
<mgrwt>
<rscale>  0 0.49649975E+04</rscale>
<asrwt>0</asrwt>
<pdfrwt beam="1">  1        2 0.39873554E+00 0.49649975E+04</pdfrwt>
<pdfrwt beam="2">  1       -2 0.36581914E+00 0.49649975E+04</pdfrwt>
<totfact> 0.27742656E-02</totfact>
</mgrwt>
</event>
<event>
 6    1  0.2436515E-005  0.3505728E+04  0.7818608E-02  0.8112434E-01
          2   -1    0    0  501    0  0.00000000000E+00  0.00000000000E+00  0.22808338976E+04  0.22808338976E+04  0.00000000000E+00 0.  1.
         -2   -1    0    0    0  501 -0.00000000000E+00 -0.00000000000E+00 -0.13471088701E+04  0.13471088701E+04  0.00000000000E+00 0. -1.
         23    2    1    2    0    0 -0.14417682272E+04 -0.54687765126E+03 -0.39289649430E+03  0.15938101642E+04  0.89957756372E+02 0.  0.
         13    1    3    3    0    0 -0.80605836957E+03 -0.35151207931E+03 -0.23646386542E+03  0.91060748773E+03  0.00000000000E+00 0. -1.
        -13    1    3    3    0    0 -0.63570985765E+03 -0.19536557195E+03 -0.15643262889E+03  0.68320267651E+03  0.00000000000E+00 0.  1.
         22    1    1    2    0    0  0.14417682272E+04  0.54687765126E+03  0.13266215218E+04  0.20341326035E+04  0.00000000000E+00 0.  1.
<mgrwt>
<rscale>  0 0.35057276E+04</rscale>
<asrwt>0</asrwt>
<pdfrwt beam="1">  1        2 0.35089752E+00 0.35057276E+04</pdfrwt>
<pdfrwt beam="2">  1       -2 0.20724752E+00 0.35057276E+04</pdfrwt>
<totfact> 0.45544434E-01</totfact>
</mgrwt>
</event>
<event>
 6    1  0.2436515E-005  0.2695820E+04  0.7818608E-02  0.8336363E-01
          2   -1    0    0  501    0  0.00000000000E+00  0.00000000000E+00  0.23661146691E+04  0.23661146691E+04  0.00000000000E+00 0.  1.
         -2   -1    0    0    0  501 -0.00000000000E+00 -0.00000000000E+00 -0.76786672959E+03  0.76786672959E+03  0.00000000000E+00 0. -1.
         23    2    1    2    0    0 -0.34833108832E+01 -0.72468744058E+03 -0.51951883671E+03  0.89565163333E+03  0.84308994816E+02 0.  0.
         13    1    3    3    0    0  0.39866386076E+02 -0.30056302089E+03 -0.21055024788E+03  0.36913258478E+03  0.00000000000E+00 0. -1.
        -13    1    3    3    0    0 -0.43349696959E+02 -0.42412441968E+03 -0.30896858884E+03  0.52651904855E+03  0.00000000000E+00 0.  1.
         22    1    1    2    0    0  0.34833108832E+01  0.72468744058E+03  0.21177667762E+04  0.22383297654E+04  0.00000000000E+00 0.  1.
<mgrwt>
<rscale>  0 0.26958195E+04</rscale>
<asrwt>0</asrwt>
<pdfrwt beam="1">  1        2 0.36401764E+00 0.26958195E+04</pdfrwt>
<pdfrwt beam="2">  1       -2 0.11813334E+00 0.26958195E+04</pdfrwt>
<totfact> 0.20137022E+00</totfact>
</mgrwt>
</event>
<event>
 6    1  0.2436515E-005  0.1235198E+04  0.7818608E-02  0.9082593E-01
         -2   -1    0    0    0  501 -0.00000000000E+00  0.00000000000E+00  0.81500718292E+03  0.81500718292E+03  0.00000000000E+00 0. -1.
          2   -1    0    0  501    0  0.00000000000E+00 -0.00000000000E+00 -0.46800662713E+03  0.46800662713E+03  0.00000000000E+00 0.  1.
         23    2    1    2    0    0 -0.35047641771E+03  0.74161002557E+02  0.69266476462E+03  0.78520127613E+03  0.91776871973E+02 0.  0.
         13    1    3    3    0    0 -0.63055364205E+02  0.14951031038E+02  0.21538037903E+03  0.22491825171E+03  0.00000000000E+00 0. -1.
        -13    1    3    3    0    0 -0.28742105350E+03  0.59209971519E+02  0.47728438559E+03  0.56028302442E+03  0.00000000000E+00 0.  1.
         22    1    1    2    0    0  0.35047641771E+03 -0.74161002557E+02 -0.34566420882E+03  0.49781253392E+03  0.00000000000E+00 0.  1.
<mgrwt>
<rscale>  0 0.12351984E+04</rscale>
<asrwt>0</asrwt>
<pdfrwt beam="1">  1        2 0.72001019E-01 0.12351984E+04</pdfrwt>
<pdfrwt beam="2">  1       -2 0.12538572E+00 0.12351984E+04</pdfrwt>
<totfact> 0.31125750E+01</totfact>
</mgrwt>
</event>
<event>
 6    1  0.2436515E-005  0.3921183E+04  0.7818608E-02  0.8020638E-01
          1   -1    0    0  501    0  0.00000000000E+00  0.00000000000E+00  0.24784805709E+04  0.24784805709E+04  0.00000000000E+00 0.  1.
         -1   -1    0    0    0  501 -0.00000000000E+00 -0.00000000000E+00 -0.15509178871E+04  0.15509178871E+04  0.00000000000E+00 0. -1.
         23    2    1    2    0    0 -0.18196463487E+04 -0.32142122595E+03 -0.20617105374E+03  0.18615016370E+04  0.90870251023E+02 0.  0.
         13    1    3    3    0    0 -0.36721702019E+03 -0.70975979710E+02 -0.56157298613E+01  0.37405543176E+03  0.00000000000E+00 0. -1.
        -13    1    3    3    0    0 -0.14524293285E+04 -0.25044524624E+03 -0.20055532388E+03  0.14874462053E+04  0.00000000000E+00 0.  1.
         22    1    1    2    0    0  0.18196463487E+04  0.32142122595E+03  0.11337337375E+04  0.21678968209E+04  0.00000000000E+00 0.  1.
<mgrwt>
<rscale>  0 0.39211834E+04</rscale>
<asrwt>0</asrwt>
<pdfrwt beam="1">  1        1 0.38130470E+00 0.39211834E+04</pdfrwt>
<pdfrwt beam="2">  1       -1 0.23860275E+00 0.39211834E+04</pdfrwt>
<totfact> 0.91458483E-02</totfact>
</mgrwt>
</event>
<event>
 6    1  0.2436515E-005  0.2514143E+04  0.7818608E-02  0.8397964E-01
         -2   -1    0    0    0  501 -0.00000000000E+00  0.00000000000E+00  0.15830034870E+04  0.15830034870E+04  0.00000000000E+00 0. -1.
          2   -1    0    0  501    0  0.00000000000E+00 -0.00000000000E+00 -0.99824678310E+03  0.99824678310E+03  0.00000000000E+00 0.  1.
         23    2    1    2    0    0 -0.76605327270E+03  0.99362889548E+03  0.33761136055E+03  0.13024943046E+04  0.91509476289E+02 0.  0.
         13    1    3    3    0    0 -0.18381536858E+03  0.28091554803E+03  0.58281225757E+02  0.34073205914E+03  0.00000000000E+00 0.  1.
        -13    1    3    3    0    0 -0.58223790412E+03  0.71271334746E+03  0.27933013479E+03  0.96176224548E+03  0.00000000000E+00 0. -1.
         22    1    1    2    0    0  0.76605327270E+03 -0.99362889548E+03  0.24714534337E+03  0.12787559655E+04  0.00000000000E+00 0.  1.
<mgrwt>
<rscale>  0 0.25141425E+04</rscale>
<asrwt>0</asrwt>
<pdfrwt beam="1">  1        2 0.15357643E+00 0.25141425E+04</pdfrwt>
<pdfrwt beam="2">  1       -2 0.24353900E+00 0.25141425E+04</pdfrwt>
<totfact> 0.15843767E+00</totfact>
</mgrwt>
</event>
<event>
 6    1  0.2570622E-005  0.3197419E+04  0.7818608E-02  0.8189499E-01
         -2   -1    0    0    0  501 -0.00000000000E+00  0.00000000000E+00  0.20342203461E+04  0.20342203461E+04  0.00000000000E+00 0. -1.
          2   -1    0    0  501    0  0.00000000000E+00 -0.00000000000E+00 -0.12564384928E+04  0.12564384928E+04  0.00000000000E+00 0.  1.
         23    2    1    2    0    0  0.61599293437E+03  0.24640948774E+01  0.19060961252E+04  0.20051447537E+04  0.89160966179E+02 0.  0.
         13    1    3    3    0    0  0.43619282998E+03 -0.22442311979E+01  0.14717812148E+04  0.15350599877E+04  0.00000000000E+00 0. -1.
        -13    1    3    3    0    0  0.17980010438E+03  0.47083260753E+01  0.43431491035E+03  0.47008476600E+03  0.00000000000E+00 0.  1.
         22    1    1    2    0    0 -0.61599293437E+03 -0.24640948774E+01 -0.11283142719E+04  0.12855140852E+04  0.00000000000E+00 0.  1.
<mgrwt>
<rscale>  0 0.31974194E+04</rscale>
<asrwt>0</asrwt>
<pdfrwt beam="1">  1        2 0.19329823E+00 0.31974194E+04</pdfrwt>
<pdfrwt beam="2">  1       -2 0.31295698E+00 0.31974194E+04</pdfrwt>
<totfact> 0.39072693E-01</totfact>
</mgrwt>
</event>
<event>
 6    1  0.2436515E-005  0.9004201E+03  0.7818608E-02  0.9425056E-01
          2   -1    0    0  501    0  0.00000000000E+00  0.00000000000E+00  0.16136678267E+04  0.16136678267E+04  0.00000000000E+00 0.  1.
         -2   -1    0    0    0  501 -0.00000000000E+00 -0.00000000000E+00 -0.12560768589E+03  0.12560768589E+03  0.00000000000E+00 0. -1.
         23    2    1    2    0    0 -0.24109107815E+03  0.22135054463E+03  0.13357059935E+04  0.13782592280E+04  0.91471452764E+02 0.  0.
         13    1    3    3    0    0 -0.16712984107E+03  0.12900958615E+03  0.10074018892E+04  0.10292883092E+04  0.00000000000E+00 0.  1.
        -13    1    3    3    0    0 -0.73961237084E+02  0.92340958477E+02  0.32830410433E+03  0.34897091873E+03  0.00000000000E+00 0. -1.
         22    1    1    2    0    0  0.24109107815E+03 -0.22135054463E+03  0.15235414722E+03  0.36101628460E+03  0.00000000000E+00 0. -1.
<mgrwt>
<rscale>  0 0.90042008E+03</rscale>
<asrwt>0</asrwt>
<pdfrwt beam="1">  1        2 0.24825657E+00 0.90042008E+03</pdfrwt>
<pdfrwt beam="2">  1       -2 0.19324261E-01 0.90042008E+03</pdfrwt>
<totfact> 0.24969563E+02</totfact>
</mgrwt>
</event>
<event>
 6    1  0.2436515E-005  0.3635045E+04  0.7818608E-02  0.8082511E-01
         -2   -1    0    0    0  501 -0.00000000000E+00  0.00000000000E+00  0.87607633071E+03  0.87607633071E+03  0.00000000000E+00 0.  1.
          2   -1    0    0  501    0  0.00000000000E+00 -0.00000000000E+00 -0.37706628551E+04  0.37706628551E+04  0.00000000000E+00 0. -1.
         23    2    1    2    0    0 -0.83410500801E+02 -0.17853146280E+04 -0.18618899670E+04  0.25825764470E+04  0.93601405287E+02 0.  0.
         11    1    3    3    0    0 -0.92454666009E+02 -0.15855623165E+04 -0.16858292037E+04  0.23161553983E+04  0.00000000000E+00 0.  1.
        -11    1    3    3    0    0  0.90441652078E+01 -0.19975231145E+03 -0.17606076322E+03  0.26642104871E+03  0.00000000000E+00 0. -1.
         22    1    1    2    0    0  0.83410500801E+02  0.17853146280E+04 -0.10326965574E+04  0.20641627388E+04  0.00000000000E+00 0. -1.
<mgrwt>
<rscale>  0 0.36350452E+04</rscale>
<asrwt>0</asrwt>
<pdfrwt beam="1">  1        2 0.58010197E+00 0.36350452E+04</pdfrwt>
<pdfrwt beam="2">  1       -2 0.13478098E+00 0.36350452E+04</pdfrwt>
<totfact> 0.16603217E-01</totfact>
</mgrwt>
</event>
<event>
 6    1  0.2436515E-005  0.1258193E+04  0.7818608E-02  0.9063392E-01
         -2   -1    0    0    0  501 -0.00000000000E+00  0.00000000000E+00  0.54775986400E+03  0.54775986400E+03  0.00000000000E+00 0. -1.
          2   -1    0    0  501    0  0.00000000000E+00 -0.00000000000E+00 -0.72251068160E+03  0.72251068160E+03  0.00000000000E+00 0.  1.
         23    2    1    2    0    0 -0.35308149730E+03  0.40940113107E+03  0.23057999247E+03  0.59457172552E+03  0.89847504166E+02 0.  0.
         11    1    3    3    0    0 -0.15097061317E+03  0.12543176777E+03  0.11431612694E+03  0.22714187479E+03  0.00000000000E+00 0. -1.
        -11    1    3    3    0    0 -0.20211088413E+03  0.28396936330E+03  0.11626386553E+03  0.36742985073E+03  0.00000000000E+00 0.  1.
         22    1    1    2    0    0  0.35308149730E+03 -0.40940113107E+03 -0.40533081007E+03  0.67569882008E+03  0.00000000000E+00 0.  1.
<mgrwt>
<rscale>  0 0.12581929E+04</rscale>
<asrwt>0</asrwt>
<pdfrwt beam="1">  1        2 0.11115549E+00 0.12581929E+04</pdfrwt>
<pdfrwt beam="2">  1       -2 0.84270749E-01 0.12581929E+04</pdfrwt>
<totfact> 0.47552472E+01</totfact>
</mgrwt>
</event>
<event>
 6    1  0.2436515E-005  0.2737679E+04  0.7818608E-02  0.8322882E-01
          2   -1    0    0  501    0  0.00000000000E+00  0.00000000000E+00  0.15007034156E+04  0.15007034156E+04  0.00000000000E+00 0.  1.
         -2   -1    0    0    0  501 -0.00000000000E+00 -0.00000000000E+00 -0.12485621018E+04  0.12485621018E+04  0.00000000000E+00 0. -1.
         23    2    1    2    0    0 -0.15805835300E+03  0.97492554552E+03 -0.82331562887E+03  0.12891046024E+04  0.92085769692E+02 0.  0.
         11    1    3    3    0    0 -0.47187192737E+02  0.33617885238E+03 -0.22795129059E+03  0.40890664317E+03  0.00000000000E+00 0.  1.
        -11    1    3    3    0    0 -0.11087116026E+03  0.63874669313E+03 -0.59536433828E+03  0.88019795925E+03  0.00000000000E+00 0. -1.
         22    1    1    2    0    0  0.15805835300E+03 -0.97492554552E+03  0.10754569426E+04  0.14601609150E+04  0.00000000000E+00 0.  1.
<mgrwt>
<rscale>  0 0.27376789E+04</rscale>
<asrwt>0</asrwt>
<pdfrwt beam="1">  1        2 0.23087745E+00 0.27376789E+04</pdfrwt>
<pdfrwt beam="2">  1       -2 0.19208648E+00 0.27376789E+04</pdfrwt>
<totfact> 0.16649895E+00</totfact>
</mgrwt>
</event>
<event>
 6    1  0.2436515E-005  0.3824173E+04  0.7818608E-02  0.8040987E-01
          2   -1    0    0  501    0  0.00000000000E+00  0.00000000000E+00  0.29334044020E+04  0.29334044020E+04  0.00000000000E+00 0.  1.
         -2   -1    0    0    0  501 -0.00000000000E+00 -0.00000000000E+00 -0.12463586857E+04  0.12463586857E+04  0.00000000000E+00 0. -1.
         23    2    1    2    0    0 -0.14962210181E+04  0.16636886506E+03 -0.44263521348E+03  0.15717184569E+04  0.89537932010E+02 0.  0.
         11    1    3    3    0    0 -0.44270981463E+03  0.77313430904E+02 -0.16344269349E+03  0.47820796796E+03  0.00000000000E+00 0.  1.
        -11    1    3    3    0    0 -0.10535112034E+04  0.89055434156E+02 -0.27919252000E+03  0.10935104889E+04  0.00000000000E+00 0. -1.
         22    1    1    2    0    0  0.14962210181E+04 -0.16636886506E+03  0.21296809297E+04  0.26080446309E+04  0.00000000000E+00 0.  1.
<mgrwt>
<rscale>  0 0.38241726E+04</rscale>
<asrwt>0</asrwt>
<pdfrwt beam="1">  1        2 0.45129298E+00 0.38241726E+04</pdfrwt>
<pdfrwt beam="2">  1       -2 0.19174749E+00 0.38241726E+04</pdfrwt>
<totfact> 0.23118857E-01</totfact>
</mgrwt>
</event>
<event>
 6    1  0.2436515E-005  0.3029977E+04  0.7818608E-02  0.8235222E-01
         -2   -1    0    0    0  501 -0.00000000000E+00  0.00000000000E+00  0.18862270328E+04  0.18862270328E+04  0.00000000000E+00 0. -1.
          2   -1    0    0  501    0  0.00000000000E+00 -0.00000000000E+00 -0.12168152424E+04  0.12168152424E+04  0.00000000000E+00 0.  1.
         23    2    1    2    0    0  0.87098899669E+03  0.22255458493E+03  0.15820644648E+04  0.18219929866E+04  0.92618015746E+02 0.  0.
         13    1    3    3    0    0  0.41666476697E+03  0.14076061235E+03  0.83696600569E+03  0.94548145022E+03  0.00000000000E+00 0.  1.
        -13    1    3    3    0    0  0.45432422973E+03  0.81793972584E+02  0.74509845915E+03  0.87651153643E+03  0.00000000000E+00 0. -1.
         22    1    1    2    0    0 -0.87098899669E+03 -0.22255458493E+03 -0.91265267437E+03  0.12810492885E+04  0.00000000000E+00 0.  1.
<mgrwt>
<rscale>  0 0.30299768E+04</rscale>
<asrwt>0</asrwt>
<pdfrwt beam="1">  1        2 0.18720234E+00 0.30299768E+04</pdfrwt>
<pdfrwt beam="2">  1       -2 0.29018877E+00 0.30299768E+04</pdfrwt>
<totfact> 0.57670445E-01</totfact>
</mgrwt>
</event>
<event>
 6    1  0.2436515E-005  0.1965809E+04  0.7818608E-02  0.8622775E-01
          2   -1    0    0  501    0  0.00000000000E+00  0.00000000000E+00  0.15765191773E+04  0.15765191773E+04  0.00000000000E+00 0.  1.
         -2   -1    0    0    0  501 -0.00000000000E+00 -0.00000000000E+00 -0.61280672091E+03  0.61280672091E+03  0.00000000000E+00 0. -1.
         23    2    1    2    0    0  0.17999888507E+03 -0.61073243816E+03  0.13137526214E+04  0.14627436064E+04  0.90990099008E+02 0.  0.
         11    1    3    3    0    0  0.73598563107E+02 -0.16805038908E+03  0.45877983131E+03  0.49410182694E+03  0.00000000000E+00 0. -1.
        -11    1    3    3    0    0  0.10640032196E+03 -0.44268204909E+03  0.85497279008E+03  0.96864177944E+03  0.00000000000E+00 0.  1.
         22    1    1    2    0    0 -0.17999888507E+03  0.61073243816E+03 -0.35004016503E+03  0.72658229182E+03  0.00000000000E+00 0. -1.
<mgrwt>
<rscale>  0 0.19658093E+04</rscale>
<asrwt>0</asrwt>
<pdfrwt beam="1">  1        2 0.24254141E+00 0.19658093E+04</pdfrwt>
<pdfrwt beam="2">  1       -2 0.94277958E-01 0.19658093E+04</pdfrwt>
<totfact> 0.10161064E+01</totfact>
</mgrwt>
</event>
<event>
 6    1  0.2436515E-005  0.1327342E+04  0.7818608E-02  0.9008159E-01
          2   -1    0    0  501    0  0.00000000000E+00  0.00000000000E+00  0.15957890988E+04  0.15957890988E+04  0.00000000000E+00 0.  1.
         -2   -1    0    0    0  501 -0.00000000000E+00 -0.00000000000E+00 -0.27601346443E+03  0.27601346443E+03  0.00000000000E+00 0. -1.
         23    2    1    2    0    0  0.25712780332E+03  0.54686055067E+03  0.10396201956E+04  0.12057258117E+04  0.88280307733E+02 0.  0.
         13    1    3    3    0    0  0.23690958788E+03  0.42970244552E+03  0.80653437041E+03  0.94406993129E+03  0.00000000000E+00 0.  1.
        -13    1    3    3    0    0  0.20218215441E+02  0.11715810515E+03  0.23308582518E+03  0.26165588038E+03  0.00000000000E+00 0. -1.
         22    1    1    2    0    0 -0.25712780332E+03 -0.54686055067E+03  0.28015543882E+03  0.66607675160E+03  0.00000000000E+00 0. -1.
<mgrwt>
<rscale>  0 0.13273421E+04</rscale>
<asrwt>0</asrwt>
<pdfrwt beam="1">  1        2 0.24550601E+00 0.13273421E+04</pdfrwt>
<pdfrwt beam="2">  1       -2 0.42463611E-01 0.13273421E+04</pdfrwt>
<totfact> 0.57650821E+01</totfact>
</mgrwt>
</event>
<event>
 6    1  0.2436515E-005  0.1984331E+04  0.7818608E-02  0.8613982E-01
          2   -1    0    0  501    0  0.00000000000E+00  0.00000000000E+00  0.34488589513E+04  0.34488589513E+04  0.00000000000E+00 0. -1.
         -2   -1    0    0    0  501 -0.00000000000E+00 -0.00000000000E+00 -0.28542544747E+03  0.28542544747E+03  0.00000000000E+00 0.  1.
         23    2    1    2    0    0  0.31236834465E+03 -0.93977887161E+03  0.15617797518E+04  0.18511877333E+04  0.83556689609E+02 0.  0.
         13    1    3    3    0    0  0.48373093503E+02 -0.20392257953E+03  0.38597738665E+03  0.43920714660E+03  0.00000000000E+00 0.  1.
        -13    1    3    3    0    0  0.26399525114E+03 -0.73585629207E+03  0.11758023652E+04  0.14119805867E+04  0.00000000000E+00 0. -1.
         22    1    1    2    0    0 -0.31236834465E+03  0.93977887161E+03  0.16016537520E+04  0.18830966655E+04  0.00000000000E+00 0. -1.
<mgrwt>
<rscale>  0 0.19843307E+04</rscale>
<asrwt>0</asrwt>
<pdfrwt beam="1">  1        2 0.53059366E+00 0.19843307E+04</pdfrwt>
<pdfrwt beam="2">  1       -2 0.43911610E-01 0.19843307E+04</pdfrwt>
<totfact> 0.40589633E+00</totfact>
</mgrwt>
</event>
<event>
 6    1  0.2436515E-005  0.3691972E+04  0.7818608E-02  0.8069743E-01
          2   -1    0    0  501    0  0.00000000000E+00  0.00000000000E+00  0.19174682395E+04  0.19174682395E+04  0.00000000000E+00 0. -1.
         -2   -1    0    0    0  501 -0.00000000000E+00 -0.00000000000E+00 -0.17771687386E+04  0.17771687386E+04  0.00000000000E+00 0.  1.
         23    2    1    2    0    0  0.10077814465E+04  0.15452598095E+04  0.67255800025E+02  0.18483469941E+04  0.91716657986E+02 0.  0.
         13    1    3    3    0    0  0.44597773058E+03  0.73545418623E+03  0.67396658150E+02  0.86274637394E+03  0.00000000000E+00 0. -1.
        -13    1    3    3    0    0  0.56180371593E+03  0.80980562325E+03 -0.14085812426E+00  0.98560062019E+03  0.00000000000E+00 0.  1.
         22    1    1    2    0    0 -0.10077814465E+04 -0.15452598095E+04  0.73043700901E+02  0.18462899840E+04  0.00000000000E+00 0. -1.
<mgrwt>
<rscale>  0 0.36919722E+04</rscale>
<asrwt>0</asrwt>
<pdfrwt beam="1">  1        2 0.29499511E+00 0.36919722E+04</pdfrwt>
<pdfrwt beam="2">  1       -2 0.27341057E+00 0.36919722E+04</pdfrwt>
<totfact> 0.27751579E-01</totfact>
</mgrwt>
</event>
<event>
 6    1  0.2436515E-005  0.4643523E+04  0.7818608E-02  0.7885981E-01
         -1   -1    0    0    0  501 -0.00000000000E+00  0.00000000000E+00  0.31366503026E+04  0.31366503026E+04  0.00000000000E+00 0.  1.
          1   -1    0    0  501    0  0.00000000000E+00 -0.00000000000E+00 -0.17185775074E+04  0.17185775074E+04  0.00000000000E+00 0. -1.
         23    2    1    2    0    0  0.12768221740E+04 -0.18234122067E+04  0.13960562190E+04  0.26291119844E+04  0.90276909928E+02 0.  0.
         11    1    3    3    0    0  0.39231152270E+03 -0.53096447455E+03  0.45880817454E+03  0.80395058623E+03  0.00000000000E+00 0.  1.
        -11    1    3    3    0    0  0.88451065133E+03 -0.12924477321E+04  0.93724804443E+03  0.18251613982E+04  0.00000000000E+00 0. -1.
         22    1    1    2    0    0 -0.12768221740E+04  0.18234122067E+04  0.22016576204E+02  0.22261158256E+04  0.00000000000E+00 0. -1.
<mgrwt>
<rscale>  0 0.46435231E+04</rscale>
<asrwt>0</asrwt>
<pdfrwt beam="1">  1        1 0.26439654E+00 0.46435231E+04</pdfrwt>
<pdfrwt beam="2">  1       -1 0.48256158E+00 0.46435231E+04</pdfrwt>
<totfact> 0.66943408E-03</totfact>
</mgrwt>
</event>
<event>
 6    1  0.2436515E-005  0.2928529E+04  0.7818608E-02  0.8264439E-01
         -2   -1    0    0    0  501 -0.00000000000E+00  0.00000000000E+00  0.68859105237E+03  0.68859105237E+03  0.00000000000E+00 0. -1.
          2   -1    0    0  501    0  0.00000000000E+00 -0.00000000000E+00 -0.31137070065E+04  0.31137070065E+04  0.00000000000E+00 0.  1.
         23    2    1    2    0    0  0.74781941963E+03 -0.12049961472E+04 -0.74907176450E+03  0.16067631070E+04  0.96589722829E+02 0.  0.
         13    1    3    3    0    0  0.46472619180E+03 -0.77677244374E+03 -0.42780268846E+03  0.10011798055E+04  0.00000000000E+00 0. -1.
        -13    1    3    3    0    0  0.28309322783E+03 -0.42822370346E+03 -0.32126907605E+03  0.60558330152E+03  0.00000000000E+00 0.  1.
         22    1    1    2    0    0 -0.74781941963E+03  0.12049961472E+04 -0.16760441896E+04  0.21955349518E+04  0.00000000000E+00 0.  1.
<mgrwt>
<rscale>  0 0.29285292E+04</rscale>
<asrwt>0</asrwt>
<pdfrwt beam="1">  1        2 0.47903185E+00 0.29285292E+04</pdfrwt>
<pdfrwt beam="2">  1       -2 0.10593709E+00 0.29285292E+04</pdfrwt>
<totfact> 0.91314675E-01</totfact>
</mgrwt>
</event>
<event>
 6    1  0.2436515E-005  0.3739233E+04  0.7818608E-02  0.8059323E-01
          2   -1    0    0  501    0  0.00000000000E+00  0.00000000000E+00  0.43373399116E+04  0.43373399116E+04  0.00000000000E+00 0.  1.
         -2   -1    0    0    0  501 -0.00000000000E+00 -0.00000000000E+00 -0.80590074063E+03  0.80590074063E+03  0.00000000000E+00 0. -1.
         23    2    1    2    0    0 -0.12560931121E+04  0.66869100486E+02 -0.13373139578E+03  0.12682288244E+04  0.90988360920E+02 0.  0.
         13    1    3    3    0    0 -0.38461762644E+03 -0.13619163949E+02 -0.65454910105E+02  0.39038512453E+03  0.00000000000E+00 0. -1.
        -13    1    3    3    0    0 -0.87147548567E+03  0.80488264435E+02 -0.68276485675E+02  0.87784369983E+03  0.00000000000E+00 0.  1.
         22    1    1    2    0    0  0.12560931121E+04 -0.66869100486E+02  0.36651705667E+04  0.38750118279E+04  0.00000000000E+00 0.  1.
<mgrwt>
<rscale>  0 0.37392328E+04</rscale>
<asrwt>0</asrwt>
<pdfrwt beam="1">  1        2 0.66728305E+00 0.37392328E+04</pdfrwt>
<pdfrwt beam="2">  1       -2 0.12398473E+00 0.37392328E+04</pdfrwt>
<totfact> 0.68839421E-02</totfact>
</mgrwt>
</event>
<event>
 6    1  0.2436515E-005  0.3007188E+04  0.7818608E-02  0.8241681E-01
         -2   -1    0    0    0  501 -0.00000000000E+00  0.00000000000E+00  0.10024780832E+04  0.10024780832E+04  0.00000000000E+00 0. -1.
          2   -1    0    0  501    0  0.00000000000E+00 -0.00000000000E+00 -0.22552060615E+04  0.22552060615E+04  0.00000000000E+00 0.  1.
         23    2    1    2    0    0  0.44148680852E+03 -0.29072827875E+03 -0.21503251306E+04  0.22159960042E+04  0.85478588909E+02 0.  0.
         11    1    3    3    0    0  0.23375903796E+03 -0.16793464909E+03 -0.99803832688E+03  0.10387135486E+04  0.00000000000E+00 0.  1.
        -11    1    3    3    0    0  0.20772777055E+03 -0.12279362965E+03 -0.11522868038E+04  0.11772824556E+04  0.00000000000E+00 0. -1.
         22    1    1    2    0    0 -0.44148680852E+03  0.29072827875E+03  0.89759715228E+03  0.10416881404E+04  0.00000000000E+00 0. -1.
<mgrwt>
<rscale>  0 0.30071878E+04</rscale>
<asrwt>0</asrwt>
<pdfrwt beam="1">  1        2 0.34695478E+00 0.30071878E+04</pdfrwt>
<pdfrwt beam="2">  1       -2 0.15422740E+00 0.30071878E+04</pdfrwt>
<totfact> 0.11439978E+00</totfact>
</mgrwt>
</event>
<event>
 6    1  0.2436515E-005  0.6058538E+03  0.7818608E-02  0.9893335E-01
          4   -1    0    0  501    0  0.00000000000E+00  0.00000000000E+00  0.19486459667E+03  0.19486459667E+03  0.00000000000E+00 0.  1.
         -4   -1    0    0    0  501 -0.00000000000E+00 -0.00000000000E+00 -0.47091530327E+03  0.47091530327E+03  0.00000000000E+00 0. -1.
         23    2    1    2    0    0 -0.14845485591E+03  0.12770577379E+03 -0.38500088295E+03  0.44168672774E+03  0.92270670750E+02 0.  0.
         13    1    3    3    0    0 -0.43850986074E+02 -0.50981276499E+01 -0.11436939547E+03  0.12259387630E+03  0.00000000000E+00 0. -1.
        -13    1    3    3    0    0 -0.10460386984E+03  0.13280390144E+03 -0.27063148748E+03  0.31909285144E+03  0.00000000000E+00 0.  1.
         22    1    1    2    0    0  0.14845485591E+03 -0.12770577379E+03  0.10895017635E+03  0.22409317221E+03  0.00000000000E+00 0.  1.
<mgrwt>
<rscale>  0 0.60585385E+03</rscale>
<asrwt>0</asrwt>
<pdfrwt beam="1">  1        4 0.29979169E-01 0.60585385E+03</pdfrwt>
<pdfrwt beam="2">  1       -4 0.72448507E-01 0.60585385E+03</pdfrwt>
<totfact> 0.36858451E+01</totfact>
</mgrwt>
</event>
<event>
 6    1  0.3012384E-005  0.3197787E+04  0.7818608E-02  0.8189402E-01
         -2   -1    0    0    0  501 -0.00000000000E+00  0.00000000000E+00  0.10489297728E+04  0.10489297728E+04  0.00000000000E+00 0. -1.
          2   -1    0    0  501    0  0.00000000000E+00 -0.00000000000E+00 -0.24372080311E+04  0.24372080311E+04  0.00000000000E+00 0.  1.
         23    2    1    2    0    0 -0.25451324355E+03 -0.15062594704E+04 -0.18488523756E+03  0.15414657633E+04  0.91321218907E+02 0.  0.
         11    1    3    3    0    0 -0.19142321573E+03 -0.10798580290E+04 -0.92138158990E+02  0.11005569729E+04  0.00000000000E+00 0. -1.
        -11    1    3    3    0    0 -0.63090027820E+02 -0.42640144139E+03 -0.92747078565E+02  0.44090879035E+03  0.00000000000E+00 0.  1.
         22    1    1    2    0    0  0.25451324355E+03  0.15062594704E+04 -0.12033930207E+04  0.19446720406E+04  0.00000000000E+00 0.  1.
<mgrwt>
<rscale>  0 0.31977868E+04</rscale>
<asrwt>0</asrwt>
<pdfrwt beam="1">  1        2 0.37495507E+00 0.31977868E+04</pdfrwt>
<pdfrwt beam="2">  1       -2 0.16137381E+00 0.31977868E+04</pdfrwt>
<totfact> 0.78423690E-01</totfact>
</mgrwt>
</event>
<event>
 6    1  0.2436515E-005  0.2413554E+04  0.7818608E-02  0.8434447E-01
          2   -1    0    0  501    0  0.00000000000E+00  0.00000000000E+00  0.15741521758E+04  0.15741521758E+04  0.00000000000E+00 0.  1.
         -2   -1    0    0    0  501 -0.00000000000E+00 -0.00000000000E+00 -0.92513939504E+03  0.92513939504E+03  0.00000000000E+00 0. -1.
         23    2    1    2    0    0  0.18073866569E+02  0.10780826537E+04  0.88234473648E+03  0.13960995321E+04  0.89290518749E+02 0.  0.
         11    1    3    3    0    0 -0.84427481937E+01  0.78822167766E+03  0.68627308873E+03  0.10451485279E+04  0.00000000000E+00 0. -1.
        -11    1    3    3    0    0  0.26516614763E+02  0.28986097604E+03  0.19607164776E+03  0.35095100419E+03  0.00000000000E+00 0.  1.
         22    1    1    2    0    0 -0.18073866569E+02 -0.10780826537E+04 -0.23333195567E+03  0.11031920388E+04  0.00000000000E+00 0. -1.
<mgrwt>
<rscale>  0 0.24135536E+04</rscale>
<asrwt>0</asrwt>
<pdfrwt beam="1">  1        2 0.24217726E+00 0.24135536E+04</pdfrwt>
<pdfrwt beam="2">  1       -2 0.14232914E+00 0.24135536E+04</pdfrwt>
<totfact> 0.35637399E+00</totfact>
</mgrwt>
</event>
<event>
 6    1  0.2436515E-005  0.2446838E+04  0.7818608E-02  0.8422173E-01
          2   -1    0    0  501    0  0.00000000000E+00  0.00000000000E+00  0.18565820575E+04  0.18565820575E+04  0.00000000000E+00 0.  1.
         -2   -1    0    0    0  501 -0.00000000000E+00 -0.00000000000E+00 -0.80618809837E+03  0.80618809837E+03  0.00000000000E+00 0. -1.
         23    2    1    2    0    0 -0.96964471522E+03 -0.69024106466E+03  0.22611882792E+03  0.12149880269E+04  0.91774615284E+02 0.  0.
         13    1    3    3    0    0 -0.73995722649E+02 -0.27516165583E+02  0.51802558062E+01  0.79115999576E+02  0.00000000000E+00 0. -1.
        -13    1    3    3    0    0 -0.89564899257E+03 -0.66272489907E+03  0.22093857212E+03  0.11358720273E+04  0.00000000000E+00 0.  1.
         22    1    1    2    0    0  0.96964471522E+03  0.69024106466E+03  0.82427513116E+03  0.14477821290E+04  0.00000000000E+00 0.  1.
<mgrwt>
<rscale>  0 0.24468383E+04</rscale>
<asrwt>0</asrwt>
<pdfrwt beam="1">  1        2 0.28562801E+00 0.24468383E+04</pdfrwt>
<pdfrwt beam="2">  1       -2 0.12402894E+00 0.24468383E+04</pdfrwt>
<totfact> 0.35159899E+00</totfact>
</mgrwt>
</event>
<event>
 6    1  0.2436515E-005  0.3790865E+04  0.7818608E-02  0.8048118E-01
          2   -1    0    0  501    0  0.00000000000E+00  0.00000000000E+00  0.41616382557E+04  0.41616382557E+04  0.00000000000E+00 0.  1.
         -2   -1    0    0    0  501 -0.00000000000E+00 -0.00000000000E+00 -0.86328126232E+03  0.86328126232E+03  0.00000000000E+00 0. -1.
         23    2    1    2    0    0  0.26363422363E+03  0.13437754399E+04  0.33851421351E+04  0.36527799124E+04  0.91533472606E+02 0.  0.
         11    1    3    3    0    0  0.18160312708E+03  0.96003188170E+03  0.25208041041E+04  0.27035336582E+04  0.00000000000E+00 0.  1.
        -11    1    3    3    0    0  0.82031096556E+02  0.38374355817E+03  0.86433803099E+03  0.94924625416E+03  0.00000000000E+00 0. -1.
         22    1    1    2    0    0 -0.26363422363E+03 -0.13437754399E+04 -0.86785141701E+02  0.13721396057E+04  0.00000000000E+00 0. -1.
<mgrwt>
<rscale>  0 0.37908650E+04</rscale>
<asrwt>0</asrwt>
<pdfrwt beam="1">  1        2 0.64025203E+00 0.37908650E+04</pdfrwt>
<pdfrwt beam="2">  1       -2 0.13281250E+00 0.37908650E+04</pdfrwt>
<totfact> 0.82479942E-02</totfact>
</mgrwt>
</event>
<event>
 6    1  0.2436515E-005  0.2615826E+04  0.7818608E-02  0.8362845E-01
          2   -1    0    0  501    0  0.00000000000E+00  0.00000000000E+00  0.17343321412E+04  0.17343321412E+04  0.00000000000E+00 0.  1.
         -2   -1    0    0    0  501 -0.00000000000E+00 -0.00000000000E+00 -0.98633748568E+03  0.98633748568E+03  0.00000000000E+00 0. -1.
         23    2    1    2    0    0 -0.18048711359E+03  0.87952079531E+03 -0.61228468934E+03  0.10907946858E+04  0.93851362160E+02 0.  0.
         13    1    3    3    0    0 -0.23046218067E+02  0.32384604834E+03 -0.23832369646E+03  0.40274753319E+03  0.00000000000E+00 0. -1.
        -13    1    3    3    0    0 -0.15744089552E+03  0.55567474697E+03 -0.37396099288E+03  0.68804715260E+03  0.00000000000E+00 0.  1.
         22    1    1    2    0    0  0.18048711359E+03 -0.87952079531E+03  0.13602793449E+04  0.16298749411E+04  0.00000000000E+00 0.  1.
<mgrwt>
<rscale>  0 0.26158263E+04</rscale>
<asrwt>0</asrwt>
<pdfrwt beam="1">  1        2 0.26682033E+00 0.26158263E+04</pdfrwt>
<pdfrwt beam="2">  1       -2 0.15174423E+00 0.26158263E+04</pdfrwt>
<totfact> 0.24092327E+00</totfact>
</mgrwt>
</event>
<event>
 6    1  0.2436515E-005  0.3882557E+04  0.7818608E-02  0.8028667E-01
         -2   -1    0    0    0  501 -0.00000000000E+00  0.00000000000E+00  0.10417777033E+04  0.10417777033E+04  0.00000000000E+00 0. -1.
          2   -1    0    0  501    0  0.00000000000E+00 -0.00000000000E+00 -0.36174332905E+04  0.36174332905E+04  0.00000000000E+00 0.  1.
         23    2    1    2    0    0 -0.10754603945E+04 -0.11940902406E+04 -0.25932293869E+04  0.30521094410E+04  0.89815497921E+02 0.  0.
         11    1    3    3    0    0 -0.96048471669E+03 -0.10995179195E+04 -0.23265584298E+04  0.27466970480E+04  0.00000000000E+00 0. -1.
        -11    1    3    3    0    0 -0.11497567778E+03 -0.94572321160E+02 -0.26667095712E+03  0.30541239298E+03  0.00000000000E+00 0.  1.
         22    1    1    2    0    0  0.10754603945E+04  0.11940902406E+04  0.17573799759E+02  0.16071015529E+04  0.00000000000E+00 0. -1.
<mgrwt>
<rscale>  0 0.38825566E+04</rscale>
<asrwt>0</asrwt>
<pdfrwt beam="1">  1        2 0.55652820E+00 0.38825566E+04</pdfrwt>
<pdfrwt beam="2">  1       -2 0.16027349E+00 0.38825566E+04</pdfrwt>
<totfact> 0.13363602E-01</totfact>
</mgrwt>
</event>
<event>
 6    1  0.2436515E-005  0.1729689E+04  0.7818608E-02  0.8744611E-01
          2   -1    0    0  501    0  0.00000000000E+00  0.00000000000E+00  0.20795959866E+04  0.20795959866E+04  0.00000000000E+00 0.  1.
         -2   -1    0    0    0  501 -0.00000000000E+00 -0.00000000000E+00 -0.35966394416E+03  0.35966394416E+03  0.00000000000E+00 0. -1.
         23    2    1    2    0    0  0.63460882065E+03  0.60075274384E+02  0.42972744813E+02  0.64523376604E+03  0.90236146852E+02 0.  0.
         11    1    3    3    0    0  0.19662283474E+03  0.54200522780E+02  0.36274777453E+02  0.20715717532E+03  0.00000000000E+00 0. -1.
        -11    1    3    3    0    0  0.43798598591E+03  0.58747516038E+01  0.66979673598E+01  0.43807659071E+03  0.00000000000E+00 0.  1.
         22    1    1    2    0    0 -0.63460882065E+03 -0.60075274384E+02  0.16769592976E+04  0.17940261647E+04  0.00000000000E+00 0.  1.
<mgrwt>
<rscale>  0 0.17296886E+04</rscale>
<asrwt>0</asrwt>
<pdfrwt beam="1">  1        2 0.31993784E+00 0.17296886E+04</pdfrwt>
<pdfrwt beam="2">  1       -2 0.55332915E-01 0.17296886E+04</pdfrwt>
<totfact> 0.17584843E+01</totfact>
</mgrwt>
</event>
<event>
 6    1  0.2436515E-005  0.2017793E+04  0.7818608E-02  0.8598347E-01
         -2   -1    0    0    0  501 -0.00000000000E+00  0.00000000000E+00  0.55538268440E+03  0.55538268440E+03  0.00000000000E+00 0. -1.
          2   -1    0    0  501    0  0.00000000000E+00 -0.00000000000E+00 -0.18327398819E+04  0.18327398819E+04  0.00000000000E+00 0.  1.
         23    2    1    2    0    0  0.89568323442E+03 -0.41089695888E+03 -0.39622562581E+03  0.10662006269E+04  0.93296639747E+02 0.  0.
         13    1    3    3    0    0  0.32531580102E+03 -0.18821450502E+03 -0.18126348777E+03  0.41726672799E+03  0.00000000000E+00 0. -1.
        -13    1    3    3    0    0  0.57036743340E+03 -0.22268245386E+03 -0.21496213804E+03  0.64893389890E+03  0.00000000000E+00 0.  1.
         22    1    1    2    0    0 -0.89568323442E+03  0.41089695888E+03 -0.88113157167E+03  0.13219219394E+04  0.00000000000E+00 0. -1.
<mgrwt>
<rscale>  0 0.20177928E+04</rscale>
<asrwt>0</asrwt>
<pdfrwt beam="1">  1        2 0.28195998E+00 0.20177928E+04</pdfrwt>
<pdfrwt beam="2">  1       -2 0.85443490E-01 0.20177928E+04</pdfrwt>
<totfact> 0.91404314E+00</totfact>
</mgrwt>
</event>
<event>
 6    1  0.2436515E-005  0.1925297E+04  0.7818608E-02  0.8642366E-01
         -2   -1    0    0    0  501 -0.00000000000E+00  0.00000000000E+00  0.51143505554E+03  0.51143505554E+03  0.00000000000E+00 0. -1.
          2   -1    0    0  501    0  0.00000000000E+00 -0.00000000000E+00 -0.18119443618E+04  0.18119443618E+04  0.00000000000E+00 0.  1.
         23    2    1    2    0    0 -0.35928601013E+03 -0.40792137993E+03  0.30403044539E+03  0.62926191731E+03  0.89720452361E+02 0.  0.
         13    1    3    3    0    0 -0.36301730493E+03 -0.39251017514E+03  0.29927256871E+03  0.61270700310E+03  0.00000000000E+00 0. -1.
        -13    1    3    3    0    0  0.37312947975E+01 -0.15411204794E+02  0.47578766825E+01  0.16554914212E+02  0.00000000000E+00 0.  1.
         22    1    1    2    0    0  0.35928601013E+03  0.40792137993E+03 -0.16045397517E+04  0.16941175001E+04  0.00000000000E+00 0.  1.
<mgrwt>
<rscale>  0 0.19252967E+04</rscale>
<asrwt>0</asrwt>
<pdfrwt beam="1">  1        2 0.27876068E+00 0.19252967E+04</pdfrwt>
<pdfrwt beam="2">  1       -2 0.78682313E-01 0.19252967E+04</pdfrwt>
<totfact> 0.11395888E+01</totfact>
</mgrwt>
</event>
<event>
 6    1  0.2436515E-005  0.7646893E+03  0.7818608E-02  0.9612583E-01
          2   -1    0    0  501    0  0.00000000000E+00  0.00000000000E+00  0.54660144906E+03  0.54660144906E+03  0.00000000000E+00 0.  1.
         -2   -1    0    0    0  501 -0.00000000000E+00 -0.00000000000E+00 -0.26744793953E+03  0.26744793953E+03  0.00000000000E+00 0. -1.
         23    2    1    2    0    0  0.17551839105E+03  0.23536018098E+03 -0.10958657384E+03  0.32689441037E+03  0.93003322432E+02 0.  0.
         11    1    3    3    0    0  0.12437220598E+03  0.18967559712E+03 -0.42120875183E+02  0.23069340236E+03  0.00000000000E+00 0. -1.
        -11    1    3    3    0    0  0.51146185067E+02  0.45684583853E+02 -0.67465698655E+02  0.96201008018E+02  0.00000000000E+00 0.  1.
         22    1    1    2    0    0 -0.17551839105E+03 -0.23536018098E+03  0.38874008336E+03  0.48715497821E+03  0.00000000000E+00 0.  1.
<mgrwt>
<rscale>  0 0.76468930E+03</rscale>
<asrwt>0</asrwt>
<pdfrwt beam="1">  1        2 0.84092530E-01 0.76468930E+03</pdfrwt>
<pdfrwt beam="2">  1       -2 0.41145837E-01 0.76468930E+03</pdfrwt>
<totfact> 0.31246235E+02</totfact>
</mgrwt>
</event>
<event>
 6    1  0.2436515E-005  0.4366285E+04  0.7818608E-02  0.7934474E-01
          1   -1    0    0  501    0  0.00000000000E+00  0.00000000000E+00  0.23420025254E+04  0.23420025254E+04  0.00000000000E+00 0.  1.
         -1   -1    0    0    0  501 -0.00000000000E+00 -0.00000000000E+00 -0.20350584534E+04  0.20350584534E+04  0.00000000000E+00 0. -1.
         23    2    1    2    0    0  0.60776913696E+03 -0.95280853370E+03  0.20248267216E+04  0.23207661986E+04  0.93835336268E+02 0.  0.
         13    1    3    3    0    0  0.45264268969E+03 -0.63297932326E+03  0.14182322678E+04  0.16176931086E+04  0.00000000000E+00 0.  1.
        -13    1    3    3    0    0  0.15512644727E+03 -0.31982921044E+03  0.60659445377E+03  0.70307308997E+03  0.00000000000E+00 0. -1.
         22    1    1    2    0    0 -0.60776913696E+03  0.95280853370E+03 -0.17178826495E+04  0.20562947802E+04  0.00000000000E+00 0. -1.
<mgrwt>
<rscale>  0 0.43662854E+04</rscale>
<asrwt>0</asrwt>
<pdfrwt beam="1">  1        1 0.36030808E+00 0.43662854E+04</pdfrwt>
<pdfrwt beam="2">  1       -1 0.31308592E+00 0.43662854E+04</pdfrwt>
<totfact> 0.35923048E-02</totfact>
</mgrwt>
</event>
<event>
 6    1  0.2436515E-005  0.3327693E+04  0.7818608E-02  0.8155884E-01
          2   -1    0    0  501    0  0.00000000000E+00  0.00000000000E+00  0.18416132525E+04  0.18416132525E+04  0.00000000000E+00 0.  1.
         -2   -1    0    0    0  501 -0.00000000000E+00 -0.00000000000E+00 -0.15032393372E+04  0.15032393372E+04  0.00000000000E+00 0. -1.
         23    2    1    2    0    0 -0.13361109497E+04 -0.91657849961E+03 -0.20567855170E+03  0.16356710011E+04  0.88359162268E+02 0.  0.
         13    1    3    3    0    0 -0.50055743771E+03 -0.29302060765E+03 -0.81833916486E+02  0.58576071466E+03  0.00000000000E+00 0.  1.
        -13    1    3    3    0    0 -0.83555351197E+03 -0.62355789196E+03 -0.12384463522E+03  0.10499102865E+04  0.00000000000E+00 0. -1.
         22    1    1    2    0    0  0.13361109497E+04  0.91657849961E+03  0.54405246702E+03  0.17091815886E+04  0.00000000000E+00 0.  1.
<mgrwt>
<rscale>  0 0.33276932E+04</rscale>
<asrwt>0</asrwt>
<pdfrwt beam="1">  1        2 0.28332512E+00 0.33276932E+04</pdfrwt>
<pdfrwt beam="2">  1       -2 0.23126759E+00 0.33276932E+04</pdfrwt>
<totfact> 0.57243112E-01</totfact>
</mgrwt>
</event>
<event>
 6    1  0.2436515E-005  0.2748191E+04  0.7818608E-02  0.8319536E-01
          2   -1    0    0  501    0  0.00000000000E+00  0.00000000000E+00  0.31799217908E+04  0.31799217908E+04  0.00000000000E+00 0.  1.
         -2   -1    0    0    0  501 -0.00000000000E+00 -0.00000000000E+00 -0.59376902110E+03  0.59376902110E+03  0.00000000000E+00 0. -1.
         23    2    1    2    0    0  0.33078611061E+03 -0.48799934284E+03  0.29965640256E+04  0.30553592668E+04  0.90892687730E+02 0.  0.
         11    1    3    3    0    0  0.21746417048E+03 -0.37953282869E+03  0.23166652596E+04  0.23575991514E+04  0.00000000000E+00 0. -1.
        -11    1    3    3    0    0  0.11332194014E+03 -0.10846651415E+03  0.67989876592E+03  0.69776011545E+03  0.00000000000E+00 0.  1.
         22    1    1    2    0    0 -0.33078611061E+03  0.48799934284E+03 -0.41041125589E+03  0.71833154501E+03  0.00000000000E+00 0. -1.
<mgrwt>
<rscale>  0 0.27481914E+04</rscale>
<asrwt>0</asrwt>
<pdfrwt beam="1">  1        2 0.48921873E+00 0.27481914E+04</pdfrwt>
<pdfrwt beam="2">  1       -2 0.91349082E-01 0.27481914E+04</pdfrwt>
<totfact> 0.11920849E+00</totfact>
</mgrwt>
</event>
<event>
 6    1  0.2789109E-005  0.3465622E+04  0.7818608E-02  0.8121986E-01
         -4   -1    0    0    0  501 -0.00000000000E+00  0.00000000000E+00  0.17035008188E+04  0.17035008188E+04  0.00000000000E+00 0. -1.
          4   -1    0    0  501    0  0.00000000000E+00 -0.00000000000E+00 -0.17626253936E+04  0.17626253936E+04  0.00000000000E+00 0.  1.
         23    2    1    2    0    0  0.12774568605E+04 -0.17873854729E+03 -0.11850838122E+04  0.17539265444E+04  0.89393414792E+02 0.  0.
         13    1    3    3    0    0  0.44647563864E+03 -0.57837029788E+02 -0.47193401569E+03  0.65223257591E+03  0.00000000000E+00 0.  1.
        -13    1    3    3    0    0  0.83098122183E+03 -0.12090151751E+03 -0.71314979646E+03  0.11016939685E+04  0.00000000000E+00 0. -1.
         22    1    1    2    0    0 -0.12774568605E+04  0.17873854729E+03  0.11259592374E+04  0.17121996679E+04  0.00000000000E+00 0. -1.
<mgrwt>
<rscale>  0 0.34656219E+04</rscale>
<asrwt>0</asrwt>
<pdfrwt beam="1">  1        4 0.27117314E+00 0.34656219E+04</pdfrwt>
<pdfrwt beam="2">  1       -4 0.26207705E+00 0.34656219E+04</pdfrwt>
<totfact> 0.40297607E-03</totfact>
</mgrwt>
</event>
<event>
 6    1  0.2436515E-005  0.2477494E+04  0.7818608E-02  0.8411047E-01
         -2   -1    0    0    0  501 -0.00000000000E+00  0.00000000000E+00  0.11937192770E+04  0.11937192770E+04  0.00000000000E+00 0. -1.
          2   -1    0    0  501    0  0.00000000000E+00 -0.00000000000E+00 -0.12854736899E+04  0.12854736899E+04  0.00000000000E+00 0.  1.
         23    2    1    2    0    0 -0.42722313500E+03  0.10983103407E+04 -0.42257465477E+03  0.12551638642E+04  0.89787390553E+02 0.  0.
         11    1    3    3    0    0 -0.17931280262E+03  0.53916158087E+03 -0.24046656499E+03  0.61698659657E+03  0.00000000000E+00 0. -1.
        -11    1    3    3    0    0 -0.24791033238E+03  0.55914875987E+03 -0.18210808978E+03  0.63817726763E+03  0.00000000000E+00 0.  1.
         22    1    1    2    0    0  0.42722313500E+03 -0.10983103407E+04  0.33082024190E+03  0.12240291026E+04  0.00000000000E+00 0. -1.
<mgrwt>
<rscale>  0 0.24774945E+04</rscale>
<asrwt>0</asrwt>
<pdfrwt beam="1">  1        2 0.19776518E+00 0.24774945E+04</pdfrwt>
<pdfrwt beam="2">  1       -2 0.18364912E+00 0.24774945E+04</pdfrwt>
<totfact> 0.25781453E+00</totfact>
</mgrwt>
</event>
<event>
 6    1  0.2436515E-005  0.1789238E+04  0.7818608E-02  0.8712043E-01
          2   -1    0    0  501    0  0.00000000000E+00  0.00000000000E+00  0.94724482317E+03  0.94724482317E+03  0.00000000000E+00 0.  1.
         -2   -1    0    0    0  501 -0.00000000000E+00 -0.00000000000E+00 -0.84491730728E+03  0.84491730728E+03  0.00000000000E+00 0. -1.
         23    2    1    2    0    0  0.11461442033E+03  0.82658142819E+03  0.36778628093E+03  0.91646716147E+03  0.90950463662E+02 0.  0.
         11    1    3    3    0    0  0.75715139654E+02  0.25609638068E+03  0.10148175426E+03  0.28568634027E+03  0.00000000000E+00 0.  1.
        -11    1    3    3    0    0  0.38899280680E+02  0.57048504751E+03  0.26630452667E+03  0.63078082120E+03  0.00000000000E+00 0. -1.
         22    1    1    2    0    0 -0.11461442033E+03 -0.82658142819E+03 -0.26545876504E+03  0.87569496899E+03  0.00000000000E+00 0. -1.
<mgrwt>
<rscale>  0 0.17892384E+04</rscale>
<asrwt>0</asrwt>
<pdfrwt beam="1">  1        2 0.14572997E+00 0.17892384E+04</pdfrwt>
<pdfrwt beam="2">  1       -2 0.12998728E+00 0.17892384E+04</pdfrwt>
<totfact> 0.11190348E+01</totfact>
</mgrwt>
</event>
<event>
 6    1  0.2436515E-005  0.7512133E+04  0.7818608E-02  0.7526808E-01
          2   -1    0    0  501    0  0.00000000000E+00  0.00000000000E+00  0.30149106306E+04  0.30149106306E+04  0.00000000000E+00 0.  1.
         -2   -1    0    0    0  501 -0.00000000000E+00 -0.00000000000E+00 -0.46794202561E+04  0.46794202561E+04  0.00000000000E+00 0. -1.
         23    2    1    2    0    0 -0.19817024092E+04 -0.25101252350E+04  0.11841162448E+04  0.34115114320E+04  0.91683343321E+02 0.  0.
         11    1    3    3    0    0 -0.52324397629E+03 -0.65269093116E+03  0.35240576053E+03  0.90773318238E+03  0.00000000000E+00 0. -1.
        -11    1    3    3    0    0 -0.14584584329E+04 -0.18574343038E+04  0.83171048425E+03  0.25037782496E+04  0.00000000000E+00 0.  1.
         22    1    1    2    0    0  0.19817024092E+04  0.25101252350E+04 -0.28486258703E+04  0.42828194548E+04  0.00000000000E+00 0. -1.
<mgrwt>
<rscale>  0 0.75121326E+04</rscale>
<asrwt>0</asrwt>
<pdfrwt beam="1">  1        2 0.46383241E+00 0.75121326E+04</pdfrwt>
<pdfrwt beam="2">  1       -2 0.71991081E+00 0.75121326E+04</pdfrwt>
<totfact> 0.20128455E-04</totfact>
</mgrwt>
</event>
<event>
 6    1  0.2504653E-005  0.2993713E+04  0.7818608E-02  0.8245528E-01
         -2   -1    0    0    0  501 -0.00000000000E+00  0.00000000000E+00  0.10197568282E+04  0.10197568282E+04  0.00000000000E+00 0. -1.
          2   -1    0    0  501    0  0.00000000000E+00 -0.00000000000E+00 -0.21971703750E+04  0.21971703750E+04  0.00000000000E+00 0.  1.
         23    2    1    2    0    0 -0.82437259516E+03 -0.53639971241E+03 -0.17997748436E+04  0.20530335607E+04  0.91883003903E+02 0.  0.
         13    1    3    3    0    0 -0.36186645526E+03 -0.28838326668E+03 -0.81925698903E+03  0.94090076736E+03  0.00000000000E+00 0. -1.
        -13    1    3    3    0    0 -0.46250613990E+03 -0.24801644573E+03 -0.98051785461E+03  0.11121327933E+04  0.00000000000E+00 0.  1.
         22    1    1    2    0    0  0.82437259516E+03  0.53639971241E+03  0.62236129685E+03  0.11638936425E+04  0.00000000000E+00 0. -1.
<mgrwt>
<rscale>  0 0.29937131E+04</rscale>
<asrwt>0</asrwt>
<pdfrwt beam="1">  1        2 0.33802621E+00 0.29937131E+04</pdfrwt>
<pdfrwt beam="2">  1       -2 0.15688567E+00 0.29937131E+04</pdfrwt>
<totfact> 0.11794092E+00</totfact>
</mgrwt>
</event>
<event>
 6    1  0.2436515E-005  0.2440786E+04  0.7818608E-02  0.8424390E-01
         -2   -1    0    0    0  501 -0.00000000000E+00  0.00000000000E+00  0.69616610902E+03  0.69616610902E+03  0.00000000000E+00 0. -1.
          2   -1    0    0  501    0  0.00000000000E+00 -0.00000000000E+00 -0.21393739614E+04  0.21393739614E+04  0.00000000000E+00 0.  1.
         23    2    1    2    0    0 -0.77174938164E+03 -0.27366863947E+03 -0.17712485078E+04  0.19534389969E+04  0.90061124578E+02 0.  0.
         13    1    3    3    0    0 -0.24395782140E+03 -0.58768060290E+02 -0.46756028376E+03  0.53064274468E+03  0.00000000000E+00 0.  1.
        -13    1    3    3    0    0 -0.52779156024E+03 -0.21490057918E+03 -0.13036882240E+04  0.14227962523E+04  0.00000000000E+00 0. -1.
         22    1    1    2    0    0  0.77174938164E+03  0.27366863947E+03  0.32804065538E+03  0.88210107350E+03  0.00000000000E+00 0. -1.
<mgrwt>
<rscale>  0 0.24407865E+04</rscale>
<asrwt>0</asrwt>
<pdfrwt beam="1">  1        2 0.32913445E+00 0.24407865E+04</pdfrwt>
<pdfrwt beam="2">  1       -2 0.10710248E+00 0.24407865E+04</pdfrwt>
<totfact> 0.35076124E+00</totfact>
</mgrwt>
</event>
<event>
 6    1  0.2436515E-005  0.2714431E+04  0.7818608E-02  0.8330338E-01
          2   -1    0    0  501    0  0.00000000000E+00  0.00000000000E+00  0.12242840526E+04  0.12242840526E+04  0.00000000000E+00 0.  1.
         -2   -1    0    0    0  501 -0.00000000000E+00 -0.00000000000E+00 -0.15045805279E+04  0.15045805279E+04  0.00000000000E+00 0. -1.
         23    2    1    2    0    0 -0.54661454908E+03  0.11316298954E+04  0.37084837888E+03  0.13134624092E+04  0.91001619989E+02 0.  0.
         11    1    3    3    0    0 -0.19516106529E+03  0.50026926869E+03  0.17534755283E+03  0.56489286319E+03  0.00000000000E+00 0. -1.
        -11    1    3    3    0    0 -0.35145348379E+03  0.63136062666E+03  0.19550082605E+03  0.74856954597E+03  0.00000000000E+00 0.  1.
         22    1    1    2    0    0  0.54661454908E+03 -0.11316298954E+04 -0.65114485420E+03  0.14154021713E+04  0.00000000000E+00 0. -1.
<mgrwt>
<rscale>  0 0.27144310E+04</rscale>
<asrwt>0</asrwt>
<pdfrwt beam="1">  1        2 0.18835139E+00 0.27144310E+04</pdfrwt>
<pdfrwt beam="2">  1       -2 0.23147393E+00 0.27144310E+04</pdfrwt>
<totfact> 0.13436211E+00</totfact>
</mgrwt>
</event>
<event>
 6    1  0.2436515E-005  0.3079419E+04  0.7818608E-02  0.8221409E-01
          2   -1    0    0  501    0  0.00000000000E+00  0.00000000000E+00  0.18547380336E+04  0.18547380336E+04  0.00000000000E+00 0.  1.
         -2   -1    0    0    0  501 -0.00000000000E+00 -0.00000000000E+00 -0.12781885717E+04  0.12781885717E+04  0.00000000000E+00 0. -1.
         23    2    1    2    0    0  0.21904337021E+03  0.29235656190E+03 -0.12317827925E+04  0.12880640360E+04  0.91475437535E+02 0.  0.
         13    1    3    3    0    0  0.72041282782E+02  0.17074760531E+03 -0.57435544735E+03  0.60351377038E+03  0.00000000000E+00 0.  1.
        -13    1    3    3    0    0  0.14700208743E+03  0.12160895660E+03 -0.65742734518E+03  0.68455026566E+03  0.00000000000E+00 0. -1.
         22    1    1    2    0    0 -0.21904337021E+03 -0.29235656190E+03  0.18083322544E+04  0.18448625693E+04  0.00000000000E+00 0.  1.
<mgrwt>
<rscale>  0 0.30794187E+04</rscale>
<asrwt>0</asrwt>
<pdfrwt beam="1">  1        2 0.28534431E+00 0.30794187E+04</pdfrwt>
<pdfrwt beam="2">  1       -2 0.19664440E+00 0.30794187E+04</pdfrwt>
<totfact> 0.95775329E-01</totfact>
</mgrwt>
</event>
<event>
 6    1  0.2436515E-005  0.9681527E+03  0.7818608E-02  0.9344181E-01
          2   -1    0    0  501    0  0.00000000000E+00  0.00000000000E+00  0.10005426968E+04  0.10005426968E+04  0.00000000000E+00 0.  1.
         -2   -1    0    0    0  501 -0.00000000000E+00 -0.00000000000E+00 -0.23420281415E+03  0.23420281415E+03  0.00000000000E+00 0. -1.
         23    2    1    2    0    0  0.45726297221E+03  0.14113307758E+03  0.34870263441E+03  0.59958502536E+03  0.94343542709E+02 0.  0.
         13    1    3    3    0    0  0.20640887394E+03  0.16394465555E+02  0.16224274146E+03  0.26305153278E+03  0.00000000000E+00 0. -1.
        -13    1    3    3    0    0  0.25085409826E+03  0.12473861203E+03  0.18645989295E+03  0.33653349257E+03  0.00000000000E+00 0.  1.
         22    1    1    2    0    0 -0.45726297221E+03 -0.14113307758E+03  0.41763724827E+03  0.63516048561E+03  0.00000000000E+00 0.  1.
<mgrwt>
<rscale>  0 0.96815271E+03</rscale>
<asrwt>0</asrwt>
<pdfrwt beam="1">  1        2 0.15392964E+00 0.96815271E+03</pdfrwt>
<pdfrwt beam="2">  1       -2 0.36031203E-01 0.96815271E+03</pdfrwt>
<totfact> 0.18211955E+02</totfact>
</mgrwt>
</event>
<event>
 6    1  0.2436515E-005  0.2605372E+04  0.7818608E-02  0.8366379E-01
          2   -1    0    0  501    0  0.00000000000E+00  0.00000000000E+00  0.18100716068E+04  0.18100716068E+04  0.00000000000E+00 0.  1.
         -2   -1    0    0    0  501 -0.00000000000E+00 -0.00000000000E+00 -0.93752715888E+03  0.93752715888E+03  0.00000000000E+00 0. -1.
         23    2    1    2    0    0  0.39590598837E+03  0.11168121478E+04  0.10034819166E+04  0.15554764792E+04  0.92304903709E+02 0.  0.
         11    1    3    3    0    0  0.21525909659E+03  0.73845779133E+03  0.64337162582E+03  0.10027878326E+04  0.00000000000E+00 0. -1.
        -11    1    3    3    0    0  0.18064689179E+03  0.37835435649E+03  0.36011029077E+03  0.55268864663E+03  0.00000000000E+00 0.  1.
         22    1    1    2    0    0 -0.39590598837E+03 -0.11168121478E+04 -0.13093746869E+03  0.11921222865E+04  0.00000000000E+00 0. -1.
<mgrwt>
<rscale>  0 0.26053724E+04</rscale>
<asrwt>0</asrwt>
<pdfrwt beam="1">  1        2 0.27847256E+00 0.26053724E+04</pdfrwt>
<pdfrwt beam="2">  1       -2 0.14423495E+00 0.26053724E+04</pdfrwt>
<totfact> 0.25028143E+00</totfact>
</mgrwt>
</event>
<event>
 6    1  0.2436515E-005  0.1541765E+04  0.7818608E-02  0.8857145E-01
         -2   -1    0    0    0  501 -0.00000000000E+00  0.00000000000E+00  0.88256997654E+03  0.88256997654E+03  0.00000000000E+00 0. -1.
          2   -1    0    0  501    0  0.00000000000E+00 -0.00000000000E+00 -0.67332854215E+03  0.67332854215E+03  0.00000000000E+00 0.  1.
         23    2    1    2    0    0 -0.53302241008E+03 -0.54805261637E+03  0.28198094757E+02  0.77024512769E+03  0.89486670617E+02 0.  0.
         13    1    3    3    0    0 -0.31258564927E+03 -0.37720356144E+03 -0.38665900620E+00  0.48989025750E+03  0.00000000000E+00 0. -1.
        -13    1    3    3    0    0 -0.22043676081E+03 -0.17084905493E+03  0.28584753763E+02  0.28035487018E+03  0.00000000000E+00 0.  1.
         22    1    1    2    0    0  0.53302241008E+03  0.54805261637E+03  0.18104333963E+03  0.78565339100E+03  0.00000000000E+00 0.  1.
<mgrwt>
<rscale>  0 0.15417646E+04</rscale>
<asrwt>0</asrwt>
<pdfrwt beam="1">  1        2 0.10358901E+00 0.15417646E+04</pdfrwt>
<pdfrwt beam="2">  1       -2 0.13578000E+00 0.15417646E+04</pdfrwt>
<totfact> 0.16104460E+01</totfact>
</mgrwt>
</event>
<event>
 6    1  0.2436515E-005  0.3840275E+04  0.7818608E-02  0.8037567E-01
          2   -1    0    0  501    0  0.00000000000E+00  0.00000000000E+00  0.23225293651E+04  0.23225293651E+04  0.00000000000E+00 0.  1.
         -2   -1    0    0    0  501 -0.00000000000E+00 -0.00000000000E+00 -0.15874621765E+04  0.15874621765E+04  0.00000000000E+00 0. -1.
         23    2    1    2    0    0 -0.16377861798E+04  0.35829073476E+03  0.13185703340E+04  0.21348319031E+04  0.90353236820E+02 0.  0.
         13    1    3    3    0    0 -0.99290278162E+03  0.24079016487E+03  0.85072580738E+03  0.13294999950E+04  0.00000000000E+00 0.  1.
        -13    1    3    3    0    0 -0.64488339822E+03  0.11750056988E+03  0.46784452660E+03  0.80533190815E+03  0.00000000000E+00 0. -1.
         22    1    1    2    0    0  0.16377861798E+04 -0.35829073476E+03 -0.58350314541E+03  0.17751596385E+04  0.00000000000E+00 0. -1.
<mgrwt>
<rscale>  0 0.38402747E+04</rscale>
<asrwt>0</asrwt>
<pdfrwt beam="1">  1        2 0.35731221E+00 0.38402747E+04</pdfrwt>
<pdfrwt beam="2">  1       -2 0.24422495E+00 0.38402747E+04</pdfrwt>
<totfact> 0.24538680E-01</totfact>
</mgrwt>
</event>
<event>
 6    1  0.2436515E-005  0.2376853E+04  0.7818608E-02  0.8448221E-01
          2   -1    0    0  501    0  0.00000000000E+00  0.00000000000E+00  0.23168935074E+04  0.23168935074E+04  0.00000000000E+00 0.  1.
         -2   -1    0    0    0  501 -0.00000000000E+00 -0.00000000000E+00 -0.60959103669E+03  0.60959103669E+03  0.00000000000E+00 0. -1.
         23    2    1    2    0    0  0.87174976765E+03  0.46999546551E+03  0.49917082753E+02  0.99574123666E+03  0.90363157518E+02 0.  0.
         13    1    3    3    0    0  0.57359930710E+03  0.34104132362E+03  0.65438386599E+02  0.67052780103E+03  0.00000000000E+00 0. -1.
        -13    1    3    3    0    0  0.29815046055E+03  0.12895414189E+03 -0.15521303845E+02  0.32521343562E+03  0.00000000000E+00 0.  1.
         22    1    1    2    0    0 -0.87174976765E+03 -0.46999546551E+03  0.16573853880E+04  0.19307433075E+04  0.00000000000E+00 0.  1.
<mgrwt>
<rscale>  0 0.23768530E+04</rscale>
<asrwt>0</asrwt>
<pdfrwt beam="1">  1        2 0.35644515E+00 0.23768530E+04</pdfrwt>
<pdfrwt beam="2">  1       -2 0.93783238E-01 0.23768530E+04</pdfrwt>
<totfact> 0.38368292E+00</totfact>
</mgrwt>
</event>
<event>
 6    1  0.2436515E-005  0.2123537E+04  0.7818608E-02  0.8550946E-01
         -2   -1    0    0    0  501 -0.00000000000E+00  0.00000000000E+00  0.11606295143E+04  0.11606295143E+04  0.00000000000E+00 0. -1.
          2   -1    0    0  501    0  0.00000000000E+00 -0.00000000000E+00 -0.97132817632E+03  0.97132817632E+03  0.00000000000E+00 0.  1.
         23    2    1    2    0    0  0.28022711699E+03  0.80487349992E+03 -0.53758599986E+03  0.10118176146E+04  0.91801906380E+02 0.  0.
         13    1    3    3    0    0  0.17592960408E+03  0.44480585667E+03 -0.34947311508E+03  0.59239761468E+03  0.00000000000E+00 0. -1.
        -13    1    3    3    0    0  0.10429751290E+03  0.36006764325E+03 -0.18811288478E+03  0.41941999992E+03  0.00000000000E+00 0.  1.
         22    1    1    2    0    0 -0.28022711699E+03 -0.80487349992E+03  0.72688733779E+03  0.11201400760E+04  0.00000000000E+00 0. -1.
<mgrwt>
<rscale>  0 0.21235368E+04</rscale>
<asrwt>0</asrwt>
<pdfrwt beam="1">  1        2 0.14943510E+00 0.21235368E+04</pdfrwt>
<pdfrwt beam="2">  1       -2 0.17855839E+00 0.21235368E+04</pdfrwt>
<totfact> 0.44855299E+00</totfact>
</mgrwt>
</event>
<event>
 6    1  0.2436515E-005  0.1286756E+04  0.7818608E-02  0.9040134E-01
          1   -1    0    0  501    0  0.00000000000E+00  0.00000000000E+00  0.36066110128E+03  0.36066110128E+03  0.00000000000E+00 0.  1.
         -1   -1    0    0    0  501 -0.00000000000E+00 -0.00000000000E+00 -0.11477121297E+04  0.11477121297E+04  0.00000000000E+00 0. -1.
         23    2    1    2    0    0  0.55626731431E+03 -0.65774776306E+02 -0.75874232934E+03  0.94751582607E+03  0.91305378561E+02 0.  0.
         11    1    3    3    0    0  0.43278091722E+03 -0.12404034679E+02 -0.57347356543E+03  0.71855766132E+03  0.00000000000E+00 0.  1.
        -11    1    3    3    0    0  0.12348639709E+03 -0.53370741626E+02 -0.18526876391E+03  0.22895816476E+03  0.00000000000E+00 0. -1.
         22    1    1    2    0    0 -0.55626731431E+03  0.65774776306E+02 -0.28308699061E+02  0.56085740488E+03  0.00000000000E+00 0.  1.
<mgrwt>
<rscale>  0 0.12867558E+04</rscale>
<asrwt>0</asrwt>
<pdfrwt beam="1">  1        1 0.55486323E-01 0.12867558E+04</pdfrwt>
<pdfrwt beam="2">  1       -1 0.17657110E+00 0.12867558E+04</pdfrwt>
<totfact> 0.14914921E+01</totfact>
</mgrwt>
</event>
<event>
 6    1  0.2436515E-005  0.2238121E+04  0.7818608E-02  0.8502727E-01
         -1   -1    0    0    0  501 -0.00000000000E+00  0.00000000000E+00  0.15473831512E+04  0.15473831512E+04  0.00000000000E+00 0.  1.
          1   -1    0    0  501    0  0.00000000000E+00 -0.00000000000E+00 -0.80929985516E+03  0.80929985516E+03  0.00000000000E+00 0. -1.
         23    2    1    2    0    0  0.42060464542E+03  0.10253970475E+04  0.22149400431E+03  0.11338944436E+04  0.91157240709E+02 0.  0.
         13    1    3    3    0    0  0.36120866720E+03  0.78017292656E+03  0.17227354205E+03  0.87682362531E+03  0.00000000000E+00 0. -1.
        -13    1    3    3    0    0  0.59395978219E+02  0.24522412097E+03  0.49220462269E+02  0.25707081834E+03  0.00000000000E+00 0.  1.
         22    1    1    2    0    0 -0.42060464542E+03 -0.10253970475E+04  0.51658929176E+03  0.12227885628E+04  0.00000000000E+00 0. -1.
<mgrwt>
<rscale>  0 0.22381215E+04</rscale>
<asrwt>0</asrwt>
<pdfrwt beam="1">  1        1 0.12450767E+00 0.22381215E+04</pdfrwt>
<pdfrwt beam="2">  1       -1 0.23805895E+00 0.22381215E+04</pdfrwt>
<totfact> 0.16463829E+00</totfact>
</mgrwt>
</event>
<event>
 6    1  0.2436515E-005  0.2165277E+04  0.7818608E-02  0.8533021E-01
          2   -1    0    0  501    0  0.00000000000E+00  0.00000000000E+00  0.80291388006E+03  0.80291388006E+03  0.00000000000E+00 0.  1.
         -2   -1    0    0    0  501 -0.00000000000E+00 -0.00000000000E+00 -0.14598149863E+04  0.14598149863E+04  0.00000000000E+00 0. -1.
         23    2    1    2    0    0  0.60113913183E+03 -0.84329959248E+03 -0.65199122777E+03  0.12270906257E+04  0.90201907660E+02 0.  0.
         11    1    3    3    0    0  0.37942077603E+03 -0.51549130727E+03 -0.35188565597E+03  0.73042106215E+03  0.00000000000E+00 0. -1.
        -11    1    3    3    0    0  0.22171835579E+03 -0.32780828521E+03 -0.30010557180E+03  0.49666956357E+03  0.00000000000E+00 0.  1.
         22    1    1    2    0    0 -0.60113913183E+03  0.84329959248E+03 -0.49098784337E+01  0.10356382406E+04  0.00000000000E+00 0.  1.
<mgrwt>
<rscale>  0 0.21652766E+04</rscale>
<asrwt>0</asrwt>
<pdfrwt beam="1">  1        2 0.12352521E+00 0.21652766E+04</pdfrwt>
<pdfrwt beam="2">  1       -2 0.22458692E+00 0.21652766E+04</pdfrwt>
<totfact> 0.29040554E+00</totfact>
</mgrwt>
</event>
<event>
 6    1  0.2436515E-005  0.1588095E+04  0.7818608E-02  0.8827895E-01
         -2   -1    0    0    0  501 -0.00000000000E+00  0.00000000000E+00  0.42995866620E+03  0.42995866620E+03  0.00000000000E+00 0. -1.
          2   -1    0    0  501    0  0.00000000000E+00 -0.00000000000E+00 -0.14664470160E+04  0.14664470160E+04  0.00000000000E+00 0.  1.
         23    2    1    2    0    0 -0.19709018287E+03 -0.74908397126E+03 -0.32589578248E+03  0.84525719938E+03  0.90996350933E+02 0.  0.
         11    1    3    3    0    0 -0.14978497124E+03 -0.57888762343E+03 -0.29178523684E+03  0.66534580679E+03  0.00000000000E+00 0.  1.
        -11    1    3    3    0    0 -0.47305211633E+02 -0.17019634783E+03 -0.34110545649E+02  0.17991139260E+03  0.00000000000E+00 0. -1.
         22    1    1    2    0    0  0.19709018287E+03  0.74908397126E+03 -0.71059256727E+03  0.10511484828E+04  0.00000000000E+00 0.  1.
<mgrwt>
<rscale>  0 0.15880952E+04</rscale>
<asrwt>0</asrwt>
<pdfrwt beam="1">  1        2 0.22560723E+00 0.15880952E+04</pdfrwt>
<pdfrwt beam="2">  1       -2 0.66147487E-01 0.15880952E+04</pdfrwt>
<totfact> 0.26757089E+01</totfact>
</mgrwt>
</event>
<event>
 6    1  0.2436515E-005  0.2384885E+04  0.7818608E-02  0.8445184E-01
         -2   -1    0    0    0  501 -0.00000000000E+00  0.00000000000E+00  0.67936315995E+03  0.67936315995E+03  0.00000000000E+00 0. -1.
          2   -1    0    0  501    0  0.00000000000E+00 -0.00000000000E+00 -0.20930184001E+04  0.20930184001E+04  0.00000000000E+00 0.  1.
         23    2    1    2    0    0 -0.18596591136E+03  0.60677141134E+03  0.46328420201E+03  0.79105459680E+03  0.91543746216E+02 0.  0.
         11    1    3    3    0    0 -0.13923240358E+03  0.46982477795E+03  0.40237917070E+03  0.63405834210E+03  0.00000000000E+00 0.  1.
        -11    1    3    3    0    0 -0.46733507788E+02  0.13694663340E+03  0.60905031304E+02  0.15699625469E+03  0.00000000000E+00 0. -1.
         22    1    1    2    0    0  0.18596591136E+03 -0.60677141134E+03 -0.18769394421E+04  0.19813269632E+04  0.00000000000E+00 0.  1.
<mgrwt>
<rscale>  0 0.23848854E+04</rscale>
<asrwt>0</asrwt>
<pdfrwt beam="1">  1        2 0.32200283E+00 0.23848854E+04</pdfrwt>
<pdfrwt beam="2">  1       -2 0.10451741E+00 0.23848854E+04</pdfrwt>
<totfact> 0.39672341E+00</totfact>
</mgrwt>
</event>
<event>
 6    1  0.2436515E-005  0.2069088E+04  0.7818608E-02  0.8574984E-01
         -2   -1    0    0    0  501 -0.00000000000E+00  0.00000000000E+00  0.16394001479E+04  0.16394001479E+04  0.00000000000E+00 0.  1.
          2   -1    0    0  501    0  0.00000000000E+00 -0.00000000000E+00 -0.65284946637E+03  0.65284946637E+03  0.00000000000E+00 0. -1.
         23    2    1    2    0    0 -0.53639757398E+03  0.10859766520E+03 -0.47571434888E+03  0.73092491088E+03  0.91821965548E+02 0.  0.
         11    1    3    3    0    0 -0.36543168642E+03  0.11531582661E+03 -0.31248066459E+03  0.49445143649E+03  0.00000000000E+00 0.  1.
        -11    1    3    3    0    0 -0.17096588756E+03 -0.67181614145E+01 -0.16323368429E+03  0.23647347439E+03  0.00000000000E+00 0. -1.
         22    1    1    2    0    0  0.53639757398E+03 -0.10859766520E+03  0.14622650304E+04  0.15613247034E+04  0.00000000000E+00 0.  1.
<mgrwt>
<rscale>  0 0.20690882E+04</rscale>
<asrwt>0</asrwt>
<pdfrwt beam="1">  1        2 0.10043838E+00 0.20690882E+04</pdfrwt>
<pdfrwt beam="2">  1       -2 0.25221541E+00 0.20690882E+04</pdfrwt>
<totfact> 0.25725157E+00</totfact>
</mgrwt>
</event>
<event>
 6    1  0.2436515E-005  0.2188151E+04  0.7818608E-02  0.8523376E-01
         -2   -1    0    0    0  501 -0.00000000000E+00  0.00000000000E+00  0.19535936598E+04  0.19535936598E+04  0.00000000000E+00 0. -1.
          2   -1    0    0  501    0  0.00000000000E+00 -0.00000000000E+00 -0.61271735269E+03  0.61271735269E+03  0.00000000000E+00 0.  1.
         23    2    1    2    0    0 -0.33922793107E+03 -0.10346545011E+04  0.77319730482E+03  0.13383676199E+04  0.88364517242E+02 0.  0.
         11    1    3    3    0    0 -0.18993275061E+03 -0.50748396042E+03  0.33779161283E+03  0.63852767640E+03  0.00000000000E+00 0. -1.
        -11    1    3    3    0    0 -0.14929518047E+03 -0.52717054065E+03  0.43540569199E+03  0.69983994345E+03  0.00000000000E+00 0.  1.
         22    1    1    2    0    0  0.33922793107E+03  0.10346545011E+04  0.56767900225E+03  0.12279433926E+04  0.00000000000E+00 0.  1.
<mgrwt>
<rscale>  0 0.21881506E+04</rscale>
<asrwt>0</asrwt>
<pdfrwt beam="1">  1        2 0.94264209E-01 0.21881506E+04</pdfrwt>
<pdfrwt beam="2">  1       -2 0.30055287E+00 0.21881506E+04</pdfrwt>
<totfact> 0.13958541E+00</totfact>
</mgrwt>
</event>
<event>
 6    1  0.2436515E-005  0.2005648E+04  0.7818608E-02  0.8603985E-01
         -1   -1    0    0    0  501 -0.00000000000E+00  0.00000000000E+00  0.10038651103E+04  0.10038651103E+04  0.00000000000E+00 0. -1.
          1   -1    0    0  501    0  0.00000000000E+00 -0.00000000000E+00 -0.10017840646E+04  0.10017840646E+04  0.00000000000E+00 0.  1.
         23    2    1    2    0    0  0.80709205218E+03 -0.56993978702E+03 -0.15838044116E+03  0.10046612477E+04  0.89615383899E+02 0.  0.
         13    1    3    3    0    0  0.63854513800E+03 -0.42310307526E+03 -0.15257911415E+03  0.78104832862E+03  0.00000000000E+00 0.  1.
        -13    1    3    3    0    0  0.16854691418E+03 -0.14683671176E+03 -0.58013270028E+01  0.22361291912E+03  0.00000000000E+00 0. -1.
         22    1    1    2    0    0 -0.80709205218E+03  0.56993978702E+03  0.16046148679E+03  0.10009879271E+04  0.00000000000E+00 0. -1.
<mgrwt>
<rscale>  0 0.20056481E+04</rscale>
<asrwt>0</asrwt>
<pdfrwt beam="1">  1        1 0.15412063E+00 0.20056481E+04</pdfrwt>
<pdfrwt beam="2">  1       -1 0.15444079E+00 0.20056481E+04</pdfrwt>
<totfact> 0.45075068E+00</totfact>
</mgrwt>
</event>
<event>
 6    1  0.2436515E-005  0.2315606E+04  0.7818608E-02  0.8471793E-01
          2   -1    0    0  501    0  0.00000000000E+00  0.00000000000E+00  0.10099164015E+04  0.10099164015E+04  0.00000000000E+00 0.  1.
         -2   -1    0    0    0  501 -0.00000000000E+00 -0.00000000000E+00 -0.13273457446E+04  0.13273457446E+04  0.00000000000E+00 0. -1.
         23    2    1    2    0    0 -0.57836122500E+03  0.83471545430E+03  0.39844141328E+03  0.10947958343E+04  0.92578414609E+02 0.  0.
         13    1    3    3    0    0 -0.18648192381E+03  0.21618960752E+03  0.81367982287E+02  0.29687405217E+03  0.00000000000E+00 0. -1.
        -13    1    3    3    0    0 -0.39187930119E+03  0.61852584677E+03  0.31707343099E+03  0.79792178218E+03  0.00000000000E+00 0.  1.
         22    1    1    2    0    0  0.57836122500E+03 -0.83471545430E+03 -0.71587075637E+03  0.12424663118E+04  0.00000000000E+00 0. -1.
<mgrwt>
<rscale>  0 0.23156064E+04</rscale>
<asrwt>0</asrwt>
<pdfrwt beam="1">  1        2 0.15537175E+00 0.23156064E+04</pdfrwt>
<pdfrwt beam="2">  1       -2 0.20420704E+00 0.23156064E+04</pdfrwt>
<totfact> 0.28050571E+00</totfact>
</mgrwt>
</event>
<event>
 6    1  0.2436515E-005  0.3163666E+04  0.7818608E-02  0.8198479E-01
         -2   -1    0    0    0  501 -0.00000000000E+00  0.00000000000E+00  0.10472741078E+04  0.10472741078E+04  0.00000000000E+00 0. -1.
          2   -1    0    0  501    0  0.00000000000E+00 -0.00000000000E+00 -0.23892464069E+04  0.23892464069E+04  0.00000000000E+00 0.  1.
         23    2    1    2    0    0 -0.18762132570E+03 -0.76589173137E+03 -0.21594299843E+04  0.23007260908E+04  0.91710314319E+02 0.  0.
         11    1    3    3    0    0 -0.13338140263E+03 -0.66742921170E+03 -0.18880931404E+04  0.20070246780E+04  0.00000000000E+00 0. -1.
        -11    1    3    3    0    0 -0.54239923069E+02 -0.98462519672E+02 -0.27133684393E+03  0.29370141285E+03  0.00000000000E+00 0.  1.
         22    1    1    2    0    0  0.18762132570E+03  0.76589173137E+03  0.81745768527E+03  0.11357944238E+04  0.00000000000E+00 0. -1.
<mgrwt>
<rscale>  0 0.31636662E+04</rscale>
<asrwt>0</asrwt>
<pdfrwt beam="1">  1        2 0.36757637E+00 0.31636662E+04</pdfrwt>
<pdfrwt beam="2">  1       -2 0.16111910E+00 0.31636662E+04</pdfrwt>
<totfact> 0.84158951E-01</totfact>
</mgrwt>
</event>
<event>
 6    1  0.2436515E-005  0.1965816E+04  0.7818608E-02  0.8622772E-01
         -2   -1    0    0    0  501 -0.00000000000E+00  0.00000000000E+00  0.60637865425E+03  0.60637865425E+03  0.00000000000E+00 0.  1.
          2   -1    0    0  501    0  0.00000000000E+00 -0.00000000000E+00 -0.15932425359E+04  0.15932425359E+04  0.00000000000E+00 0. -1.
         23    2    1    2    0    0 -0.19944025502E+03 -0.95793492770E+03 -0.41610266032E+03  0.10668440219E+04  0.87172255716E+02 0.  0.
         13    1    3    3    0    0 -0.15926963908E+03 -0.65480577779E+03 -0.32227569718E+03  0.74699333970E+03  0.00000000000E+00 0.  1.
        -13    1    3    3    0    0 -0.40170615940E+02 -0.30312914991E+03 -0.93826963134E+02  0.31985068223E+03  0.00000000000E+00 0. -1.
         22    1    1    2    0    0  0.19944025502E+03  0.95793492770E+03 -0.57076122131E+03  0.11327771682E+04  0.00000000000E+00 0.  1.
<mgrwt>
<rscale>  0 0.19658161E+04</rscale>
<asrwt>0</asrwt>
<pdfrwt beam="1">  1        2 0.24511424E+00 0.19658161E+04</pdfrwt>
<pdfrwt beam="2">  1       -2 0.93289024E-01 0.19658161E+04</pdfrwt>
<totfact> 0.10191500E+01</totfact>
</mgrwt>
</event>
<event>
 6    1  0.2436515E-005  0.1089624E+04  0.7818608E-02  0.9215364E-01
         -4   -1    0    0    0  501 -0.00000000000E+00  0.00000000000E+00  0.21954686209E+03  0.21954686209E+03  0.00000000000E+00 0. -1.
          4   -1    0    0  501    0  0.00000000000E+00 -0.00000000000E+00 -0.13519670719E+04  0.13519670719E+04  0.00000000000E+00 0.  1.
         23    2    1    2    0    0 -0.49106224477E+03  0.20430490303E+03 -0.42668265591E+03  0.68780124504E+03  0.90165637492E+02 0.  0.
         13    1    3    3    0    0 -0.39321493974E+03  0.12310623163E+03 -0.33518111531E+03  0.53114923813E+03  0.00000000000E+00 0.  1.
        -13    1    3    3    0    0 -0.97847305029E+02  0.81198671395E+02 -0.91501540599E+02  0.15665200691E+03  0.00000000000E+00 0. -1.
         22    1    1    2    0    0  0.49106224477E+03 -0.20430490303E+03 -0.70573755393E+03  0.88371268898E+03  0.00000000000E+00 0. -1.
<mgrwt>
<rscale>  0 0.10896240E+04</rscale>
<asrwt>0</asrwt>
<pdfrwt beam="1">  1        4 0.20799493E+00 0.10896240E+04</pdfrwt>
<pdfrwt beam="2">  1       -4 0.33776441E-01 0.10896240E+04</pdfrwt>
<totfact> 0.19772003E+00</totfact>
</mgrwt>
</event>
<event>
 6    1  0.2436515E-005  0.9844276E+03  0.7818608E-02  0.9325791E-01
         -2   -1    0    0    0  501 -0.00000000000E+00  0.00000000000E+00  0.14710772164E+03  0.14710772164E+03  0.00000000000E+00 0. -1.
          2   -1    0    0  501    0  0.00000000000E+00 -0.00000000000E+00 -0.16469186257E+04  0.16469186257E+04  0.00000000000E+00 0.  1.
         23    2    1    2    0    0 -0.23871126314E+03  0.19124849790E+03 -0.64280209202E+02  0.32627043065E+03  0.93602315798E+02 0.  0.
         11    1    3    3    0    0 -0.20242129277E+03  0.15978469276E+03 -0.16332176691E+02  0.25840330455E+03  0.00000000000E+00 0. -1.
        -11    1    3    3    0    0 -0.36289970366E+02  0.31463805144E+02 -0.47948032511E+02  0.67867126100E+02  0.00000000000E+00 0.  1.
         22    1    1    2    0    0  0.23871126314E+03 -0.19124849790E+03 -0.14355306948E+04  0.14677559167E+04  0.00000000000E+00 0.  1.
<mgrwt>
<rscale>  0 0.98442764E+03</rscale>
<asrwt>0</asrwt>
<pdfrwt beam="1">  1        2 0.25337210E+00 0.98442764E+03</pdfrwt>
<pdfrwt beam="2">  1       -2 0.22631957E-01 0.98442764E+03</pdfrwt>
<totfact> 0.18007842E+02</totfact>
</mgrwt>
</event>
<event>
 6    1  0.2436515E-005  0.5606804E+03  0.7818608E-02  0.9990516E-01
          2   -1    0    0  501    0  0.00000000000E+00  0.00000000000E+00  0.10701388654E+04  0.10701388654E+04  0.00000000000E+00 0. -1.
         -2   -1    0    0    0  501 -0.00000000000E+00 -0.00000000000E+00 -0.73439654844E+02  0.73439654844E+02  0.00000000000E+00 0.  1.
         23    2    1    2    0    0 -0.11431285908E+03 -0.22506748267E+02  0.10150120628E+04  0.10256406382E+04  0.90084669560E+02 0.  0.
         13    1    3    3    0    0 -0.51626691282E+02 -0.43529036535E+02  0.72735207269E+03  0.73048006812E+03  0.00000000000E+00 0.  1.
        -13    1    3    3    0    0 -0.62686167797E+02  0.21022288268E+02  0.28765999011E+03  0.29516057011E+03  0.00000000000E+00 0. -1.
         22    1    1    2    0    0  0.11431285908E+03  0.22506748267E+02 -0.18312852202E+02  0.11793788206E+03  0.00000000000E+00 0.  1.
<mgrwt>
<rscale>  0 0.56068040E+03</rscale>
<asrwt>0</asrwt>
<pdfrwt beam="1">  1        2 0.16463674E+00 0.56068040E+03</pdfrwt>
<pdfrwt beam="2">  1       -2 0.11298409E-01 0.56068040E+03</pdfrwt>
<totfact> 0.12897757E+03</totfact>
</mgrwt>
</event>
<event>
 6    1  0.2436515E-005  0.1811754E+04  0.7818608E-02  0.8700074E-01
         -2   -1    0    0    0  501 -0.00000000000E+00  0.00000000000E+00  0.41103685880E+03  0.41103685880E+03  0.00000000000E+00 0. -1.
          2   -1    0    0  501    0  0.00000000000E+00 -0.00000000000E+00 -0.19964455783E+04  0.19964455783E+04  0.00000000000E+00 0.  1.
         23    2    1    2    0    0 -0.52669297969E+03  0.25850619167E+03  0.11836431511E+03  0.60551864738E+03  0.91715730614E+02 0.  0.
         11    1    3    3    0    0 -0.31217615175E+03  0.19727326310E+03  0.94338210875E+02  0.38114352689E+03  0.00000000000E+00 0. -1.
        -11    1    3    3    0    0 -0.21451682794E+03  0.61232928575E+02  0.24026104233E+02  0.22437512050E+03  0.00000000000E+00 0.  1.
         22    1    1    2    0    0  0.52669297969E+03 -0.25850619167E+03 -0.17037730346E+04  0.18019637897E+04  0.00000000000E+00 0.  1.
<mgrwt>
<rscale>  0 0.18117535E+04</rscale>
<asrwt>0</asrwt>
<pdfrwt beam="1">  1        2 0.30714548E+00 0.18117535E+04</pdfrwt>
<pdfrwt beam="2">  1       -2 0.63236438E-01 0.18117535E+04</pdfrwt>
<totfact> 0.14660419E+01</totfact>
</mgrwt>
</event>
<event>
 6    1  0.2436515E-005  0.2735170E+04  0.7818608E-02  0.8323683E-01
         -2   -1    0    0    0  501 -0.00000000000E+00  0.00000000000E+00  0.14691002302E+04  0.14691002302E+04  0.00000000000E+00 0.  1.
          2   -1    0    0  501    0  0.00000000000E+00 -0.00000000000E+00 -0.12730842532E+04  0.12730842532E+04  0.00000000000E+00 0. -1.
         23    2    1    2    0    0  0.88673401496E+03 -0.35965085214E+03 -0.87925133338E+03  0.13027937312E+04  0.92426457655E+02 0.  0.
         13    1    3    3    0    0  0.56825660996E+03 -0.19591914019E+03 -0.59276095720E+03  0.84419514133E+03  0.00000000000E+00 0. -1.
        -13    1    3    3    0    0  0.31847740499E+03 -0.16373171195E+03 -0.28649037618E+03  0.45859858987E+03  0.00000000000E+00 0.  1.
         22    1    1    2    0    0 -0.88673401496E+03  0.35965085214E+03  0.10752673104E+04  0.14393907522E+04  0.00000000000E+00 0.  1.
<mgrwt>
<rscale>  0 0.27351697E+04</rscale>
<asrwt>0</asrwt>
<pdfrwt beam="1">  1        2 0.19585912E+00 0.27351697E+04</pdfrwt>
<pdfrwt beam="2">  1       -2 0.22601542E+00 0.27351697E+04</pdfrwt>
<totfact> 0.13580800E+00</totfact>
</mgrwt>
</event>
<event>
 6    1  0.2436515E-005  0.3323376E+04  0.7818608E-02  0.8156973E-01
          2   -1    0    0  501    0  0.00000000000E+00  0.00000000000E+00  0.20196534262E+04  0.20196534262E+04  0.00000000000E+00 0.  1.
         -2   -1    0    0    0  501 -0.00000000000E+00 -0.00000000000E+00 -0.13671690046E+04  0.13671690046E+04  0.00000000000E+00 0. -1.
         23    2    1    2    0    0  0.11568101401E+04  0.12042976503E+03 -0.88119679720E+03  0.14620130612E+04  0.90892062114E+02 0.  0.
         11    1    3    3    0    0  0.63943259599E+03  0.37897288310E+02 -0.52854590774E+03  0.83046434352E+03  0.00000000000E+00 0. -1.
        -11    1    3    3    0    0  0.51737754415E+03  0.82532476723E+02 -0.35265088946E+03  0.63154871763E+03  0.00000000000E+00 0.  1.
         22    1    1    2    0    0 -0.11568101401E+04 -0.12042976503E+03  0.15336812188E+04  0.19248093697E+04  0.00000000000E+00 0.  1.
<mgrwt>
<rscale>  0 0.33233763E+04</rscale>
<asrwt>0</asrwt>
<pdfrwt beam="1">  1        2 0.31071591E+00 0.33233763E+04</pdfrwt>
<pdfrwt beam="2">  1       -2 0.21033369E+00 0.33233763E+04</pdfrwt>
<totfact> 0.61887660E-01</totfact>
</mgrwt>
</event>
<event>
 6    1  0.2436515E-005  0.3290015E+04  0.7818608E-02  0.8165441E-01
         -2   -1    0    0    0  501 -0.00000000000E+00  0.00000000000E+00  0.10751132500E+04  0.10751132500E+04  0.00000000000E+00 0. -1.
          2   -1    0    0  501    0  0.00000000000E+00 -0.00000000000E+00 -0.25169908876E+04  0.25169908876E+04  0.00000000000E+00 0.  1.
         23    2    1    2    0    0 -0.98446548343E+03 -0.81724948257E+03 -0.18482531456E+04  0.22496399637E+04  0.88154814715E+02 0.  0.
         11    1    3    3    0    0 -0.67031624690E+03 -0.56250518596E+03 -0.11909778051E+04  0.14778917712E+04  0.00000000000E+00 0.  1.
        -11    1    3    3    0    0 -0.31414923652E+03 -0.25474429661E+03 -0.65727534048E+03  0.77174819253E+03  0.00000000000E+00 0. -1.
         22    1    1    2    0    0  0.98446548343E+03  0.81724948257E+03  0.40637550800E+03  0.13424641739E+04  0.00000000000E+00 0.  1.
<mgrwt>
<rscale>  0 0.32900154E+04</rscale>
<asrwt>0</asrwt>
<pdfrwt beam="1">  1        2 0.38722937E+00 0.32900154E+04</pdfrwt>
<pdfrwt beam="2">  1       -2 0.16540204E+00 0.32900154E+04</pdfrwt>
<totfact> 0.65401580E-01</totfact>
</mgrwt>
</event>
<event>
 6    1  0.2436515E-005  0.2593998E+04  0.7818608E-02  0.8370243E-01
          2   -1    0    0  501    0  0.00000000000E+00  0.00000000000E+00  0.10517685344E+04  0.10517685344E+04  0.00000000000E+00 0.  1.
         -2   -1    0    0    0  501 -0.00000000000E+00 -0.00000000000E+00 -0.15994071034E+04  0.15994071034E+04  0.00000000000E+00 0. -1.
         23    2    1    2    0    0 -0.93651302914E+03  0.88646039990E+03 -0.15009638209E+03  0.13017652166E+04  0.95890880339E+02 0.  0.
         11    1    3    3    0    0 -0.15430318290E+03  0.16676748515E+03  0.69064355468E+01  0.22730720448E+03  0.00000000000E+00 0.  1.
        -11    1    3    3    0    0 -0.78220984624E+03  0.71969291476E+03 -0.15700281764E+03  0.10744580121E+04  0.00000000000E+00 0. -1.
         22    1    1    2    0    0  0.93651302914E+03 -0.88646039990E+03 -0.39754218693E+03  0.13494104212E+04  0.00000000000E+00 0. -1.
<mgrwt>
<rscale>  0 0.25939977E+04</rscale>
<asrwt>0</asrwt>
<pdfrwt beam="1">  1        2 0.16181054E+00 0.25939977E+04</pdfrwt>
<pdfrwt beam="2">  1       -2 0.24606263E+00 0.25939977E+04</pdfrwt>
<totfact> 0.14040267E+00</totfact>
</mgrwt>
</event>
<event>
 6    1  0.2436515E-005  0.3606375E+04  0.7818608E-02  0.8089033E-01
          2   -1    0    0  501    0  0.00000000000E+00  0.00000000000E+00  0.35423302967E+04  0.35423302967E+04  0.00000000000E+00 0.  1.
         -2   -1    0    0    0  501 -0.00000000000E+00 -0.00000000000E+00 -0.91789431937E+03  0.91789431937E+03  0.00000000000E+00 0. -1.
         23    2    1    2    0    0  0.74918859486E+03 -0.37644226049E+03  0.32859192629E+04  0.33922581077E+04  0.84601068000E+02 0.  0.
         13    1    3    3    0    0  0.16823595049E+03 -0.12534872512E+03  0.82573541833E+03  0.85197102005E+03  0.00000000000E+00 0. -1.
        -13    1    3    3    0    0  0.58095264438E+03 -0.25109353538E+03  0.24601838445E+04  0.25402870876E+04  0.00000000000E+00 0.  1.
         22    1    1    2    0    0 -0.74918859486E+03  0.37644226049E+03 -0.66148328551E+03  0.10679665084E+04  0.00000000000E+00 0. -1.
<mgrwt>
<rscale>  0 0.36063748E+04</rscale>
<asrwt>0</asrwt>
<pdfrwt beam="1">  1        2 0.54497389E+00 0.36063748E+04</pdfrwt>
<pdfrwt beam="2">  1       -2 0.14121451E+00 0.36063748E+04</pdfrwt>
<totfact> 0.21674786E-01</totfact>
</mgrwt>
</event>
<event>
 6    1  0.2436515E-005  0.5633051E+03  0.7818608E-02  0.9984604E-01
         -2   -1    0    0    0  501 -0.00000000000E+00  0.00000000000E+00  0.14787751817E+03  0.14787751817E+03  0.00000000000E+00 0. -1.
          2   -1    0    0  501    0  0.00000000000E+00 -0.00000000000E+00 -0.53644510401E+03  0.53644510401E+03  0.00000000000E+00 0.  1.
         23    2    1    2    0    0 -0.29510601028E+02 -0.24519000831E+03 -0.54531159334E+02  0.26890794986E+03  0.91371890710E+02 0.  0.
         13    1    3    3    0    0  0.19168711646E+02 -0.16796977508E+03 -0.15965185849E+02  0.16981216683E+03  0.00000000000E+00 0.  1.
        -13    1    3    3    0    0 -0.48679312674E+02 -0.77220233235E+02 -0.38565973485E+02  0.99095783029E+02  0.00000000000E+00 0. -1.
         22    1    1    2    0    0  0.29510601028E+02  0.24519000831E+03 -0.33403642651E+03  0.41541467232E+03  0.00000000000E+00 0. -1.
<mgrwt>
<rscale>  0 0.56330514E+03</rscale>
<asrwt>0</asrwt>
<pdfrwt beam="1">  1        2 0.82530017E-01 0.56330514E+03</pdfrwt>
<pdfrwt beam="2">  1       -2 0.22750387E-01 0.56330514E+03</pdfrwt>
<totfact> 0.96629673E+02</totfact>
</mgrwt>
</event>
<event>
 6    1  0.2436515E-005  0.1278704E+04  0.7818608E-02  0.9046626E-01
         -2   -1    0    0    0  501 -0.00000000000E+00  0.00000000000E+00  0.48509871500E+03  0.48509871500E+03  0.00000000000E+00 0. -1.
          2   -1    0    0  501    0  0.00000000000E+00 -0.00000000000E+00 -0.84265468089E+03  0.84265468089E+03  0.00000000000E+00 0.  1.
         23    2    1    2    0    0 -0.32630552447E+03  0.24992819986E+03 -0.68381855822E+03  0.80298041684E+03  0.90721160034E+02 0.  0.
         11    1    3    3    0    0 -0.79763933046E+02  0.73972337005E+02 -0.11346656683E+03  0.15719050050E+03  0.00000000000E+00 0. -1.
        -11    1    3    3    0    0 -0.24654159143E+03  0.17595586286E+03 -0.57035199138E+03  0.64578991634E+03  0.00000000000E+00 0.  1.
         22    1    1    2    0    0  0.32630552447E+03 -0.24992819986E+03  0.32626259233E+03  0.52477297905E+03  0.00000000000E+00 0. -1.
<mgrwt>
<rscale>  0 0.12787036E+04</rscale>
<asrwt>0</asrwt>
<pdfrwt beam="1">  1        2 0.12963918E+00 0.12787036E+04</pdfrwt>
<pdfrwt beam="2">  1       -2 0.74630573E-01 0.12787036E+04</pdfrwt>
<totfact> 0.50916033E+01</totfact>
</mgrwt>
</event>
<event>
 6    1  0.2436515E-005  0.1372440E+04  0.7818608E-02  0.8974013E-01
         -2   -1    0    0    0  501 -0.00000000000E+00  0.00000000000E+00  0.80375070943E+03  0.80375070943E+03  0.00000000000E+00 0. -1.
          2   -1    0    0  501    0  0.00000000000E+00 -0.00000000000E+00 -0.58587555383E+03  0.58587555383E+03  0.00000000000E+00 0.  1.
         23    2    1    2    0    0  0.42878474407E+03  0.50157835616E+03 -0.70000135565E+02  0.66968919144E+03  0.90257354473E+02 0.  0.
         13    1    3    3    0    0  0.21605015341E+03  0.31964158474E+03 -0.50295483256E+02  0.38907331844E+03  0.00000000000E+00 0.  1.
        -13    1    3    3    0    0  0.21273459066E+03  0.18193677142E+03 -0.19704652309E+02  0.28061587301E+03  0.00000000000E+00 0. -1.
         22    1    1    2    0    0 -0.42878474407E+03 -0.50157835616E+03  0.28787529116E+03  0.71993707182E+03  0.00000000000E+00 0. -1.
<mgrwt>
<rscale>  0 0.13724400E+04</rscale>
<asrwt>0</asrwt>
<pdfrwt beam="1">  1        2 0.90134700E-01 0.13724400E+04</pdfrwt>
<pdfrwt beam="2">  1       -2 0.12365396E+00 0.13724400E+04</pdfrwt>
<totfact> 0.24518722E+01</totfact>
</mgrwt>
</event>
<event>
 6    1  0.2436515E-005  0.2705885E+04  0.7818608E-02  0.8333098E-01
         -2   -1    0    0    0  501 -0.00000000000E+00  0.00000000000E+00  0.14169596355E+04  0.14169596355E+04  0.00000000000E+00 0. -1.
          2   -1    0    0  501    0  0.00000000000E+00 -0.00000000000E+00 -0.12918172412E+04  0.12918172412E+04  0.00000000000E+00 0.  1.
         23    2    1    2    0    0  0.11784813881E+04 -0.22351517208E+03  0.68669021071E+03  0.13843474281E+04  0.78082916340E+02 0.  0.
         13    1    3    3    0    0  0.23262296136E+03 -0.64722083377E+02  0.11110995080E+03  0.26579656017E+03  0.00000000000E+00 0.  1.
        -13    1    3    3    0    0  0.94585842675E+03 -0.15879308870E+03  0.57558025992E+03  0.11185508679E+04  0.00000000000E+00 0. -1.
         22    1    1    2    0    0 -0.11784813881E+04  0.22351517208E+03 -0.56154781646E+03  0.13244294487E+04  0.00000000000E+00 0.  1.
<mgrwt>
<rscale>  0 0.27058846E+04</rscale>
<asrwt>0</asrwt>
<pdfrwt beam="1">  1        2 0.19874111E+00 0.27058846E+04</pdfrwt>
<pdfrwt beam="2">  1       -2 0.21799379E+00 0.27058846E+04</pdfrwt>
<totfact> 0.14917332E+00</totfact>
</mgrwt>
</event>
<event>
 6    1  0.2436515E-005  0.4184954E+04  0.7818608E-02  0.7968240E-01
         -2   -1    0    0    0  501 -0.00000000000E+00  0.00000000000E+00  0.21739504840E+04  0.21739504840E+04  0.00000000000E+00 0. -1.
          2   -1    0    0  501    0  0.00000000000E+00 -0.00000000000E+00 -0.20140568006E+04  0.20140568006E+04  0.00000000000E+00 0.  1.
         23    2    1    2    0    0  0.11617271476E+04  0.43563416620E+03  0.17653953240E+04  0.21589625314E+04  0.71494544450E+02 0.  0.
         13    1    3    3    0    0  0.30435971606E+03  0.80959106322E+02  0.44539838206E+03  0.54549879229E+03  0.00000000000E+00 0.  1.
        -13    1    3    3    0    0  0.85736743158E+03  0.35467505988E+03  0.13199969419E+04  0.16134637391E+04  0.00000000000E+00 0. -1.
         22    1    1    2    0    0 -0.11617271476E+04 -0.43563416620E+03 -0.16055016406E+04  0.20290447532E+04  0.00000000000E+00 0.  1.
<mgrwt>
<rscale>  0 0.41849539E+04</rscale>
<asrwt>0</asrwt>
<pdfrwt beam="1">  1        2 0.30985489E+00 0.41849539E+04</pdfrwt>
<pdfrwt beam="2">  1       -2 0.33445392E+00 0.41849539E+04</pdfrwt>
<totfact> 0.99310127E-02</totfact>
</mgrwt>
</event>
<event>
 6    1  0.2436515E-005  0.2330922E+04  0.7818608E-02  0.8465828E-01
         -1   -1    0    0    0  501 -0.00000000000E+00  0.00000000000E+00  0.58326649839E+03  0.58326649839E+03  0.00000000000E+00 0. -1.
          1   -1    0    0  501    0  0.00000000000E+00 -0.00000000000E+00 -0.23287791273E+04  0.23287791273E+04  0.00000000000E+00 0.  1.
         23    2    1    2    0    0  0.29889433970E+03  0.95297608227E+03 -0.12741704060E+03  0.10105371265E+04  0.86307253889E+02 0.  0.
         11    1    3    3    0    0  0.51713026931E+02  0.11329553344E+03  0.80961177329E+01  0.12480249266E+03  0.00000000000E+00 0. -1.
        -11    1    3    3    0    0  0.24718131277E+03  0.83968054883E+03 -0.13551315833E+03  0.88573463382E+03  0.00000000000E+00 0.  1.
         22    1    1    2    0    0 -0.29889433970E+03 -0.95297608227E+03 -0.16180955884E+04  0.19015084993E+04  0.00000000000E+00 0.  1.
<mgrwt>
<rscale>  0 0.23309216E+04</rscale>
<asrwt>0</asrwt>
<pdfrwt beam="1">  1        1 0.35827371E+00 0.23309216E+04</pdfrwt>
<pdfrwt beam="2">  1       -1 0.89733309E-01 0.23309216E+04</pdfrwt>
<totfact> 0.19489381E+00</totfact>
</mgrwt>
</event>
<event>
 6    1  0.2436515E-005  0.2403153E+04  0.7818608E-02  0.8438324E-01
          2   -1    0    0  501    0  0.00000000000E+00  0.00000000000E+00  0.24996501487E+04  0.24996501487E+04  0.00000000000E+00 0.  1.
         -2   -1    0    0    0  501 -0.00000000000E+00 -0.00000000000E+00 -0.57759514182E+03  0.57759514182E+03  0.00000000000E+00 0. -1.
         23    2    1    2    0    0 -0.90341567543E+03 -0.66545344534E+03  0.15068971209E+04  0.18808572929E+04  0.88865363732E+02 0.  0.
         13    1    3    3    0    0 -0.70104999153E+03 -0.49331878474E+03  0.10935036570E+04  0.13894548434E+04  0.00000000000E+00 0. -1.
        -13    1    3    3    0    0 -0.20236568391E+03 -0.17213466061E+03  0.41339346394E+03  0.49140244956E+03  0.00000000000E+00 0.  1.
         22    1    1    2    0    0  0.90341567543E+03  0.66545344534E+03  0.41515788601E+03  0.11963879976E+04  0.00000000000E+00 0. -1.
<mgrwt>
<rscale>  0 0.24031527E+04</rscale>
<asrwt>0</asrwt>
<pdfrwt beam="1">  1        2 0.38456155E+00 0.24031527E+04</pdfrwt>
<pdfrwt beam="2">  1       -2 0.88860793E-01 0.24031527E+04</pdfrwt>
<totfact> 0.34071180E+00</totfact>
</mgrwt>
</event>
<event>
 6    1  0.2436515E-005  0.3115494E+04  0.7818608E-02  0.8211499E-01
         -2   -1    0    0    0  501 -0.00000000000E+00  0.00000000000E+00  0.75589603144E+03  0.75589603144E+03  0.00000000000E+00 0. -1.
          2   -1    0    0  501    0  0.00000000000E+00 -0.00000000000E+00 -0.32101971427E+04  0.32101971427E+04  0.00000000000E+00 0.  1.
         23    2    1    2    0    0 -0.11905398353E+04  0.34752793472E+03 -0.24253080148E+04  0.27255282365E+04  0.90688676476E+02 0.  0.
         13    1    3    3    0    0 -0.61676206823E+03  0.15683423626E+03 -0.11570271187E+04  0.13204939151E+04  0.00000000000E+00 0. -1.
        -13    1    3    3    0    0 -0.57377776707E+03  0.19069369846E+03 -0.12682808961E+04  0.14050343213E+04  0.00000000000E+00 0.  1.
         22    1    1    2    0    0  0.11905398353E+04 -0.34752793472E+03 -0.28993096384E+02  0.12405649376E+04  0.00000000000E+00 0. -1.
<mgrwt>
<rscale>  0 0.31154937E+04</rscale>
<asrwt>0</asrwt>
<pdfrwt beam="1">  1        2 0.49387648E+00 0.31154937E+04</pdfrwt>
<pdfrwt beam="2">  1       -2 0.11629170E+00 0.31154937E+04</pdfrwt>
<totfact> 0.62073480E-01</totfact>
</mgrwt>
</event>
<event>
 6    1  0.2436515E-005  0.4722715E+04  0.7818608E-02  0.7872765E-01
         -2   -1    0    0    0  501 -0.00000000000E+00  0.00000000000E+00  0.25071488421E+04  0.25071488421E+04  0.00000000000E+00 0. -1.
          2   -1    0    0  501    0  0.00000000000E+00 -0.00000000000E+00 -0.22240435883E+04  0.22240435883E+04  0.00000000000E+00 0.  1.
         23    2    1    2    0    0 -0.32721662658E+03 -0.19006312557E+04 -0.12219032810E+04  0.22848644515E+04  0.89933545095E+02 0.  0.
         11    1    3    3    0    0 -0.34576518493E+02 -0.41848568476E+03 -0.26977514641E+03  0.49910363012E+03  0.00000000000E+00 0.  1.
        -11    1    3    3    0    0 -0.29264010808E+03 -0.14821455710E+04 -0.95212813454E+03  0.17857608213E+04  0.00000000000E+00 0. -1.
         22    1    1    2    0    0  0.32721662658E+03  0.19006312557E+04  0.15050085347E+04  0.24463279790E+04  0.00000000000E+00 0. -1.
<mgrwt>
<rscale>  0 0.47227146E+04</rscale>
<asrwt>0</asrwt>
<pdfrwt beam="1">  1        2 0.34216055E+00 0.47227146E+04</pdfrwt>
<pdfrwt beam="2">  1       -2 0.38571520E+00 0.47227146E+04</pdfrwt>
<totfact> 0.34260019E-02</totfact>
</mgrwt>
</event>
<event>
 6    1  0.2436515E-005  0.2552741E+04  0.7818608E-02  0.8384433E-01
          2   -1    0    0  501    0  0.00000000000E+00  0.00000000000E+00  0.21907601705E+04  0.21907601705E+04  0.00000000000E+00 0.  1.
         -2   -1    0    0    0  501 -0.00000000000E+00 -0.00000000000E+00 -0.74363322620E+03  0.74363322620E+03  0.00000000000E+00 0. -1.
         23    2    1    2    0    0  0.98213880558E+03 -0.60580345451E+03  0.10187159592E+03  0.11620202951E+04  0.91207923321E+02 0.  0.
         13    1    3    3    0    0  0.25001493594E+03 -0.19877050189E+03  0.13166966479E+02  0.31967256626E+03  0.00000000000E+00 0.  1.
        -13    1    3    3    0    0  0.73212386965E+03 -0.40703295263E+03  0.88704629444E+02  0.84234772886E+03  0.00000000000E+00 0. -1.
         22    1    1    2    0    0 -0.98213880558E+03  0.60580345451E+03  0.13452553484E+04  0.17723731016E+04  0.00000000000E+00 0.  1.
<mgrwt>
<rscale>  0 0.25527413E+04</rscale>
<asrwt>0</asrwt>
<pdfrwt beam="1">  1        2 0.33704002E+00 0.25527413E+04</pdfrwt>
<pdfrwt beam="2">  1       -2 0.11440511E+00 0.25527413E+04</pdfrwt>
<totfact> 0.27710333E+00</totfact>
</mgrwt>
</event>
<event>
 6    1  0.2436515E-005  0.2699684E+04  0.7818608E-02  0.8335107E-01
         -2   -1    0    0    0  501 -0.00000000000E+00  0.00000000000E+00  0.91497124565E+03  0.91497124565E+03  0.00000000000E+00 0. -1.
          2   -1    0    0  501    0  0.00000000000E+00 -0.00000000000E+00 -0.19914002701E+04  0.19914002701E+04  0.00000000000E+00 0.  1.
         23    2    1    2    0    0 -0.80837173646E+03 -0.39685870781E+03 -0.16188930341E+04  0.18550728427E+04  0.97564836231E+02 0.  0.
         11    1    3    3    0    0 -0.16182892174E+03 -0.37551737904E+02 -0.29735621751E+03  0.34061628414E+03  0.00000000000E+00 0. -1.
        -11    1    3    3    0    0 -0.64654281471E+03 -0.35930696991E+03 -0.13215368166E+04  0.15144565585E+04  0.00000000000E+00 0.  1.
         22    1    1    2    0    0  0.80837173646E+03  0.39685870781E+03  0.54246400968E+03  0.10512986731E+04  0.00000000000E+00 0. -1.
<mgrwt>
<rscale>  0 0.26996844E+04</rscale>
<asrwt>0</asrwt>
<pdfrwt beam="1">  1        2 0.30636927E+00 0.26996844E+04</pdfrwt>
<pdfrwt beam="2">  1       -2 0.14076481E+00 0.26996844E+04</pdfrwt>
<totfact> 0.20987253E+00</totfact>
</mgrwt>
</event>
<event>
 6    1  0.2436515E-005  0.3007778E+04  0.7818608E-02  0.8241513E-01
          2   -1    0    0  501    0  0.00000000000E+00  0.00000000000E+00  0.21308060863E+04  0.21308060863E+04  0.00000000000E+00 0. -1.
         -2   -1    0    0    0  501 -0.00000000000E+00 -0.00000000000E+00 -0.10614208385E+04  0.10614208385E+04  0.00000000000E+00 0.  1.
         23    2    1    2    0    0  0.60283116002E+03  0.13749018606E+04  0.60037909266E+03  0.16194181929E+04  0.91102660379E+02 0.  0.
         13    1    3    3    0    0  0.26748062800E+03  0.58251668972E+03  0.20942966713E+03  0.67433846519E+03  0.00000000000E+00 0.  1.
        -13    1    3    3    0    0  0.33535053201E+03  0.79238517088E+03  0.39094942553E+03  0.94507972768E+03  0.00000000000E+00 0. -1.
         22    1    1    2    0    0 -0.60283116002E+03 -0.13749018606E+04  0.46900615516E+03  0.15728087320E+04  0.00000000000E+00 0.  1.
<mgrwt>
<rscale>  0 0.30077779E+04</rscale>
<asrwt>0</asrwt>
<pdfrwt beam="1">  1        2 0.32781632E+00 0.30077779E+04</pdfrwt>
<pdfrwt beam="2">  1       -2 0.16329551E+00 0.30077779E+04</pdfrwt>
<totfact> 0.11508919E+00</totfact>
</mgrwt>
</event>
<event>
 6    1  0.2436515E-005  0.4496430E+04  0.7818608E-02  0.7911262E-01
         -2   -1    0    0    0  501 -0.00000000000E+00  0.00000000000E+00  0.33711742736E+04  0.33711742736E+04  0.00000000000E+00 0. -1.
          2   -1    0    0  501    0  0.00000000000E+00 -0.00000000000E+00 -0.14993206028E+04  0.14993206028E+04  0.00000000000E+00 0.  1.
         23    2    1    2    0    0  0.16039784644E+04 -0.15591450558E+04  0.70676515134E+03  0.23483704787E+04  0.10791990802E+03 0.  0.
         13    1    3    3    0    0  0.25130628401E+03 -0.21848748978E+03  0.70300942645E+02  0.34034372936E+03  0.00000000000E+00 0.  1.
        -13    1    3    3    0    0  0.13526721804E+04 -0.13406575660E+04  0.63646420870E+03  0.20080267493E+04  0.00000000000E+00 0. -1.
         22    1    1    2    0    0 -0.16039784644E+04  0.15591450558E+04  0.11650885195E+04  0.25221243977E+04  0.00000000000E+00 0. -1.
<mgrwt>
<rscale>  0 0.44964302E+04</rscale>
<asrwt>0</asrwt>
<pdfrwt beam="1">  1        2 0.23066471E+00 0.44964302E+04</pdfrwt>
<pdfrwt beam="2">  1       -2 0.51864219E+00 0.44964302E+04</pdfrwt>
<totfact> 0.12311429E-02</totfact>
</mgrwt>
</event>
<event>
 6    1  0.2436515E-005  0.1713138E+04  0.7818608E-02  0.8753907E-01
         -2   -1    0    0    0  501 -0.00000000000E+00  0.00000000000E+00  0.61170931729E+03  0.61170931729E+03  0.00000000000E+00 0. -1.
          2   -1    0    0  501    0  0.00000000000E+00 -0.00000000000E+00 -0.11994424584E+04  0.11994424584E+04  0.00000000000E+00 0.  1.
         23    2    1    2    0    0 -0.52685992839E+03 -0.30309143683E+02  0.41530712730E+03  0.67775431301E+03  0.91492461370E+02 0.  0.
         11    1    3    3    0    0 -0.27273170957E+03 -0.59103317883E+02  0.19833412960E+03  0.34236269446E+03  0.00000000000E+00 0.  1.
        -11    1    3    3    0    0 -0.25412821882E+03  0.28794174199E+02  0.21697299770E+03  0.33539161856E+03  0.00000000000E+00 0. -1.
         22    1    1    2    0    0  0.52685992839E+03  0.30309143683E+02 -0.10030402684E+04  0.11333974627E+04  0.00000000000E+00 0. -1.
<mgrwt>
<rscale>  0 0.17131376E+04</rscale>
<asrwt>0</asrwt>
<pdfrwt beam="1">  1        2 0.18452961E+00 0.17131376E+04</pdfrwt>
<pdfrwt beam="2">  1       -2 0.94109127E-01 0.17131376E+04</pdfrwt>
<totfact> 0.17170027E+01</totfact>
</mgrwt>
</event>
<event>
 6    1  0.2436515E-005  0.2827107E+04  0.7818608E-02  0.8294902E-01
         -2   -1    0    0    0  501 -0.00000000000E+00  0.00000000000E+00  0.17919236027E+04  0.17919236027E+04  0.00000000000E+00 0. -1.
          2   -1    0    0  501    0  0.00000000000E+00 -0.00000000000E+00 -0.11150777534E+04  0.11150777534E+04  0.00000000000E+00 0.  1.
         23    2    1    2    0    0  0.15804615656E+03 -0.55646029768E+03  0.16634180075E+04  0.17633443823E+04  0.88302279678E+02 0.  0.
         13    1    3    3    0    0  0.15504069292E+02 -0.19697613583E+03  0.60881741688E+03  0.64007704329E+03  0.00000000000E+00 0. -1.
        -13    1    3    3    0    0  0.14254208727E+03 -0.35948416185E+03  0.10546005906E+04  0.11232673391E+04  0.00000000000E+00 0.  1.
         22    1    1    2    0    0 -0.15804615656E+03  0.55646029768E+03 -0.98657215814E+03  0.11436569738E+04  0.00000000000E+00 0.  1.
<mgrwt>
<rscale>  0 0.28271075E+04</rscale>
<asrwt>0</asrwt>
<pdfrwt beam="1">  1        2 0.17155042E+00 0.28271075E+04</pdfrwt>
<pdfrwt beam="2">  1       -2 0.27568055E+00 0.28271075E+04</pdfrwt>
<totfact> 0.82846359E-01</totfact>
</mgrwt>
</event>
<event>
 6    1  0.2436515E-005  0.1412909E+04  0.7818608E-02  0.8944527E-01
          2   -1    0    0  501    0  0.00000000000E+00  0.00000000000E+00  0.70096040291E+03  0.70096040291E+03  0.00000000000E+00 0.  1.
         -2   -1    0    0    0  501 -0.00000000000E+00 -0.00000000000E+00 -0.71199133022E+03  0.71199133022E+03  0.00000000000E+00 0. -1.
         23    2    1    2    0    0  0.15548609760E+03 -0.47753304632E+03  0.48713973111E+03  0.70557083023E+03  0.91166561687E+02 0.  0.
         13    1    3    3    0    0  0.10511702209E+02 -0.15917580322E+03  0.13165870971E+03  0.20683676670E+03  0.00000000000E+00 0. -1.
        -13    1    3    3    0    0  0.14497439540E+03 -0.31835724310E+03  0.35548102141E+03  0.49873406354E+03  0.00000000000E+00 0.  1.
         22    1    1    2    0    0 -0.15548609760E+03  0.47753304632E+03 -0.49817065841E+03  0.70738090290E+03  0.00000000000E+00 0. -1.
<mgrwt>
<rscale>  0 0.14129087E+04</rscale>
<asrwt>0</asrwt>
<pdfrwt beam="1">  1        2 0.10784006E+00 0.14129087E+04</pdfrwt>
<pdfrwt beam="2">  1       -2 0.10953713E+00 0.14129087E+04</pdfrwt>
<totfact> 0.26401825E+01</totfact>
</mgrwt>
</event>
<event>
 6    1  0.2436515E-005  0.1413288E+04  0.7818608E-02  0.8944256E-01
          2   -1    0    0  501    0  0.00000000000E+00  0.00000000000E+00  0.43982888859E+04  0.43982888859E+04  0.00000000000E+00 0.  1.
         -2   -1    0    0    0  501 -0.00000000000E+00 -0.00000000000E+00 -0.11353186180E+03  0.11353186180E+03  0.00000000000E+00 0. -1.
         23    2    1    2    0    0  0.58576616124E+02 -0.13699287225E+03  0.43468857928E+04  0.43503950654E+04  0.91229723337E+02 0.  0.
         11    1    3    3    0    0  0.23849418511E+02 -0.55151057878E+02  0.29879980210E+04  0.29886021160E+04  0.00000000000E+00 0. -1.
        -11    1    3    3    0    0  0.34727197614E+02 -0.81841814373E+02  0.13588877717E+04  0.13617929494E+04  0.00000000000E+00 0.  1.
         22    1    1    2    0    0 -0.58576616124E+02  0.13699287225E+03 -0.62128768699E+02  0.16142568229E+03  0.00000000000E+00 0. -1.
<mgrwt>
<rscale>  0 0.14132883E+04</rscale>
<asrwt>0</asrwt>
<pdfrwt beam="1">  1        2 0.67665970E+00 0.14132883E+04</pdfrwt>
<pdfrwt beam="2">  1       -2 0.17466444E-01 0.14132883E+04</pdfrwt>
<totfact> 0.42111324E+00</totfact>
</mgrwt>
</event>
<event>
 6    1  0.2436515E-005  0.1365355E+04  0.7818608E-02  0.8979285E-01
         -2   -1    0    0    0  501 -0.00000000000E+00  0.00000000000E+00  0.76586804497E+03  0.76586804497E+03  0.00000000000E+00 0. -1.
          2   -1    0    0  501    0  0.00000000000E+00 -0.00000000000E+00 -0.60852357706E+03  0.60852357706E+03  0.00000000000E+00 0.  1.
         23    2    1    2    0    0 -0.49993571445E+03 -0.42066699828E+03 -0.10712038931E+03  0.66952418575E+03  0.99455595445E+02 0.  0.
         13    1    3    3    0    0 -0.31264433708E+03 -0.24921554023E+03 -0.17312080608E+02  0.40019317227E+03  0.00000000000E+00 0.  1.
        -13    1    3    3    0    0 -0.18729137738E+03 -0.17145145805E+03 -0.89808308702E+02  0.26933101348E+03  0.00000000000E+00 0. -1.
         22    1    1    2    0    0  0.49993571445E+03  0.42066699828E+03  0.26446485722E+03  0.70486743628E+03  0.00000000000E+00 0. -1.
<mgrwt>
<rscale>  0 0.13653553E+04</rscale>
<asrwt>0</asrwt>
<pdfrwt beam="1">  1        2 0.93619012E-01 0.13653553E+04</pdfrwt>
<pdfrwt beam="2">  1       -2 0.11782585E+00 0.13653553E+04</pdfrwt>
<totfact> 0.26425969E+01</totfact>
</mgrwt>
</event>
<event>
 6    1  0.2436515E-005  0.2262196E+04  0.7818608E-02  0.8492978E-01
          2   -1    0    0  501    0  0.00000000000E+00  0.00000000000E+00  0.17197603412E+04  0.17197603412E+04  0.00000000000E+00 0.  1.
         -2   -1    0    0    0  501 -0.00000000000E+00 -0.00000000000E+00 -0.74393051858E+03  0.74393051858E+03  0.00000000000E+00 0. -1.
         23    2    1    2    0    0  0.22104906919E+03  0.56546762859E+03 -0.54996672221E+03  0.82153635238E+03  0.61985907879E+02 0.  0.
         13    1    3    3    0    0  0.94050988753E+02  0.21004399970E+03 -0.24652864042E+03  0.33725426735E+03  0.00000000000E+00 0. -1.
        -13    1    3    3    0    0  0.12699808044E+03  0.35542362888E+03 -0.30343808179E+03  0.48428208503E+03  0.00000000000E+00 0.  1.
         22    1    1    2    0    0 -0.22104906919E+03 -0.56546762859E+03  0.15257965448E+04  0.16421545074E+04  0.00000000000E+00 0.  1.
<mgrwt>
<rscale>  0 0.22621956E+04</rscale>
<asrwt>0</asrwt>
<pdfrwt beam="1">  1        2 0.26457851E+00 0.22621956E+04</pdfrwt>
<pdfrwt beam="2">  1       -2 0.11445085E+00 0.22621956E+04</pdfrwt>
<totfact> 0.51880715E+00</totfact>
</mgrwt>
</event>
<event>
 6    1  0.2436515E-005  0.5275029E+04  0.7818608E-02  0.7787427E-01
         -2   -1    0    0    0  501 -0.00000000000E+00  0.00000000000E+00  0.24784586653E+04  0.24784586653E+04  0.00000000000E+00 0. -1.
          2   -1    0    0  501    0  0.00000000000E+00 -0.00000000000E+00 -0.28067777245E+04  0.28067777245E+04  0.00000000000E+00 0.  1.
         23    2    1    2    0    0  0.59294349531E+03  0.11597395599E+04 -0.24611364325E+04  0.27861389962E+04  0.93809015565E+02 0.  0.
         11    1    3    3    0    0  0.17434374293E+03  0.34817316372E+03 -0.82967631164E+03  0.91650590545E+03  0.00000000000E+00 0.  1.
        -11    1    3    3    0    0  0.41859975238E+03  0.81156639615E+03 -0.16314601208E+04  0.18696330907E+04  0.00000000000E+00 0. -1.
         22    1    1    2    0    0 -0.59294349531E+03 -0.11597395599E+04  0.21328173732E+04  0.24990973936E+04  0.00000000000E+00 0. -1.
<mgrwt>
<rscale>  0 0.52750289E+04</rscale>
<asrwt>0</asrwt>
<pdfrwt beam="1">  1        2 0.43181196E+00 0.52750289E+04</pdfrwt>
<pdfrwt beam="2">  1       -2 0.38130133E+00 0.52750289E+04</pdfrwt>
<totfact> 0.16029049E-02</totfact>
</mgrwt>
</event>
<event>
 6    1  0.2436515E-005  0.5212826E+04  0.7818608E-02  0.7796490E-01
         -2   -1    0    0    0  501 -0.00000000000E+00  0.00000000000E+00  0.28189348224E+04  0.28189348224E+04  0.00000000000E+00 0.  1.
          2   -1    0    0  501    0  0.00000000000E+00 -0.00000000000E+00 -0.24099137888E+04  0.24099137888E+04  0.00000000000E+00 0. -1.
         23    2    1    2    0    0 -0.82051876938E+03 -0.56290664202E+02 -0.22753885645E+04  0.24212741100E+04  0.93570862495E+02 0.  0.
         13    1    3    3    0    0 -0.25833579861E+03  0.52515995298E+01 -0.82539693687E+03  0.86489598654E+03  0.00000000000E+00 0.  1.
        -13    1    3    3    0    0 -0.56218297077E+03 -0.61542263732E+02 -0.14499916277E+04  0.15563781234E+04  0.00000000000E+00 0. -1.
         22    1    1    2    0    0  0.82051876938E+03  0.56290664202E+02  0.26844095981E+04  0.28075745013E+04  0.00000000000E+00 0.  1.
<mgrwt>
<rscale>  0 0.52128264E+04</rscale>
<asrwt>0</asrwt>
<pdfrwt beam="1">  1        2 0.37075597E+00 0.52128264E+04</pdfrwt>
<pdfrwt beam="2">  1       -2 0.43368228E+00 0.52128264E+04</pdfrwt>
<totfact> 0.12531588E-02</totfact>
</mgrwt>
</event>
<event>
 6    1  0.2436515E-005  0.1619538E+04  0.7818608E-02  0.8808634E-01
         -2   -1    0    0    0  501 -0.00000000000E+00  0.00000000000E+00  0.87625353999E+03  0.87625353999E+03  0.00000000000E+00 0. -1.
          2   -1    0    0  501    0  0.00000000000E+00 -0.00000000000E+00 -0.74832888593E+03  0.74832888593E+03  0.00000000000E+00 0.  1.
         23    2    1    2    0    0 -0.14974803453E+03  0.68350766283E+02 -0.72852180356E+03  0.75246039555E+03  0.91412950501E+02 0.  0.
         11    1    3    3    0    0 -0.14655363409E+03  0.85951895821E+02 -0.64137155800E+03  0.66349315857E+03  0.00000000000E+00 0.  1.
        -11    1    3    3    0    0 -0.31944004375E+01 -0.17601129538E+02 -0.87150245560E+02  0.88967236983E+02  0.00000000000E+00 0. -1.
         22    1    1    2    0    0  0.14974803453E+03 -0.68350766283E+02  0.85644645761E+03  0.87212203037E+03  0.00000000000E+00 0. -1.
<mgrwt>
<rscale>  0 0.16195380E+04</rscale>
<asrwt>0</asrwt>
<pdfrwt beam="1">  1        2 0.11512752E+00 0.16195380E+04</pdfrwt>
<pdfrwt beam="2">  1       -2 0.13480824E+00 0.16195380E+04</pdfrwt>
<totfact> 0.14253914E+01</totfact>
</mgrwt>
</event>
<event>
 6    1  0.2436515E-005  0.2957648E+04  0.7818608E-02  0.8255929E-01
          2   -1    0    0  501    0  0.00000000000E+00  0.00000000000E+00  0.10299386470E+04  0.10299386470E+04  0.00000000000E+00 0.  1.
         -2   -1    0    0    0  501 -0.00000000000E+00 -0.00000000000E+00 -0.21233502845E+04  0.21233502845E+04  0.00000000000E+00 0. -1.
         23    2    1    2    0    0  0.10938389138E+04  0.35703688527E+03  0.44071282161E+03  0.12356088844E+04  0.92426280535E+02 0.  0.
         11    1    3    3    0    0  0.94030972389E+03  0.31607529472E+03  0.34597961745E+03  0.10506130898E+04  0.00000000000E+00 0.  1.
        -11    1    3    3    0    0  0.15352918991E+03  0.40961590549E+02  0.94733204157E+02  0.18499579461E+03  0.00000000000E+00 0. -1.
         22    1    1    2    0    0 -0.10938389138E+04 -0.35703688527E+03 -0.15341244591E+04  0.19176800471E+04  0.00000000000E+00 0. -1.
<mgrwt>
<rscale>  0 0.29576481E+04</rscale>
<asrwt>0</asrwt>
<pdfrwt beam="1">  1        2 0.15845210E+00 0.29576481E+04</pdfrwt>
<pdfrwt beam="2">  1       -2 0.32666927E+00 0.29576481E+04</pdfrwt>
<totfact> 0.45070026E-01</totfact>
</mgrwt>
</event>
<event>
 6    1  0.2436515E-005  0.3743596E+04  0.7818608E-02  0.8058368E-01
         -2   -1    0    0    0  501 -0.00000000000E+00  0.00000000000E+00  0.20168332943E+04  0.20168332943E+04  0.00000000000E+00 0. -1.
          2   -1    0    0  501    0  0.00000000000E+00 -0.00000000000E+00 -0.17371928165E+04  0.17371928165E+04  0.00000000000E+00 0.  1.
         23    2    1    2    0    0 -0.91947611723E+03  0.12774349732E+04 -0.87278562920E+03  0.18032923071E+04  0.11327819495E+03 0.  0.
         13    1    3    3    0    0 -0.17907568339E+03  0.17842136027E+03 -0.13369491757E+03  0.28596610493E+03  0.00000000000E+00 0. -1.
        -13    1    3    3    0    0 -0.74040043384E+03  0.10990136129E+04 -0.73909071163E+03  0.15173262022E+04  0.00000000000E+00 0.  1.
         22    1    1    2    0    0  0.91947611723E+03 -0.12774349732E+04  0.11524261070E+04  0.19507338037E+04  0.00000000000E+00 0. -1.
<mgrwt>
<rscale>  0 0.37435963E+04</rscale>
<asrwt>0</asrwt>
<pdfrwt beam="1">  1        2 0.26726043E+00 0.37435963E+04</pdfrwt>
<pdfrwt beam="2">  1       -2 0.31028205E+00 0.37435963E+04</pdfrwt>
<totfact> 0.20700376E-01</totfact>
</mgrwt>
</event>
<event>
 6    1  0.2436515E-005  0.3767386E+04  0.7818608E-02  0.8053190E-01
          2   -1    0    0  501    0  0.00000000000E+00  0.00000000000E+00  0.15929192346E+04  0.15929192346E+04  0.00000000000E+00 0.  1.
         -2   -1    0    0    0  501 -0.00000000000E+00 -0.00000000000E+00 -0.22275449254E+04  0.22275449254E+04  0.00000000000E+00 0. -1.
         23    2    1    2    0    0  0.41186914345E+03  0.14283923459E+04  0.85389072456E+03  0.17167479234E+04  0.90294950418E+02 0.  0.
         13    1    3    3    0    0  0.13061150415E+03  0.35191409780E+03  0.24744155800E+03  0.44958894768E+03  0.00000000000E+00 0. -1.
        -13    1    3    3    0    0  0.28125763930E+03  0.10764782481E+04  0.60644916656E+03  0.12671589758E+04  0.00000000000E+00 0.  1.
         22    1    1    2    0    0 -0.41186914345E+03 -0.14283923459E+04 -0.14885164154E+04  0.21037162366E+04  0.00000000000E+00 0. -1.
<mgrwt>
<rscale>  0 0.37673859E+04</rscale>
<asrwt>0</asrwt>
<pdfrwt beam="1">  1        2 0.24506450E+00 0.37673859E+04</pdfrwt>
<pdfrwt beam="2">  1       -2 0.34269922E+00 0.37673859E+04</pdfrwt>
<totfact> 0.15642448E-01</totfact>
</mgrwt>
</event>
<event>
 6    1  0.2436515E-005  0.3168809E+04  0.7818608E-02  0.8197103E-01
          2   -1    0    0  501    0  0.00000000000E+00  0.00000000000E+00  0.87569766016E+03  0.87569766016E+03  0.00000000000E+00 0.  1.
         -2   -1    0    0    0  501 -0.00000000000E+00 -0.00000000000E+00 -0.28666719100E+04  0.28666719100E+04  0.00000000000E+00 0. -1.
         23    2    1    2    0    0  0.37392534461E+03 -0.15279149203E+04 -0.12074421684E+04  0.19850230791E+04  0.89754483012E+02 0.  0.
         13    1    3    3    0    0  0.24006925881E+03 -0.11353553132E+04 -0.90784747379E+03  0.14733811360E+04  0.00000000000E+00 0. -1.
        -13    1    3    3    0    0  0.13385608580E+03 -0.39255960709E+03 -0.29959469464E+03  0.51164194304E+03  0.00000000000E+00 0.  1.
         22    1    1    2    0    0 -0.37392534461E+03  0.15279149203E+04 -0.78353208139E+03  0.17573464911E+04  0.00000000000E+00 0. -1.
<mgrwt>
<rscale>  0 0.31688092E+04</rscale>
<asrwt>0</asrwt>
<pdfrwt beam="1">  1        2 0.13472272E+00 0.31688092E+04</pdfrwt>
<pdfrwt beam="2">  1       -2 0.44102644E+00 0.31688092E+04</pdfrwt>
<totfact> 0.10220529E-01</totfact>
</mgrwt>
</event>
<event>
 6    1  0.2436515E-005  0.2567352E+04  0.7818608E-02  0.8379376E-01
         -2   -1    0    0    0  501 -0.00000000000E+00  0.00000000000E+00  0.71517829480E+03  0.71517829480E+03  0.00000000000E+00 0. -1.
          2   -1    0    0  501    0  0.00000000000E+00 -0.00000000000E+00 -0.23040741909E+04  0.23040741909E+04  0.00000000000E+00 0.  1.
         23    2    1    2    0    0 -0.44814745058E+03 -0.97296672860E+03 -0.16237687218E+04  0.19474705552E+04  0.92283851154E+02 0.  0.
         13    1    3    3    0    0 -0.10124180315E+03 -0.32077380966E+03 -0.52017772369E+03  0.61945992921E+03  0.00000000000E+00 0. -1.
        -13    1    3    3    0    0 -0.34690564743E+03 -0.65219291894E+03 -0.11035909981E+04  0.13280106260E+04  0.00000000000E+00 0.  1.
         22    1    1    2    0    0  0.44814745058E+03  0.97296672860E+03  0.34872825733E+02  0.10717819304E+04  0.00000000000E+00 0. -1.
<mgrwt>
<rscale>  0 0.25673518E+04</rscale>
<asrwt>0</asrwt>
<pdfrwt beam="1">  1        2 0.35447297E+00 0.25673518E+04</pdfrwt>
<pdfrwt beam="2">  1       -2 0.11002743E+00 0.25673518E+04</pdfrwt>
<totfact> 0.26258735E+00</totfact>
</mgrwt>
</event>
<event>
 6    1  0.2436515E-005  0.1857002E+04  0.7818608E-02  0.8676561E-01
          2   -1    0    0  501    0  0.00000000000E+00  0.00000000000E+00  0.22804316654E+04  0.22804316654E+04  0.00000000000E+00 0.  1.
         -2   -1    0    0    0  501 -0.00000000000E+00 -0.00000000000E+00 -0.37804844993E+03  0.37804844993E+03  0.00000000000E+00 0. -1.
         23    2    1    2    0    0  0.38624881434E+03  0.56003274443E+03  0.53419121431E+02  0.68832960270E+03  0.90106703449E+02 0.  0.
         11    1    3    3    0    0  0.10246030025E+03  0.12590821926E+03 -0.23440107395E+02  0.16401350992E+03  0.00000000000E+00 0.  1.
        -11    1    3    3    0    0  0.28378851409E+03  0.43412452517E+03  0.76859228825E+02  0.52431609277E+03  0.00000000000E+00 0. -1.
         22    1    1    2    0    0 -0.38624881434E+03 -0.56003274443E+03  0.18489640940E+04  0.19701505126E+04  0.00000000000E+00 0.  1.
<mgrwt>
<rscale>  0 0.18570015E+04</rscale>
<asrwt>0</asrwt>
<pdfrwt beam="1">  1        2 0.35083563E+00 0.18570015E+04</pdfrwt>
<pdfrwt beam="2">  1       -2 0.58161302E-01 0.18570015E+04</pdfrwt>
<totfact> 0.12093161E+01</totfact>
</mgrwt>
</event>
<event>
 6    1  0.2436515E-005  0.4089853E+04  0.7818608E-02  0.7986662E-01
         -2   -1    0    0    0  501 -0.00000000000E+00  0.00000000000E+00  0.97475337134E+03  0.97475337134E+03  0.00000000000E+00 0. -1.
          2   -1    0    0  501    0  0.00000000000E+00 -0.00000000000E+00 -0.42900342124E+04  0.42900342124E+04  0.00000000000E+00 0.  1.
         23    2    1    2    0    0 -0.19678406231E+04 -0.58829087525E+02 -0.23656346157E+04  0.30789958433E+04  0.90170331658E+02 0.  0.
         11    1    3    3    0    0 -0.11806213555E+04  0.87908213674E+01 -0.14120567873E+04  0.18406108861E+04  0.00000000000E+00 0.  1.
        -11    1    3    3    0    0 -0.78721926760E+03 -0.67619908893E+02 -0.95357782834E+03  0.12383849571E+04  0.00000000000E+00 0. -1.
         22    1    1    2    0    0  0.19678406231E+04  0.58829087525E+02 -0.94964622542E+03  0.21857917405E+04  0.00000000000E+00 0. -1.
<mgrwt>
<rscale>  0 0.40898535E+04</rscale>
<asrwt>0</asrwt>
<pdfrwt beam="1">  1        2 0.66000527E+00 0.40898535E+04</pdfrwt>
<pdfrwt beam="2">  1       -2 0.14996206E+00 0.40898535E+04</pdfrwt>
<totfact> 0.45211754E-02</totfact>
</mgrwt>
</event>
<event>
 6    1  0.3390088E-005  0.3264114E+04  0.7818608E-02  0.8172087E-01
         -2   -1    0    0    0  501 -0.00000000000E+00  0.00000000000E+00  0.99609356372E+03  0.99609356372E+03  0.00000000000E+00 0. -1.
          2   -1    0    0  501    0  0.00000000000E+00 -0.00000000000E+00 -0.26740557352E+04  0.26740557352E+04  0.00000000000E+00 0.  1.
         23    2    1    2    0    0  0.12936004915E+04 -0.92594622461E+03 -0.12429357011E+04  0.20208989625E+04  0.91459372616E+02 0.  0.
         11    1    3    3    0    0  0.60395342827E+03 -0.47236170417E+03 -0.55794159426E+03  0.94825320758E+03  0.00000000000E+00 0. -1.
        -11    1    3    3    0    0  0.68964706321E+03 -0.45358452045E+03 -0.68499410688E+03  0.10726457549E+04  0.00000000000E+00 0.  1.
         22    1    1    2    0    0 -0.12936004915E+04  0.92594622461E+03 -0.43502647033E+03  0.16492503365E+04  0.00000000000E+00 0. -1.
<mgrwt>
<rscale>  0 0.32641138E+04</rscale>
<asrwt>0</asrwt>
<pdfrwt beam="1">  1        2 0.41139319E+00 0.32641138E+04</pdfrwt>
<pdfrwt beam="2">  1       -2 0.15324516E+00 0.32641138E+04</pdfrwt>
<totfact> 0.65210331E-01</totfact>
</mgrwt>
</event>
<event>
 6    1  0.2436515E-005  0.9596358E+03  0.7818608E-02  0.9353958E-01
         -2   -1    0    0    0  501 -0.00000000000E+00  0.00000000000E+00  0.15879298559E+03  0.15879298559E+03  0.00000000000E+00 0. -1.
          2   -1    0    0  501    0  0.00000000000E+00 -0.00000000000E+00 -0.14498450756E+04  0.14498450756E+04  0.00000000000E+00 0.  1.
         23    2    1    2    0    0  0.89103332332E+02 -0.18653126183E+03 -0.13691927761E+04  0.13876419475E+04  0.90155426108E+02 0.  0.
         11    1    3    3    0    0  0.79350873724E+02 -0.18308949909E+03 -0.10809634086E+04  0.10992270997E+04  0.00000000000E+00 0.  1.
        -11    1    3    3    0    0  0.97524586085E+01 -0.34417627474E+01 -0.28822936743E+03  0.28841484779E+03  0.00000000000E+00 0. -1.
         22    1    1    2    0    0 -0.89103332332E+02  0.18653126183E+03  0.78140686037E+02  0.22099611374E+03  0.00000000000E+00 0. -1.
<mgrwt>
<rscale>  0 0.95963582E+03</rscale>
<asrwt>0</asrwt>
<pdfrwt beam="1">  1        2 0.22305309E+00 0.95963582E+03</pdfrwt>
<pdfrwt beam="2">  1       -2 0.24429690E-01 0.95963582E+03</pdfrwt>
<totfact> 0.20260619E+02</totfact>
</mgrwt>
</event>
<event>
 6    1  0.2436515E-005  0.2679640E+04  0.7818608E-02  0.8341641E-01
          2   -1    0    0  501    0  0.00000000000E+00  0.00000000000E+00  0.10647047699E+04  0.10647047699E+04  0.00000000000E+00 0.  1.
         -2   -1    0    0    0  501 -0.00000000000E+00 -0.00000000000E+00 -0.16860242600E+04  0.16860242600E+04  0.00000000000E+00 0. -1.
         23    2    1    2    0    0 -0.12276791862E+04  0.33688419767E+03 -0.73472051273E+03  0.14726261628E+04  0.90146751564E+02 0.  0.
         11    1    3    3    0    0 -0.46430288186E+03  0.85876125230E+02 -0.29165026661E+03  0.55498806563E+03  0.00000000000E+00 0. -1.
        -11    1    3    3    0    0 -0.76337630431E+03  0.25100807244E+03 -0.44307024612E+03  0.91763809719E+03  0.00000000000E+00 0.  1.
         22    1    1    2    0    0  0.12276791862E+04 -0.33688419767E+03  0.11340102264E+03  0.12781028670E+04  0.00000000000E+00 0.  1.
<mgrwt>
<rscale>  0 0.26796403E+04</rscale>
<asrwt>0</asrwt>
<pdfrwt beam="1">  1        2 0.16380073E+00 0.26796403E+04</pdfrwt>
<pdfrwt beam="2">  1       -2 0.25938835E+00 0.26796403E+04</pdfrwt>
<totfact> 0.11331973E+00</totfact>
</mgrwt>
</event>
<event>
 6    1  0.2436515E-005  0.1989024E+04  0.7818608E-02  0.8611769E-01
          2   -1    0    0  501    0  0.00000000000E+00  0.00000000000E+00  0.97779141228E+03  0.97779141228E+03  0.00000000000E+00 0.  1.
         -2   -1    0    0    0  501 -0.00000000000E+00 -0.00000000000E+00 -0.10115189051E+04  0.10115189051E+04  0.00000000000E+00 0. -1.
         23    2    1    2    0    0 -0.72481485915E+03  0.27042766384E+03 -0.63858311420E+03  0.10073031769E+04  0.91561973722E+02 0.  0.
         13    1    3    3    0    0 -0.17685726119E+03  0.35787902183E+02 -0.11541021348E+03  0.21419332892E+03  0.00000000000E+00 0. -1.
        -13    1    3    3    0    0 -0.54795759796E+03  0.23463976165E+03 -0.52317290071E+03  0.79310984797E+03  0.00000000000E+00 0.  1.
         22    1    1    2    0    0  0.72481485915E+03 -0.27042766384E+03  0.60485562133E+03  0.98200714053E+03  0.00000000000E+00 0.  1.
<mgrwt>
<rscale>  0 0.19890244E+04</rscale>
<asrwt>0</asrwt>
<pdfrwt beam="1">  1        2 0.15042945E+00 0.19890244E+04</pdfrwt>
<pdfrwt beam="2">  1       -2 0.15561829E+00 0.19890244E+04</pdfrwt>
<totfact> 0.65743081E+00</totfact>
</mgrwt>
</event>
<event>
 6    1  0.2436515E-005  0.8498057E+03  0.7818608E-02  0.9490598E-01
          1   -1    0    0  501    0  0.00000000000E+00  0.00000000000E+00  0.67722910531E+03  0.67722910531E+03  0.00000000000E+00 0. -1.
         -1   -1    0    0    0  501 -0.00000000000E+00 -0.00000000000E+00 -0.26658991063E+03  0.26658991063E+03  0.00000000000E+00 0.  1.
         23    2    1    2    0    0  0.30168727601E+03  0.14428181890E+03  0.49066127559E+03  0.59996441119E+03  0.85885688925E+02 0.  0.
         13    1    3    3    0    0  0.22438680450E+03  0.63791120324E+02  0.34503345913E+03  0.41649349693E+03  0.00000000000E+00 0.  1.
        -13    1    3    3    0    0  0.77300471509E+02  0.80490698580E+02  0.14562781646E+03  0.18347091426E+03  0.00000000000E+00 0. -1.
         22    1    1    2    0    0 -0.30168727601E+03 -0.14428181890E+03 -0.80022080903E+02  0.34385460474E+03  0.00000000000E+00 0.  1.
<mgrwt>
<rscale>  0 0.84980573E+03</rscale>
<asrwt>0</asrwt>
<pdfrwt beam="1">  1        1 0.10418909E+00 0.84980573E+03</pdfrwt>
<pdfrwt beam="2">  1       -1 0.41013833E-01 0.84980573E+03</pdfrwt>
<totfact> 0.16811932E+02</totfact>
</mgrwt>
</event>
<event>
 6    1  0.2436515E-005  0.4626327E+04  0.7818608E-02  0.7888886E-01
          2   -1    0    0  501    0  0.00000000000E+00  0.00000000000E+00  0.33879167950E+04  0.33879167950E+04  0.00000000000E+00 0.  1.
         -2   -1    0    0    0  501 -0.00000000000E+00 -0.00000000000E+00 -0.15793556467E+04  0.15793556467E+04  0.00000000000E+00 0. -1.
         23    2    1    2    0    0  0.82961099716E+03  0.11080777068E+04 -0.10840367451E+04  0.17605274901E+04  0.90723578313E+02 0.  0.
         13    1    3    3    0    0  0.57651068323E+03  0.75464769171E+03 -0.69065431758E+03  0.11742491613E+04  0.00000000000E+00 0.  1.
        -13    1    3    3    0    0  0.25310031392E+03  0.35343001513E+03 -0.39338242754E+03  0.58627832878E+03  0.00000000000E+00 0. -1.
         22    1    1    2    0    0 -0.82961099716E+03 -0.11080777068E+04  0.28925978935E+04  0.32067449515E+04  0.00000000000E+00 0.  1.
<mgrwt>
<rscale>  0 0.46263271E+04</rscale>
<asrwt>0</asrwt>
<pdfrwt beam="1">  1        2 0.52121797E+00 0.46263271E+04</pdfrwt>
<pdfrwt beam="2">  1       -2 0.24297779E+00 0.46263271E+04</pdfrwt>
<totfact> 0.51663116E-02</totfact>
</mgrwt>
</event>
<event>
 6    1  0.2436515E-005  0.1049861E+04  0.7818608E-02  0.9255488E-01
         -2   -1    0    0    0  501 -0.00000000000E+00  0.00000000000E+00  0.17998593326E+03  0.17998593326E+03  0.00000000000E+00 0. -1.
          2   -1    0    0  501    0  0.00000000000E+00 -0.00000000000E+00 -0.15309638841E+04  0.15309638841E+04  0.00000000000E+00 0.  1.
         23    2    1    2    0    0 -0.24044122651E+03  0.34194189467E+03 -0.11873108500E+04  0.12620365043E+04  0.91065037003E+02 0.  0.
         11    1    3    3    0    0 -0.12528715707E+03  0.17060116533E+03 -0.46704637630E+03  0.51277085229E+03  0.00000000000E+00 0. -1.
        -11    1    3    3    0    0 -0.11515406944E+03  0.17134072933E+03 -0.72026447370E+03  0.74926565203E+03  0.00000000000E+00 0.  1.
         22    1    1    2    0    0  0.24044122651E+03 -0.34194189467E+03 -0.16366710084E+03  0.44891331305E+03  0.00000000000E+00 0. -1.
<mgrwt>
<rscale>  0 0.10498609E+04</rscale>
<asrwt>0</asrwt>
<pdfrwt beam="1">  1        2 0.23553290E+00 0.10498609E+04</pdfrwt>
<pdfrwt beam="2">  1       -2 0.27690144E-01 0.10498609E+04</pdfrwt>
<totfact> 0.14436044E+02</totfact>
</mgrwt>
</event>
<event>
 6    1  0.3600874E-005  0.2692374E+04  0.7818608E-02  0.8337483E-01
         -2   -1    0    0    0  501 -0.00000000000E+00  0.00000000000E+00  0.10834668384E+04  0.10834668384E+04  0.00000000000E+00 0. -1.
          2   -1    0    0  501    0  0.00000000000E+00 -0.00000000000E+00 -0.16726121865E+04  0.16726121865E+04  0.00000000000E+00 0.  1.
         23    2    1    2    0    0 -0.49474292161E+03  0.11518357936E+04  0.20269531419E+03  0.12733424035E+04  0.93910768046E+02 0.  0.
         13    1    3    3    0    0 -0.27177167975E+03  0.67118958874E+03  0.16137431605E+03  0.74188744418E+03  0.00000000000E+00 0. -1.
        -13    1    3    3    0    0 -0.22297124186E+03  0.48064620481E+03  0.41320998140E+02  0.53145495932E+03  0.00000000000E+00 0.  1.
         22    1    1    2    0    0  0.49474292161E+03 -0.11518357936E+04 -0.79184066229E+03  0.14827366213E+04  0.00000000000E+00 0.  1.
<mgrwt>
<rscale>  0 0.26923743E+04</rscale>
<asrwt>0</asrwt>
<pdfrwt beam="1">  1        2 0.25732495E+00 0.26923743E+04</pdfrwt>
<pdfrwt beam="2">  1       -2 0.16668721E+00 0.26923743E+04</pdfrwt>
<totfact> 0.20075288E+00</totfact>
</mgrwt>
</event>
<event>
 6    1  0.2436515E-005  0.5565891E+04  0.7818608E-02  0.7746687E-01
          2   -1    0    0  501    0  0.00000000000E+00  0.00000000000E+00  0.18306078762E+04  0.18306078762E+04  0.00000000000E+00 0.  1.
         -2   -1    0    0    0  501 -0.00000000000E+00 -0.00000000000E+00 -0.42307175651E+04  0.42307175651E+04  0.00000000000E+00 0. -1.
         23    2    1    2    0    0 -0.11082227647E+04 -0.22152614316E+04  0.18016071161E+03  0.24845480864E+04  0.70571986488E+02 0.  0.
         13    1    3    3    0    0 -0.16300171043E+03 -0.31633879002E+03  0.14729214076E+01  0.35586789287E+03  0.00000000000E+00 0.  1.
        -13    1    3    3    0    0 -0.94522105427E+03 -0.18989226416E+04  0.17868779020E+03  0.21286801936E+04  0.00000000000E+00 0. -1.
         22    1    1    2    0    0  0.11082227647E+04  0.22152614316E+04 -0.25802704005E+04  0.35767773549E+04  0.00000000000E+00 0. -1.
<mgrwt>
<rscale>  0 0.55658907E+04</rscale>
<asrwt>0</asrwt>
<pdfrwt beam="1">  1        2 0.28163198E+00 0.55658907E+04</pdfrwt>
<pdfrwt beam="2">  1       -2 0.65087962E+00 0.55658907E+04</pdfrwt>
<totfact> 0.19598599E-03</totfact>
</mgrwt>
</event>
<event>
 6    1  0.2436515E-005  0.7053417E+03  0.7818608E-02  0.9708140E-01
          2   -1    0    0  501    0  0.00000000000E+00  0.00000000000E+00  0.55307682404E+03  0.55307682404E+03  0.00000000000E+00 0.  1.
         -2   -1    0    0    0  501 -0.00000000000E+00 -0.00000000000E+00 -0.22488148598E+03  0.22488148598E+03  0.00000000000E+00 0. -1.
         23    2    1    2    0    0 -0.27368808741E+03  0.21140278667E+03  0.15772554607E+03  0.39239864228E+03  0.97483532856E+02 0.  0.
         11    1    3    3    0    0 -0.70923999796E+02  0.21440607583E+02  0.25098221651E+01  0.74136445881E+02  0.00000000000E+00 0. -1.
        -11    1    3    3    0    0 -0.20276408762E+03  0.18996217909E+03  0.15521572390E+03  0.31826219640E+03  0.00000000000E+00 0.  1.
         22    1    1    2    0    0  0.27368808741E+03 -0.21140278667E+03  0.17046979199E+03  0.38555966774E+03  0.00000000000E+00 0.  1.
<mgrwt>
<rscale>  0 0.70534173E+03</rscale>
<asrwt>0</asrwt>
<pdfrwt beam="1">  1        2 0.85088742E-01 0.70534173E+03</pdfrwt>
<pdfrwt beam="2">  1       -2 0.34597152E-01 0.70534173E+03</pdfrwt>
<totfact> 0.43130333E+02</totfact>
</mgrwt>
</event>
<event>
 6    1  0.2436515E-005  0.3011858E+04  0.7818608E-02  0.8240353E-01
          2   -1    0    0  501    0  0.00000000000E+00  0.00000000000E+00  0.18472601659E+04  0.18472601659E+04  0.00000000000E+00 0.  1.
         -2   -1    0    0    0  501 -0.00000000000E+00 -0.00000000000E+00 -0.12276679233E+04  0.12276679233E+04  0.00000000000E+00 0. -1.
         23    2    1    2    0    0 -0.69171948862E+03  0.11148369484E+02  0.16740944555E+04  0.18137480647E+04  0.92139345278E+02 0.  0.
         11    1    3    3    0    0 -0.47582444042E+03  0.21636296446E+01  0.10356959323E+04  0.11397717507E+04  0.00000000000E+00 0.  1.
        -11    1    3    3    0    0 -0.21589504820E+03  0.89847398392E+01  0.63839852324E+03  0.67397631402E+03  0.00000000000E+00 0. -1.
         22    1    1    2    0    0  0.69171948862E+03 -0.11148369484E+02 -0.10545022130E+04  0.12611800245E+04  0.00000000000E+00 0. -1.
<mgrwt>
<rscale>  0 0.30118579E+04</rscale>
<asrwt>0</asrwt>
<pdfrwt beam="1">  1        2 0.28419387E+00 0.30118579E+04</pdfrwt>
<pdfrwt beam="2">  1       -2 0.18887199E+00 0.30118579E+04</pdfrwt>
<totfact> 0.10958393E+00</totfact>
</mgrwt>
</event>
<event>
 6    1  0.2436515E-005  0.1604381E+04  0.7818608E-02  0.8817861E-01
         -2   -1    0    0    0  501 -0.00000000000E+00  0.00000000000E+00  0.47921544816E+03  0.47921544816E+03  0.00000000000E+00 0. -1.
          2   -1    0    0  501    0  0.00000000000E+00 -0.00000000000E+00 -0.13428394271E+04  0.13428394271E+04  0.00000000000E+00 0.  1.
         23    2    1    2    0    0  0.24027603834E+03 -0.42326989114E+03 -0.11542111033E+04  0.12551943526E+04  0.80122508330E+02 0.  0.
         11    1    3    3    0    0  0.56335962764E+02 -0.76025657318E+02 -0.30776773292E+03  0.32198543243E+03  0.00000000000E+00 0.  1.
        -11    1    3    3    0    0  0.18394007558E+03 -0.34724423382E+03 -0.84644337040E+03  0.93320892013E+03  0.00000000000E+00 0. -1.
         22    1    1    2    0    0 -0.24027603834E+03  0.42326989114E+03  0.29058712437E+03  0.56686052270E+03  0.00000000000E+00 0. -1.
<mgrwt>
<rscale>  0 0.16043808E+04</rscale>
<asrwt>0</asrwt>
<pdfrwt beam="1">  1        2 0.20659068E+00 0.16043808E+04</pdfrwt>
<pdfrwt beam="2">  1       -2 0.73725453E-01 0.16043808E+04</pdfrwt>
<totfact> 0.24819970E+01</totfact>
</mgrwt>
</event>
<event>
 6    1  0.2436515E-005  0.3111046E+04  0.7818608E-02  0.8212713E-01
          2   -1    0    0  501    0  0.00000000000E+00  0.00000000000E+00  0.12966583198E+04  0.12966583198E+04  0.00000000000E+00 0.  1.
         -2   -1    0    0    0  501 -0.00000000000E+00 -0.00000000000E+00 -0.18660670629E+04  0.18660670629E+04  0.00000000000E+00 0. -1.
         23    2    1    2    0    0 -0.12188425031E+04  0.82713763403E+03 -0.78901960602E+03  0.16734427889E+04  0.90139425815E+02 0.  0.
         11    1    3    3    0    0 -0.10219898748E+04  0.70988136727E+03 -0.63171805828E+03  0.13955151611E+04  0.00000000000E+00 0.  1.
        -11    1    3    3    0    0 -0.19685262831E+03  0.11725626676E+03 -0.15730154773E+03  0.27792762779E+03  0.00000000000E+00 0. -1.
         22    1    1    2    0    0  0.12188425031E+04 -0.82713763403E+03  0.21961086285E+03  0.14892825938E+04  0.00000000000E+00 0.  1.
<mgrwt>
<rscale>  0 0.31110457E+04</rscale>
<asrwt>0</asrwt>
<pdfrwt beam="1">  1        2 0.19948590E+00 0.31110457E+04</pdfrwt>
<pdfrwt beam="2">  1       -2 0.28708724E+00 0.31110457E+04</pdfrwt>
<totfact> 0.53692401E-01</totfact>
</mgrwt>
</event>
<event>
 6    1  0.2436515E-005  0.3835536E+04  0.7818608E-02  0.8038572E-01
         -2   -1    0    0    0  501 -0.00000000000E+00  0.00000000000E+00  0.17821495689E+04  0.17821495689E+04  0.00000000000E+00 0. -1.
          2   -1    0    0  501    0  0.00000000000E+00 -0.00000000000E+00 -0.20637072529E+04  0.20637072529E+04  0.00000000000E+00 0.  1.
         23    2    1    2    0    0  0.12128209897E+04 -0.14670122808E+04 -0.36653453664E+03  0.19405272308E+04  0.90766633346E+02 0.  0.
         13    1    3    3    0    0  0.81534987418E+03 -0.93646412239E+03 -0.20897187639E+03  0.12591384813E+04  0.00000000000E+00 0. -1.
        -13    1    3    3    0    0  0.39747111556E+03 -0.53054815838E+03 -0.15756266025E+03  0.68138874952E+03  0.00000000000E+00 0.  1.
         22    1    1    2    0    0 -0.12128209897E+04  0.14670122808E+04  0.84976852674E+02  0.19053295911E+04  0.00000000000E+00 0. -1.
<mgrwt>
<rscale>  0 0.38355365E+04</rscale>
<asrwt>0</asrwt>
<pdfrwt beam="1">  1        2 0.31749342E+00 0.38355365E+04</pdfrwt>
<pdfrwt beam="2">  1       -2 0.27417686E+00 0.38355365E+04</pdfrwt>
<totfact> 0.22497168E-01</totfact>
</mgrwt>
</event>
<event>
 6    1  0.2436515E-005  0.3471820E+04  0.7818608E-02  0.8120501E-01
         -2   -1    0    0    0  501 -0.00000000000E+00  0.00000000000E+00  0.13651883690E+04  0.13651883690E+04  0.00000000000E+00 0. -1.
          2   -1    0    0  501    0  0.00000000000E+00 -0.00000000000E+00 -0.22073019355E+04  0.22073019355E+04  0.00000000000E+00 0.  1.
         23    2    1    2    0    0  0.63997062787E+02 -0.15894306990E+04 -0.11334785262E+04  0.19553078440E+04  0.89831088171E+02 0.  0.
         11    1    3    3    0    0  0.55501864320E+02 -0.80948858835E+03 -0.62531037256E+03  0.10243853248E+04  0.00000000000E+00 0. -1.
        -11    1    3    3    0    0  0.84951984670E+01 -0.77994211065E+03 -0.50816815364E+03  0.93092251919E+03  0.00000000000E+00 0.  1.
         22    1    1    2    0    0 -0.63997062787E+02  0.15894306990E+04  0.29136495972E+03  0.16171824606E+04  0.00000000000E+00 0.  1.
<mgrwt>
<rscale>  0 0.34718197E+04</rscale>
<asrwt>0</asrwt>
<pdfrwt beam="1">  1        2 0.33958491E+00 0.34718197E+04</pdfrwt>
<pdfrwt beam="2">  1       -2 0.21002898E+00 0.34718197E+04</pdfrwt>
<totfact> 0.48221810E-01</totfact>
</mgrwt>
</event>
<event>
 6    1  0.2436515E-005  0.2677953E+04  0.7818608E-02  0.8342194E-01
          2   -1    0    0  501    0  0.00000000000E+00  0.00000000000E+00  0.16257612561E+04  0.16257612561E+04  0.00000000000E+00 0.  1.
         -2   -1    0    0    0  501 -0.00000000000E+00 -0.00000000000E+00 -0.11027802891E+04  0.11027802891E+04  0.00000000000E+00 0. -1.
         23    2    1    2    0    0 -0.40468098811E+03 -0.32438354103E+03 -0.99442158281E+03  0.11249512353E+04  0.87462068968E+02 0.  0.
         11    1    3    3    0    0 -0.10572757340E+03 -0.54082762389E+02 -0.29013058058E+03  0.31349484646E+03  0.00000000000E+00 0. -1.
        -11    1    3    3    0    0 -0.29895341471E+03 -0.27030077865E+03 -0.70429100222E+03  0.81145638879E+03  0.00000000000E+00 0.  1.
         22    1    1    2    0    0  0.40468098811E+03  0.32438354103E+03  0.15174025498E+04  0.16035903099E+04  0.00000000000E+00 0.  1.
<mgrwt>
<rscale>  0 0.26779526E+04</rscale>
<asrwt>0</asrwt>
<pdfrwt beam="1">  1        2 0.25011712E+00 0.26779526E+04</pdfrwt>
<pdfrwt beam="2">  1       -2 0.16965851E+00 0.26779526E+04</pdfrwt>
<totfact> 0.20324736E+00</totfact>
</mgrwt>
</event>
<event>
 6    1  0.2436515E-005  0.6602243E+04  0.7818608E-02  0.7619908E-01
         -2   -1    0    0    0  501 -0.00000000000E+00  0.00000000000E+00  0.36579780800E+04  0.36579780800E+04  0.00000000000E+00 0. -1.
          2   -1    0    0  501    0  0.00000000000E+00 -0.00000000000E+00 -0.29790783153E+04  0.29790783153E+04  0.00000000000E+00 0.  1.
         23    2    1    2    0    0  0.66345404342E+02 -0.23957421994E+04  0.26209652205E+04  0.35523196751E+04  0.74390780914E+02 0.  0.
         11    1    3    3    0    0 -0.26689644413E+01 -0.10496367761E+04  0.11754474476E+04  0.15758874284E+04  0.00000000000E+00 0. -1.
        -11    1    3    3    0    0  0.69014368784E+02 -0.13461054233E+04  0.14455177729E+04  0.19764322466E+04  0.00000000000E+00 0.  1.
         22    1    1    2    0    0 -0.66345404342E+02  0.23957421994E+04 -0.19420654558E+04  0.30847367202E+04  0.00000000000E+00 0.  1.
<mgrwt>
<rscale>  0 0.66022430E+04</rscale>
<asrwt>0</asrwt>
<pdfrwt beam="1">  1        2 0.45831974E+00 0.66022430E+04</pdfrwt>
<pdfrwt beam="2">  1       -2 0.56276586E+00 0.66022430E+04</pdfrwt>
<totfact> 0.87046048E-04</totfact>
</mgrwt>
</event>
<event>
 6    1  0.2436515E-005  0.5214871E+03  0.7818608E-02  0.1008318E+00
         -2   -1    0    0    0  501 -0.00000000000E+00  0.00000000000E+00  0.31254296397E+02  0.31254296397E+02  0.00000000000E+00 0. -1.
          2   -1    0    0  501    0  0.00000000000E+00 -0.00000000000E+00 -0.21752913419E+04  0.21752913419E+04  0.00000000000E+00 0.  1.
         23    2    1    2    0    0 -0.28584686228E+01  0.22998786999E+03 -0.15447054947E+04  0.15645947842E+04  0.94547249852E+02 0.  0.
         13    1    3    3    0    0 -0.36232606828E+02  0.11230213233E+03 -0.55837345163E+03  0.57070612596E+03  0.00000000000E+00 0.  1.
        -13    1    3    3    0    0  0.33374138205E+02  0.11768573765E+03 -0.98633204302E+03  0.99388865827E+03  0.00000000000E+00 0. -1.
         22    1    1    2    0    0  0.28584686228E+01 -0.22998786999E+03 -0.59933155080E+03  0.64195085402E+03  0.00000000000E+00 0. -1.
<mgrwt>
<rscale>  0 0.52148711E+03</rscale>
<asrwt>0</asrwt>
<pdfrwt beam="1">  1        2 0.33466011E+00 0.52148711E+03</pdfrwt>
<pdfrwt beam="2">  1       -2 0.48083546E-02 0.52148711E+03</pdfrwt>
<totfact> 0.12200526E+03</totfact>
</mgrwt>
</event>
<event>
 6    1  0.2436515E-005  0.1677484E+04  0.7818608E-02  0.8774311E-01
         -2   -1    0    0    0  501 -0.00000000000E+00  0.00000000000E+00  0.32436801996E+03  0.32436801996E+03  0.00000000000E+00 0. -1.
          2   -1    0    0  501    0  0.00000000000E+00 -0.00000000000E+00 -0.21687963966E+04  0.21687963966E+04  0.00000000000E+00 0.  1.
         23    2    1    2    0    0  0.77531516904E+03 -0.23327501970E+03 -0.12361172243E+04  0.14804584848E+04  0.90778229017E+02 0.  0.
         13    1    3    3    0    0  0.35923471907E+03 -0.11368001848E+03 -0.65743992413E+03  0.75775984575E+03  0.00000000000E+00 0.  1.
        -13    1    3    3    0    0  0.41608044997E+03 -0.11959500122E+03 -0.57867730015E+03  0.72269863904E+03  0.00000000000E+00 0. -1.
         22    1    1    2    0    0 -0.77531516904E+03  0.23327501970E+03 -0.60831115233E+03  0.10127059318E+04  0.00000000000E+00 0.  1.
<mgrwt>
<rscale>  0 0.16774841E+04</rscale>
<asrwt>0</asrwt>
<pdfrwt beam="1">  1        2 0.33366097E+00 0.16774841E+04</pdfrwt>
<pdfrwt beam="2">  1       -2 0.49902774E-01 0.16774841E+04</pdfrwt>
<totfact> 0.19481803E+01</totfact>
</mgrwt>
</event>
<event>
 6    1  0.2436515E-005  0.1747320E+04  0.7818608E-02  0.8734827E-01
          1   -1    0    0  501    0  0.00000000000E+00  0.00000000000E+00  0.14192596858E+04  0.14192596858E+04  0.00000000000E+00 0.  1.
         -1   -1    0    0    0  501 -0.00000000000E+00 -0.00000000000E+00 -0.53780307391E+03  0.53780307391E+03  0.00000000000E+00 0. -1.
         23    2    1    2    0    0  0.66831976776E+03  0.33395035988E+03 -0.60135411812E+02  0.75507703019E+03  0.91383253001E+02 0.  0.
         11    1    3    3    0    0  0.58299501348E+03  0.27528136195E+03 -0.23195378118E+02  0.64513645033E+03  0.00000000000E+00 0. -1.
        -11    1    3    3    0    0  0.85324754277E+02  0.58668997930E+02 -0.36940033694E+02  0.10994057986E+03  0.00000000000E+00 0.  1.
         22    1    1    2    0    0 -0.66831976776E+03 -0.33395035988E+03  0.94159202369E+03  0.12019857295E+04  0.00000000000E+00 0.  1.
<mgrwt>
<rscale>  0 0.17473205E+04</rscale>
<asrwt>0</asrwt>
<pdfrwt beam="1">  1        1 0.21834764E+00 0.17473205E+04</pdfrwt>
<pdfrwt beam="2">  1       -1 0.82738935E-01 0.17473205E+04</pdfrwt>
<totfact> 0.10244354E+01</totfact>
</mgrwt>
</event>
<event>
 6    1  0.2436515E-005  0.1152397E+04  0.7818608E-02  0.9155575E-01
          2   -1    0    0  501    0  0.00000000000E+00  0.00000000000E+00  0.32855055305E+03  0.32855055305E+03  0.00000000000E+00 0.  1.
         -2   -1    0    0    0  501 -0.00000000000E+00 -0.00000000000E+00 -0.10105127625E+04  0.10105127625E+04  0.00000000000E+00 0. -1.
         23    2    1    2    0    0 -0.72356284002E+02 -0.33361198144E+03  0.19071435415E+03  0.40199513733E+03  0.93250949382E+02 0.  0.
         11    1    3    3    0    0 -0.40838403336E+02 -0.84502529762E+02  0.13864813216E+02  0.94871944055E+02  0.00000000000E+00 0. -1.
        -11    1    3    3    0    0 -0.31517880667E+02 -0.24910945168E+03  0.17684954093E+03  0.30712319327E+03  0.00000000000E+00 0.  1.
         22    1    1    2    0    0  0.72356284002E+02  0.33361198144E+03 -0.87267656365E+03  0.93706817827E+03  0.00000000000E+00 0. -1.
<mgrwt>
<rscale>  0 0.11523967E+04</rscale>
<asrwt>0</asrwt>
<pdfrwt beam="1">  1        2 0.50546239E-01 0.11523967E+04</pdfrwt>
<pdfrwt beam="2">  1       -2 0.15546350E+00 0.11523967E+04</pdfrwt>
<totfact> 0.26703531E+01</totfact>
</mgrwt>
</event>
<event>
 6    1  0.2436515E-005  0.2968846E+04  0.7818608E-02  0.8252683E-01
          2   -1    0    0  501    0  0.00000000000E+00  0.00000000000E+00  0.19558903536E+04  0.19558903536E+04  0.00000000000E+00 0.  1.
         -2   -1    0    0    0  501 -0.00000000000E+00 -0.00000000000E+00 -0.11266030030E+04  0.11266030030E+04  0.00000000000E+00 0. -1.
         23    2    1    2    0    0  0.19691324499E+03 -0.10676745275E+04  0.14638959678E+04  0.18249434292E+04  0.93399104184E+02 0.  0.
         11    1    3    3    0    0  0.17697970665E+03 -0.76519053395E+03  0.10932870766E+04  0.13461482094E+04  0.00000000000E+00 0.  1.
        -11    1    3    3    0    0  0.19933538341E+02 -0.30248399355E+03  0.37060889119E+03  0.47879521983E+03  0.00000000000E+00 0. -1.
         22    1    1    2    0    0 -0.19691324499E+03  0.10676745275E+04 -0.63460861715E+03  0.12575499273E+04  0.00000000000E+00 0. -1.
<mgrwt>
<rscale>  0 0.29688462E+04</rscale>
<asrwt>0</asrwt>
<pdfrwt beam="1">  1        2 0.30090621E+00 0.29688462E+04</pdfrwt>
<pdfrwt beam="2">  1       -2 0.17332354E+00 0.29688462E+04</pdfrwt>
<totfact> 0.12250346E+00</totfact>
</mgrwt>
</event>
<event>
 6    1  0.2436515E-005  0.3256236E+04  0.7818608E-02  0.8174121E-01
         -2   -1    0    0    0  501 -0.00000000000E+00  0.00000000000E+00  0.67071260052E+03  0.67071260052E+03  0.00000000000E+00 0. -1.
          2   -1    0    0  501    0  0.00000000000E+00 -0.00000000000E+00 -0.39521675951E+04  0.39521675951E+04  0.00000000000E+00 0.  1.
         23    2    1    2    0    0 -0.15875269931E+04 -0.34483574151E+03 -0.15194430506E+04  0.22262492826E+04  0.91241666792E+02 0.  0.
         11    1    3    3    0    0 -0.75156917012E+03 -0.20144474128E+03 -0.69122616871E+03  0.10407832712E+04  0.00000000000E+00 0.  1.
        -11    1    3    3    0    0 -0.83595782299E+03 -0.14339100024E+03 -0.82821688191E+03  0.11854660114E+04  0.00000000000E+00 0. -1.
         22    1    1    2    0    0  0.15875269931E+04  0.34483574151E+03 -0.17620119440E+04  0.23966309130E+04  0.00000000000E+00 0. -1.
<mgrwt>
<rscale>  0 0.32562362E+04</rscale>
<asrwt>0</asrwt>
<pdfrwt beam="1">  1        2 0.60802577E+00 0.32562362E+04</pdfrwt>
<pdfrwt beam="2">  1       -2 0.10318656E+00 0.32562362E+04</pdfrwt>
<totfact> 0.23969116E-01</totfact>
</mgrwt>
</event>
<event>
 6    1  0.2436515E-005  0.2947563E+04  0.7818608E-02  0.8258865E-01
          2   -1    0    0  501    0  0.00000000000E+00  0.00000000000E+00  0.21990196496E+04  0.21990196496E+04  0.00000000000E+00 0.  1.
         -2   -1    0    0    0  501 -0.00000000000E+00 -0.00000000000E+00 -0.98772746530E+03  0.98772746530E+03  0.00000000000E+00 0. -1.
         23    2    1    2    0    0  0.80390785397E+03 -0.12328079719E+04  0.65620199015E+03  0.16137854317E+04  0.87287080079E+02 0.  0.
         13    1    3    3    0    0  0.26622359620E+03 -0.48241415848E+03  0.25835416238E+03  0.60856001897E+03  0.00000000000E+00 0.  1.
        -13    1    3    3    0    0  0.53768425778E+03 -0.75039381344E+03  0.39784782777E+03  0.10052254127E+04  0.00000000000E+00 0. -1.
         22    1    1    2    0    0 -0.80390785397E+03  0.12328079719E+04  0.55509019419E+03  0.15729616833E+04  0.00000000000E+00 0.  1.
<mgrwt>
<rscale>  0 0.29475631E+04</rscale>
<asrwt>0</asrwt>
<pdfrwt beam="1">  1        2 0.33831071E+00 0.29475631E+04</pdfrwt>
<pdfrwt beam="2">  1       -2 0.15195807E+00 0.29475631E+04</pdfrwt>
<totfact> 0.12866262E+00</totfact>
</mgrwt>
</event>
<event>
 6    1  0.2436515E-005  0.2328502E+04  0.7818608E-02  0.8466767E-01
          1   -1    0    0  501    0  0.00000000000E+00  0.00000000000E+00  0.17592895780E+04  0.17592895780E+04  0.00000000000E+00 0.  1.
         -1   -1    0    0    0  501 -0.00000000000E+00 -0.00000000000E+00 -0.77047027869E+03  0.77047027869E+03  0.00000000000E+00 0. -1.
         23    2    1    2    0    0  0.45764766870E+03  0.53226171116E+03  0.15018135956E+04  0.16603306957E+04  0.92249798692E+02 0.  0.
         11    1    3    3    0    0  0.17046591770E+03  0.13657340330E+03  0.49701566623E+03  0.54289547434E+03  0.00000000000E+00 0. -1.
        -11    1    3    3    0    0  0.28718175100E+03  0.39568830785E+03  0.10047979294E+04  0.11174352214E+04  0.00000000000E+00 0.  1.
         22    1    1    2    0    0 -0.45764766870E+03 -0.53226171116E+03 -0.51299429633E+03  0.86942916094E+03  0.00000000000E+00 0. -1.
<mgrwt>
<rscale>  0 0.23285019E+04</rscale>
<asrwt>0</asrwt>
<pdfrwt beam="1">  1        1 0.27065993E+00 0.23285019E+04</pdfrwt>
<pdfrwt beam="2">  1       -1 0.11853389E+00 0.23285019E+04</pdfrwt>
<totfact> 0.24977855E+00</totfact>
</mgrwt>
</event>
<event>
 6    1  0.2436515E-005  0.1850723E+04  0.7818608E-02  0.8679781E-01
         -2   -1    0    0    0  501 -0.00000000000E+00  0.00000000000E+00  0.45734977079E+03  0.45734977079E+03  0.00000000000E+00 0. -1.
          2   -1    0    0  501    0  0.00000000000E+00 -0.00000000000E+00 -0.18722954003E+04  0.18722954003E+04  0.00000000000E+00 0.  1.
         23    2    1    2    0    0 -0.42377716825E+03  0.74517953705E+03 -0.27476940336E+03  0.90315245908E+03  0.72845786122E+02 0.  0.
         11    1    3    3    0    0 -0.29145988786E+03  0.48507713409E+03 -0.21434670625E+03  0.60513899455E+03  0.00000000000E+00 0. -1.
        -11    1    3    3    0    0 -0.13231728039E+03  0.26010240296E+03 -0.60422697116E+02  0.29801346453E+03  0.00000000000E+00 0.  1.
         22    1    1    2    0    0  0.42377716825E+03 -0.74517953705E+03 -0.11401762262E+04  0.14264927121E+04  0.00000000000E+00 0.  1.
<mgrwt>
<rscale>  0 0.18507230E+04</rscale>
<asrwt>0</asrwt>
<pdfrwt beam="1">  1        2 0.28804544E+00 0.18507230E+04</pdfrwt>
<pdfrwt beam="2">  1       -2 0.70361504E-01 0.18507230E+04</pdfrwt>
<totfact> 0.13595212E+01</totfact>
</mgrwt>
</event>
<event>
 6    1  0.2436515E-005  0.2420209E+04  0.7818608E-02  0.8431976E-01
         -2   -1    0    0    0  501 -0.00000000000E+00  0.00000000000E+00  0.68295220666E+03  0.68295220666E+03  0.00000000000E+00 0. -1.
          2   -1    0    0  501    0  0.00000000000E+00 -0.00000000000E+00 -0.21441505714E+04  0.21441505714E+04  0.00000000000E+00 0.  1.
         23    2    1    2    0    0  0.24481705571E+03  0.94030810240E+03 -0.15708712301E+04  0.18492772028E+04  0.89861187919E+02 0.  0.
         11    1    3    3    0    0  0.13055859428E+03  0.37349878087E+03 -0.69590609089E+03  0.80051993928E+03  0.00000000000E+00 0. -1.
        -11    1    3    3    0    0  0.11425846143E+03  0.56680932152E+03 -0.87496513922E+03  0.10487572635E+04  0.00000000000E+00 0.  1.
         22    1    1    2    0    0 -0.24481705571E+03 -0.94030810240E+03  0.10967286537E+03  0.97782557524E+03  0.00000000000E+00 0. -1.
<mgrwt>
<rscale>  0 0.24202086E+04</rscale>
<asrwt>0</asrwt>
<pdfrwt beam="1">  1        2 0.32986932E+00 0.24202086E+04</pdfrwt>
<pdfrwt beam="2">  1       -2 0.10506957E+00 0.24202086E+04</pdfrwt>
<totfact> 0.36567976E+00</totfact>
</mgrwt>
</event>
<event>
 6    1  0.2436515E-005  0.1742460E+04  0.7818608E-02  0.8737511E-01
         -2   -1    0    0    0  501 -0.00000000000E+00  0.00000000000E+00  0.56514544292E+03  0.56514544292E+03  0.00000000000E+00 0.  1.
          2   -1    0    0  501    0  0.00000000000E+00 -0.00000000000E+00 -0.13430913386E+04  0.13430913386E+04  0.00000000000E+00 0. -1.
         23    2    1    2    0    0 -0.81185478403E+03 -0.18598902764E+03 -0.66110944578E+03  0.10671952458E+04  0.90221309384E+02 0.  0.
         13    1    3    3    0    0 -0.30358005218E+03 -0.29141444473E+02 -0.21785495525E+03  0.37479441484E+03  0.00000000000E+00 0.  1.
        -13    1    3    3    0    0 -0.50827473186E+03 -0.15684758316E+03 -0.44325449052E+03  0.69240083099E+03  0.00000000000E+00 0. -1.
         22    1    1    2    0    0  0.81185478403E+03  0.18598902764E+03 -0.11683644993E+03  0.84104153571E+03  0.00000000000E+00 0.  1.
<mgrwt>
<rscale>  0 0.17424603E+04</rscale>
<asrwt>0</asrwt>
<pdfrwt beam="1">  1        2 0.20662943E+00 0.17424603E+04</pdfrwt>
<pdfrwt beam="2">  1       -2 0.86945454E-01 0.17424603E+04</pdfrwt>
<totfact> 0.16934682E+01</totfact>
</mgrwt>
</event>
<event>
 6    1  0.2436515E-005  0.1222575E+04  0.7818608E-02  0.9093323E-01
         -2   -1    0    0    0  501 -0.00000000000E+00  0.00000000000E+00  0.51878734773E+03  0.51878734773E+03  0.00000000000E+00 0. -1.
          2   -1    0    0  501    0  0.00000000000E+00 -0.00000000000E+00 -0.72028023758E+03  0.72028023758E+03  0.00000000000E+00 0.  1.
         23    2    1    2    0    0  0.33407198197E+03 -0.50535802655E+03 -0.15612800683E+03  0.63157371970E+03  0.86709773213E+02 0.  0.
         11    1    3    3    0    0  0.16989714639E+03 -0.30425174907E+03 -0.12449148979E+03  0.37004364363E+03  0.00000000000E+00 0.  1.
        -11    1    3    3    0    0  0.16417483558E+03 -0.20110627748E+03 -0.31636517039E+02  0.26153007607E+03  0.00000000000E+00 0. -1.
         22    1    1    2    0    0 -0.33407198197E+03  0.50535802655E+03 -0.45364883015E+02  0.60749386560E+03  0.00000000000E+00 0. -1.
<mgrwt>
<rscale>  0 0.12225748E+04</rscale>
<asrwt>0</asrwt>
<pdfrwt beam="1">  1        2 0.11081234E+00 0.12225748E+04</pdfrwt>
<pdfrwt beam="2">  1       -2 0.79813439E-01 0.12225748E+04</pdfrwt>
<totfact> 0.54118936E+01</totfact>
</mgrwt>
</event>
<event>
 6    1  0.2436515E-005  0.2305464E+04  0.7818608E-02  0.8475770E-01
          2   -1    0    0  501    0  0.00000000000E+00  0.00000000000E+00  0.25549323182E+04  0.25549323182E+04  0.00000000000E+00 0.  1.
         -2   -1    0    0    0  501 -0.00000000000E+00 -0.00000000000E+00 -0.52008874293E+03  0.52008874293E+03  0.00000000000E+00 0. -1.
         23    2    1    2    0    0 -0.89844599194E+02  0.48333542920E+03 -0.36955967321E+03  0.62087351658E+03  0.84996366979E+02 0.  0.
         11    1    3    3    0    0 -0.87215501236E+02  0.25457345357E+03 -0.21957881617E+03  0.34731692074E+03  0.00000000000E+00 0.  1.
        -11    1    3    3    0    0 -0.26290979577E+01  0.22876197563E+03 -0.14998085704E+03  0.27355659584E+03  0.00000000000E+00 0. -1.
         22    1    1    2    0    0  0.89844599194E+02 -0.48333542920E+03  0.24044032485E+04  0.24541475446E+04  0.00000000000E+00 0.  1.
<mgrwt>
<rscale>  0 0.23054644E+04</rscale>
<asrwt>0</asrwt>
<pdfrwt beam="1">  1        2 0.39306650E+00 0.23054644E+04</pdfrwt>
<pdfrwt beam="2">  1       -2 0.80013654E-01 0.23054644E+04</pdfrwt>
<totfact> 0.40495928E+00</totfact>
</mgrwt>
</event>
<event>
 6    1  0.2436515E-005  0.1456189E+04  0.7818608E-02  0.8914121E-01
         -2   -1    0    0    0  501 -0.00000000000E+00  0.00000000000E+00  0.66314909232E+03  0.66314909232E+03  0.00000000000E+00 0. -1.
          2   -1    0    0  501    0  0.00000000000E+00 -0.00000000000E+00 -0.79939989597E+03  0.79939989597E+03  0.00000000000E+00 0.  1.
         23    2    1    2    0    0 -0.15752086721E+03  0.69759074805E+03 -0.18979026531E+03  0.74539339198E+03  0.90251252811E+02 0.  0.
         13    1    3    3    0    0 -0.11483428963E+03  0.30485080830E+03 -0.87877515859E+02  0.33740685706E+03  0.00000000000E+00 0.  1.
        -13    1    3    3    0    0 -0.42686577586E+02  0.39273993975E+03 -0.10191274945E+03  0.40798653492E+03  0.00000000000E+00 0. -1.
         22    1    1    2    0    0  0.15752086721E+03 -0.69759074805E+03  0.53539461658E+02  0.71715559632E+03  0.00000000000E+00 0. -1.
<mgrwt>
<rscale>  0 0.14561886E+04</rscale>
<asrwt>0</asrwt>
<pdfrwt beam="1">  1        2 0.12298460E+00 0.14561886E+04</pdfrwt>
<pdfrwt beam="2">  1       -2 0.10202294E+00 0.14561886E+04</pdfrwt>
<totfact> 0.26326741E+01</totfact>
</mgrwt>
</event>
<event>
 6    1  0.2436515E-005  0.1266096E+04  0.7818608E-02  0.9056892E-01
         -2   -1    0    0    0  501 -0.00000000000E+00  0.00000000000E+00  0.11552920702E+03  0.11552920702E+03  0.00000000000E+00 0. -1.
          2   -1    0    0  501    0  0.00000000000E+00 -0.00000000000E+00 -0.34688160577E+04  0.34688160577E+04  0.00000000000E+00 0.  1.
         23    2    1    2    0    0 -0.31890832264E+03 -0.12560410479E+03 -0.31810387281E+04  0.32007460923E+04  0.91045306427E+02 0.  0.
         11    1    3    3    0    0 -0.23606174329E+03 -0.81297598938E+02 -0.26228426847E+04  0.26346988813E+04  0.00000000000E+00 0.  1.
        -11    1    3    3    0    0 -0.82846579342E+02 -0.44306505855E+02 -0.55819604346E+03  0.56604721102E+03  0.00000000000E+00 0. -1.
         22    1    1    2    0    0  0.31890832264E+03  0.12560410479E+03 -0.17224812254E+03  0.38359917245E+03  0.00000000000E+00 0. -1.
<mgrwt>
<rscale>  0 0.12660957E+04</rscale>
<asrwt>0</asrwt>
<pdfrwt beam="1">  1        2 0.53366400E+00 0.12660957E+04</pdfrwt>
<pdfrwt beam="2">  1       -2 0.17773725E-01 0.12660957E+04</pdfrwt>
<totfact> 0.22535686E+01</totfact>
</mgrwt>
</event>
<event>
 6    1  0.2436515E-005  0.2288657E+04  0.7818608E-02  0.8482407E-01
         -2   -1    0    0    0  501 -0.00000000000E+00  0.00000000000E+00  0.80466286420E+03  0.80466286420E+03  0.00000000000E+00 0. -1.
          2   -1    0    0  501    0  0.00000000000E+00 -0.00000000000E+00 -0.16273747000E+04  0.16273747000E+04  0.00000000000E+00 0.  1.
         23    2    1    2    0    0  0.10504135434E+04 -0.33380350278E+03 -0.92310108394E+02  0.11098121394E+04  0.91479166637E+02 0.  0.
         11    1    3    3    0    0  0.21376742706E+03 -0.34010407129E+02 -0.16381340474E+01  0.21646224648E+03  0.00000000000E+00 0. -1.
        -11    1    3    3    0    0  0.83664611637E+03 -0.29979309565E+03 -0.90671974347E+02  0.89334989291E+03  0.00000000000E+00 0.  1.
         22    1    1    2    0    0 -0.10504135434E+04  0.33380350278E+03 -0.73040172745E+03  0.13222254249E+04  0.00000000000E+00 0.  1.
<mgrwt>
<rscale>  0 0.22886572E+04</rscale>
<asrwt>0</asrwt>
<pdfrwt beam="1">  1        2 0.25036534E+00 0.22886572E+04</pdfrwt>
<pdfrwt beam="2">  1       -2 0.12379429E+00 0.22886572E+04</pdfrwt>
<totfact> 0.48001678E+00</totfact>
</mgrwt>
</event>
<event>
 6    1  0.2436515E-005  0.4046537E+04  0.7818608E-02  0.7995224E-01
         -2   -1    0    0    0  501 -0.00000000000E+00  0.00000000000E+00  0.14491910707E+04  0.14491910707E+04  0.00000000000E+00 0. -1.
          2   -1    0    0  501    0  0.00000000000E+00 -0.00000000000E+00 -0.28247584595E+04  0.28247584595E+04  0.00000000000E+00 0.  1.
         23    2    1    2    0    0 -0.57021975549E+03  0.61119209268E+03 -0.26330127315E+04  0.27640239911E+04  0.91467127817E+02 0.  0.
         11    1    3    3    0    0 -0.10027168295E+03  0.14584718113E+03 -0.64792021097E+03  0.67165944527E+03  0.00000000000E+00 0.  1.
        -11    1    3    3    0    0 -0.46994807253E+03  0.46534491155E+03 -0.19850925205E+04  0.20923645458E+04  0.00000000000E+00 0. -1.
         22    1    1    2    0    0  0.57021975549E+03 -0.61119209268E+03  0.12574453427E+04  0.15099255391E+04  0.00000000000E+00 0. -1.
<mgrwt>
<rscale>  0 0.40465367E+04</rscale>
<asrwt>0</asrwt>
<pdfrwt beam="1">  1        2 0.43457822E+00 0.40465367E+04</pdfrwt>
<pdfrwt beam="2">  1       -2 0.22295248E+00 0.40465367E+04</pdfrwt>
<totfact> 0.16616019E-01</totfact>
</mgrwt>
</event>
<event>
 6    1  0.2436515E-005  0.1654012E+04  0.7818608E-02  0.8788036E-01
          2   -1    0    0  501    0  0.00000000000E+00  0.00000000000E+00  0.17251317213E+04  0.17251317213E+04  0.00000000000E+00 0.  1.
         -2   -1    0    0    0  501 -0.00000000000E+00 -0.00000000000E+00 -0.39645613700E+03  0.39645613700E+03  0.00000000000E+00 0. -1.
         23    2    1    2    0    0 -0.25021921629E+03 -0.78204779353E+03  0.76288048703E+03  0.11244256349E+04  0.90210661593E+02 0.  0.
         11    1    3    3    0    0 -0.59887782466E+02 -0.32776641222E+03  0.29282451333E+03  0.44358039077E+03  0.00000000000E+00 0.  1.
        -11    1    3    3    0    0 -0.19033143382E+03 -0.45428138131E+03  0.47005597370E+03  0.68084524417E+03  0.00000000000E+00 0. -1.
         22    1    1    2    0    0  0.25021921629E+03  0.78204779353E+03  0.56579509726E+03  0.99716222334E+03  0.00000000000E+00 0.  1.
<mgrwt>
<rscale>  0 0.16540122E+04</rscale>
<asrwt>0</asrwt>
<pdfrwt beam="1">  1        2 0.26540488E+00 0.16540122E+04</pdfrwt>
<pdfrwt beam="2">  1       -2 0.60993253E-01 0.16540122E+04</pdfrwt>
<totfact> 0.22680564E+01</totfact>
</mgrwt>
</event>
<event>
 6    1  0.2436515E-005  0.7671582E+03  0.7818608E-02  0.9608810E-01
         -2   -1    0    0    0  501 -0.00000000000E+00  0.00000000000E+00  0.86363027502E+02  0.86363027502E+02  0.00000000000E+00 0. -1.
          2   -1    0    0  501    0  0.00000000000E+00 -0.00000000000E+00 -0.17036562594E+04  0.17036562594E+04  0.00000000000E+00 0.  1.
         23    2    1    2    0    0  0.23716388296E+03 -0.22249755354E+03 -0.36987513427E+03  0.50090960227E+03  0.91383510495E+02 0.  0.
         11    1    3    3    0    0  0.28418428498E+01 -0.28744657002E+02 -0.11910395811E+02  0.31244021914E+02  0.00000000000E+00 0. -1.
        -11    1    3    3    0    0  0.23432204011E+03 -0.19375289654E+03 -0.35796473846E+03  0.46966558036E+03  0.00000000000E+00 0.  1.
         22    1    1    2    0    0 -0.23716388296E+03  0.22249755354E+03 -0.12474180976E+04  0.12891096846E+04  0.00000000000E+00 0. -1.
<mgrwt>
<rscale>  0 0.76715816E+03</rscale>
<asrwt>0</asrwt>
<pdfrwt beam="1">  1        2 0.26210095E+00 0.76715816E+03</pdfrwt>
<pdfrwt beam="2">  1       -2 0.13286620E-01 0.76715816E+03</pdfrwt>
<totfact> 0.42587598E+02</totfact>
</mgrwt>
</event>
<event>
 6    1  0.2436515E-005  0.3959173E+04  0.7818608E-02  0.8012834E-01
          2   -1    0    0  501    0  0.00000000000E+00  0.00000000000E+00  0.15635807056E+04  0.15635807056E+04  0.00000000000E+00 0.  1.
         -2   -1    0    0    0  501 -0.00000000000E+00 -0.00000000000E+00 -0.25062740418E+04  0.25062740418E+04  0.00000000000E+00 0. -1.
         23    2    1    2    0    0  0.10826488611E+04  0.15501365736E+04 -0.10706570628E+04  0.21747487692E+04  0.90408570716E+02 0.  0.
         11    1    3    3    0    0  0.91846488902E+03  0.12776328098E+04 -0.86004497647E+03  0.17932096114E+04  0.00000000000E+00 0. -1.
        -11    1    3    3    0    0  0.16418397212E+03  0.27250376383E+03 -0.21061208635E+03  0.38153915778E+03  0.00000000000E+00 0.  1.
         22    1    1    2    0    0 -0.10826488611E+04 -0.15501365736E+04  0.12796372664E+03  0.18951059782E+04  0.00000000000E+00 0.  1.
<mgrwt>
<rscale>  0 0.39591725E+04</rscale>
<asrwt>0</asrwt>
<pdfrwt beam="1">  1        2 0.24055088E+00 0.39591725E+04</pdfrwt>
<pdfrwt beam="2">  1       -2 0.38558062E+00 0.39591725E+04</pdfrwt>
<totfact> 0.85200151E-02</totfact>
</mgrwt>
</event>
<event>
 6    1  0.2436515E-005  0.1793756E+04  0.7818608E-02  0.8709627E-01
          2   -1    0    0  501    0  0.00000000000E+00  0.00000000000E+00  0.74929385849E+03  0.74929385849E+03  0.00000000000E+00 0.  1.
         -2   -1    0    0    0  501 -0.00000000000E+00 -0.00000000000E+00 -0.10735314790E+04  0.10735314790E+04  0.00000000000E+00 0. -1.
         23    2    1    2    0    0  0.42335821625E+03  0.24033160824E+02 -0.96298960337E+03  0.10561351343E+04  0.90899249661E+02 0.  0.
         13    1    3    3    0    0  0.27869792703E+03 -0.15461022427E+02 -0.55022689393E+03  0.61697748139E+03  0.00000000000E+00 0.  1.
        -13    1    3    3    0    0  0.14466028922E+03  0.39494183251E+02 -0.41276270944E+03  0.43915765289E+03  0.00000000000E+00 0. -1.
         22    1    1    2    0    0 -0.42335821625E+03 -0.24033160824E+02  0.63875198286E+03  0.76669020321E+03  0.00000000000E+00 0.  1.
<mgrwt>
<rscale>  0 0.17937564E+04</rscale>
<asrwt>0</asrwt>
<pdfrwt beam="1">  1        2 0.11527598E+00 0.17937564E+04</pdfrwt>
<pdfrwt beam="2">  1       -2 0.16515869E+00 0.17937564E+04</pdfrwt>
<totfact> 0.81840012E+00</totfact>
</mgrwt>
</event>
<event>
 6    1  0.2436515E-005  0.3664270E+04  0.7818608E-02  0.8075927E-01
          2   -1    0    0  501    0  0.00000000000E+00  0.00000000000E+00  0.26303764335E+04  0.26303764335E+04  0.00000000000E+00 0. -1.
         -2   -1    0    0    0  501 -0.00000000000E+00 -0.00000000000E+00 -0.12761360980E+04  0.12761360980E+04  0.00000000000E+00 0.  1.
         23    2    1    2    0    0 -0.42738233282E+03 -0.17796604081E+04  0.73335184621E+03  0.19738073438E+04  0.90904749394E+02 0.  0.
         11    1    3    3    0    0 -0.16678928155E+03 -0.52461824052E+03  0.20664909832E+03  0.58800239163E+03  0.00000000000E+00 0. -1.
        -11    1    3    3    0    0 -0.26059305127E+03 -0.12550421676E+04  0.52670274789E+03  0.13858049521E+04  0.00000000000E+00 0.  1.
         22    1    1    2    0    0  0.42738233282E+03  0.17796604081E+04  0.62088848930E+03  0.19327051877E+04  0.00000000000E+00 0.  1.
<mgrwt>
<rscale>  0 0.36642698E+04</rscale>
<asrwt>0</asrwt>
<pdfrwt beam="1">  1        2 0.40467330E+00 0.36642698E+04</pdfrwt>
<pdfrwt beam="2">  1       -2 0.19632863E+00 0.36642698E+04</pdfrwt>
<totfact> 0.33292495E-01</totfact>
</mgrwt>
</event>
<event>
 6    1  0.2436515E-005  0.2562898E+04  0.7818608E-02  0.8380914E-01
         -2   -1    0    0    0  501 -0.00000000000E+00  0.00000000000E+00  0.16008162232E+04  0.16008162232E+04  0.00000000000E+00 0. -1.
          2   -1    0    0  501    0  0.00000000000E+00 -0.00000000000E+00 -0.10257964405E+04  0.10257964405E+04  0.00000000000E+00 0.  1.
         23    2    1    2    0    0 -0.62262898064E+03 -0.94939397687E+03  0.89242175994E+03  0.14477319293E+04  0.10244691663E+03 0.  0.
         13    1    3    3    0    0 -0.28897795751E+03 -0.46960271389E+03  0.49515618720E+03  0.74109015548E+03  0.00000000000E+00 0.  1.
        -13    1    3    3    0    0 -0.33365102312E+03 -0.47979126297E+03  0.39726557273E+03  0.70664177384E+03  0.00000000000E+00 0. -1.
         22    1    1    2    0    0  0.62262898064E+03  0.94939397687E+03 -0.31740197723E+03  0.11788807344E+04  0.00000000000E+00 0.  1.
<mgrwt>
<rscale>  0 0.25628980E+04</rscale>
<asrwt>0</asrwt>
<pdfrwt beam="1">  1        2 0.15781484E+00 0.25628980E+04</pdfrwt>
<pdfrwt beam="2">  1       -2 0.24627942E+00 0.25628980E+04</pdfrwt>
<totfact> 0.14574157E+00</totfact>
</mgrwt>
</event>
<event>
 6    1  0.2436515E-005  0.3361047E+04  0.7818608E-02  0.8147533E-01
          2   -1    0    0  501    0  0.00000000000E+00  0.00000000000E+00  0.21335347864E+04  0.21335347864E+04  0.00000000000E+00 0.  1.
         -2   -1    0    0    0  501 -0.00000000000E+00 -0.00000000000E+00 -0.13236999899E+04  0.13236999899E+04  0.00000000000E+00 0. -1.
         23    2    1    2    0    0  0.79175327177E+03  0.59509411288E+03  0.18001088177E+04  0.20566445852E+04  0.91569361391E+02 0.  0.
         11    1    3    3    0    0  0.19176763282E+03  0.10107173946E+03  0.36120422842E+03  0.42125860958E+03  0.00000000000E+00 0.  1.
        -11    1    3    3    0    0  0.59998563896E+03  0.49402237342E+03  0.14389045893E+04  0.16353859757E+04  0.00000000000E+00 0. -1.
         22    1    1    2    0    0 -0.79175327177E+03 -0.59509411288E+03 -0.99027402118E+03  0.14005901912E+04  0.00000000000E+00 0. -1.
<mgrwt>
<rscale>  0 0.33610474E+04</rscale>
<asrwt>0</asrwt>
<pdfrwt beam="1">  1        2 0.32823612E+00 0.33610474E+04</pdfrwt>
<pdfrwt beam="2">  1       -2 0.20364615E+00 0.33610474E+04</pdfrwt>
<totfact> 0.58876396E-01</totfact>
</mgrwt>
</event>
<event>
 6    1  0.2436515E-005  0.1432803E+04  0.7818608E-02  0.8930410E-01
         -1   -1    0    0    0  501 -0.00000000000E+00  0.00000000000E+00  0.13890873987E+04  0.13890873987E+04  0.00000000000E+00 0. -1.
          1   -1    0    0  501    0  0.00000000000E+00 -0.00000000000E+00 -0.36947365100E+03  0.36947365100E+03  0.00000000000E+00 0.  1.
         23    2    1    2    0    0  0.51844093903E+03  0.48000242799E+03  0.38876682105E+03  0.81138040009E+03  0.89527506204E+02 0.  0.
         11    1    3    3    0    0  0.45526922499E+03  0.44621471455E+03  0.32534331071E+03  0.71569959378E+03  0.00000000000E+00 0.  1.
        -11    1    3    3    0    0  0.63171714035E+02  0.33787713440E+02  0.63423510336E+02  0.95680806314E+02  0.00000000000E+00 0. -1.
         22    1    1    2    0    0 -0.51844093903E+03 -0.48000242799E+03  0.63084692670E+03  0.94718064965E+03  0.00000000000E+00 0. -1.
<mgrwt>
<rscale>  0 0.14328031E+04</rscale>
<asrwt>0</asrwt>
<pdfrwt beam="1">  1        1 0.56842101E-01 0.14328031E+04</pdfrwt>
<pdfrwt beam="2">  1       -1 0.21370575E+00 0.14328031E+04</pdfrwt>
<totfact> 0.78678745E+00</totfact>
</mgrwt>
</event>
<event>
 6    1  0.2436515E-005  0.2496152E+04  0.7818608E-02  0.8404358E-01
          2   -1    0    0  501    0  0.00000000000E+00  0.00000000000E+00  0.10705780795E+04  0.10705780795E+04  0.00000000000E+00 0.  1.
         -2   -1    0    0    0  501 -0.00000000000E+00 -0.00000000000E+00 -0.14550029506E+04  0.14550029506E+04  0.00000000000E+00 0. -1.
         23    2    1    2    0    0  0.96148054540E+03  0.15461462032E+03  0.59464673000E+03  0.11446640449E+04  0.91107201184E+02 0.  0.
         11    1    3    3    0    0  0.60122156151E+03  0.10254427668E+03  0.32060161668E+03  0.68903417283E+03  0.00000000000E+00 0.  1.
        -11    1    3    3    0    0  0.36025898389E+03  0.52070343637E+02  0.27404511332E+03  0.45562987204E+03  0.00000000000E+00 0. -1.
         22    1    1    2    0    0 -0.96148054540E+03 -0.15461462032E+03 -0.97907160105E+03  0.13809169852E+04  0.00000000000E+00 0. -1.
<mgrwt>
<rscale>  0 0.24961525E+04</rscale>
<asrwt>0</asrwt>
<pdfrwt beam="1">  1        2 0.16470432E+00 0.24961525E+04</pdfrwt>
<pdfrwt beam="2">  1       -2 0.22384661E+00 0.24961525E+04</pdfrwt>
<totfact> 0.18942926E+00</totfact>
</mgrwt>
</event>
<event>
 6    1  0.2436515E-005  0.4578427E+03  0.7818608E-02  0.1025409E+00
         -2   -1    0    0    0  501 -0.00000000000E+00  0.00000000000E+00  0.29118273481E+02  0.29118273481E+02  0.00000000000E+00 0. -1.
          2   -1    0    0  501    0  0.00000000000E+00 -0.00000000000E+00 -0.17997286115E+04  0.17997286115E+04  0.00000000000E+00 0.  1.
         23    2    1    2    0    0  0.46980018826E+02 -0.14086861335E+03 -0.15693184674E+04  0.15787079125E+04  0.86643709410E+02 0.  0.
         11    1    3    3    0    0  0.58825190197E+02 -0.42045728643E+02 -0.68543480840E+03  0.68923807415E+03  0.00000000000E+00 0. -1.
        -11    1    3    3    0    0 -0.11845171372E+02 -0.98822884704E+02 -0.88388365898E+03  0.88946983830E+03  0.00000000000E+00 0.  1.
         22    1    1    2    0    0 -0.46980018826E+02  0.14086861335E+03 -0.20129187066E+03  0.25013897255E+03  0.00000000000E+00 0. -1.
<mgrwt>
<rscale>  0 0.45784272E+03</rscale>
<asrwt>0</asrwt>
<pdfrwt beam="1">  1        2 0.27688136E+00 0.45784272E+03</pdfrwt>
<pdfrwt beam="2">  1       -2 0.44797338E-02 0.45784272E+03</pdfrwt>
<totfact> 0.21749075E+03</totfact>
</mgrwt>
</event>
<event>
 6    1  0.2436515E-005  0.1391006E+04  0.7818608E-02  0.8960355E-01
         -2   -1    0    0    0  501 -0.00000000000E+00  0.00000000000E+00  0.38684943589E+03  0.38684943589E+03  0.00000000000E+00 0. -1.
          2   -1    0    0  501    0  0.00000000000E+00 -0.00000000000E+00 -0.12504208714E+04  0.12504208714E+04  0.00000000000E+00 0.  1.
         23    2    1    2    0    0  0.32464100476E+03 -0.53486250920E+03 -0.78229226469E+03  0.10063376728E+04  0.96252992269E+02 0.  0.
         11    1    3    3    0    0  0.11703855727E+03 -0.11261318960E+03 -0.19326896538E+03  0.25245325773E+03  0.00000000000E+00 0. -1.
        -11    1    3    3    0    0  0.20760244749E+03 -0.42224931960E+03 -0.58902329931E+03  0.75388441504E+03  0.00000000000E+00 0.  1.
         22    1    1    2    0    0 -0.32464100476E+03  0.53486250920E+03 -0.81279170864E+02  0.63093263455E+03  0.00000000000E+00 0. -1.
<mgrwt>
<rscale>  0 0.13910063E+04</rscale>
<asrwt>0</asrwt>
<pdfrwt beam="1">  1        2 0.19237244E+00 0.13910063E+04</pdfrwt>
<pdfrwt beam="2">  1       -2 0.59515297E-01 0.13910063E+04</pdfrwt>
<totfact> 0.45360133E+01</totfact>
</mgrwt>
</event>
<event>
 6    1  0.2436515E-005  0.1098976E+04  0.7818608E-02  0.9206191E-01
         -4   -1    0    0    0  501 -0.00000000000E+00  0.00000000000E+00  0.18971158520E+04  0.18971158520E+04  0.00000000000E+00 0. -1.
          4   -1    0    0  501    0  0.00000000000E+00 -0.00000000000E+00 -0.15915582465E+03  0.15915582465E+03  0.00000000000E+00 0.  1.
         23    2    1    2    0    0  0.38328211395E+02  0.35317335237E+03  0.16501184137E+04  0.16903254816E+04  0.90049907562E+02 0.  0.
         11    1    3    3    0    0  0.57331779051E+02  0.16305256226E+03  0.88421616253E+03  0.90095021673E+03  0.00000000000E+00 0.  1.
        -11    1    3    3    0    0 -0.19003567656E+02  0.19012079011E+03  0.76590225114E+03  0.78937526482E+03  0.00000000000E+00 0. -1.
         22    1    1    2    0    0 -0.38328211395E+02 -0.35317335237E+03  0.87841613677E+02  0.36594619510E+03  0.00000000000E+00 0.  1.
<mgrwt>
<rscale>  0 0.10989760E+04</rscale>
<asrwt>0</asrwt>
<pdfrwt beam="1">  1        4 0.24485513E-01 0.10989760E+04</pdfrwt>
<pdfrwt beam="2">  1       -4 0.29186396E+00 0.10989760E+04</pdfrwt>
<totfact> 0.11057577E+00</totfact>
</mgrwt>
</event>
<event>
 6    1  0.2436515E-005  0.8843478E+03  0.7818608E-02  0.9445362E-01
          2   -1    0    0  501    0  0.00000000000E+00  0.00000000000E+00  0.34848380345E+04  0.34848380345E+04  0.00000000000E+00 0.  1.
         -2   -1    0    0    0  501 -0.00000000000E+00 -0.00000000000E+00 -0.56105257958E+02  0.56105257958E+02  0.00000000000E+00 0. -1.
         23    2    1    2    0    0  0.20790182765E+03 -0.38237147134E+03  0.19040240796E+04  0.19553305647E+04  0.92621862138E+02 0.  0.
         11    1    3    3    0    0  0.70852586044E+02 -0.22138474653E+03  0.10659641619E+04  0.10910136981E+04  0.00000000000E+00 0. -1.
        -11    1    3    3    0    0  0.13704924161E+03 -0.16098672480E+03  0.83805991771E+03  0.86431686659E+03  0.00000000000E+00 0.  1.
         22    1    1    2    0    0 -0.20790182765E+03  0.38237147134E+03  0.15247086969E+04  0.15856127278E+04  0.00000000000E+00 0. -1.
<mgrwt>
<rscale>  0 0.88434775E+03</rscale>
<asrwt>0</asrwt>
<pdfrwt beam="1">  1        2 0.53612876E+00 0.88434775E+03</pdfrwt>
<pdfrwt beam="2">  1       -2 0.86315809E-02 0.88434775E+03</pdfrwt>
<totfact> 0.76645549E+01</totfact>
</mgrwt>
</event>
<event>
 6    1  0.2436515E-005  0.9920599E+03  0.7818608E-02  0.9317296E-01
          2   -1    0    0  501    0  0.00000000000E+00  0.00000000000E+00  0.10257691793E+04  0.10257691793E+04  0.00000000000E+00 0.  1.
         -2   -1    0    0    0  501 -0.00000000000E+00 -0.00000000000E+00 -0.23986459881E+03  0.23986459881E+03  0.00000000000E+00 0. -1.
         23    2    1    2    0    0  0.45600979159E+03 -0.43559913687E+02  0.16770769348E+03  0.49621205552E+03  0.90874294960E+02 0.  0.
         13    1    3    3    0    0  0.13943739529E+03  0.26732547589E+02  0.64139712370E+02  0.15579255119E+03  0.00000000000E+00 0.  1.
        -13    1    3    3    0    0  0.31657239630E+03 -0.70292461277E+02  0.10356798111E+03  0.34041950432E+03  0.00000000000E+00 0. -1.
         22    1    1    2    0    0 -0.45600979159E+03  0.43559913687E+02  0.61819688704E+03  0.76942172263E+03  0.00000000000E+00 0.  1.
<mgrwt>
<rscale>  0 0.99205990E+03</rscale>
<asrwt>0</asrwt>
<pdfrwt beam="1">  1        2 0.15781064E+00 0.99205990E+03</pdfrwt>
<pdfrwt beam="2">  1       -2 0.36902247E-01 0.99205990E+03</pdfrwt>
<totfact> 0.16739169E+02</totfact>
</mgrwt>
</event>
<event>
 6    1  0.2436515E-005  0.2794708E+04  0.7818608E-02  0.8304913E-01
         -2   -1    0    0    0  501 -0.00000000000E+00  0.00000000000E+00  0.81937643017E+03  0.81937643017E+03  0.00000000000E+00 0. -1.
          2   -1    0    0  501    0  0.00000000000E+00 -0.00000000000E+00 -0.23830287788E+04  0.23830287788E+04  0.00000000000E+00 0.  1.
         23    2    1    2    0    0 -0.81392056540E+03 -0.10603844156E+04 -0.12432556405E+04  0.18278013219E+04  0.91056515432E+02 0.  0.
         13    1    3    3    0    0 -0.53959478870E+03 -0.69996917815E+03 -0.87982826371E+03  0.12470834615E+04  0.00000000000E+00 0.  1.
        -13    1    3    3    0    0 -0.27432577670E+03 -0.36041523750E+03 -0.36342737679E+03  0.58071786040E+03  0.00000000000E+00 0. -1.
         22    1    1    2    0    0  0.81392056540E+03  0.10603844156E+04 -0.32039670812E+03  0.13746038871E+04  0.00000000000E+00 0.  1.
<mgrwt>
<rscale>  0 0.27947076E+04</rscale>
<asrwt>0</asrwt>
<pdfrwt beam="1">  1        2 0.36661981E+00 0.27947076E+04</pdfrwt>
<pdfrwt beam="2">  1       -2 0.12605791E+00 0.27947076E+04</pdfrwt>
<totfact> 0.16611055E+00</totfact>
</mgrwt>
</event>
<event>
 6    1  0.2436515E-005  0.1443462E+04  0.7818608E-02  0.8922946E-01
          2   -1    0    0  501    0  0.00000000000E+00  0.00000000000E+00  0.30555274154E+04  0.30555274154E+04  0.00000000000E+00 0.  1.
         -2   -1    0    0    0  501 -0.00000000000E+00 -0.00000000000E+00 -0.17047641951E+03  0.17047641951E+03  0.00000000000E+00 0. -1.
         23    2    1    2    0    0 -0.67825017822E+03  0.23767994647E+03  0.14762460202E+04  0.16444708695E+04  0.92016668006E+02 0.  0.
         11    1    3    3    0    0 -0.28721233263E+03  0.71872186295E+02  0.68993537357E+03  0.75077783324E+03  0.00000000000E+00 0.  1.
        -11    1    3    3    0    0 -0.39103784559E+03  0.16580776018E+03  0.78631064661E+03  0.89369303622E+03  0.00000000000E+00 0. -1.
         22    1    1    2    0    0  0.67825017822E+03 -0.23767994647E+03  0.14088049757E+04  0.15815329655E+04  0.00000000000E+00 0. -1.
<mgrwt>
<rscale>  0 0.14434616E+04</rscale>
<asrwt>0</asrwt>
<pdfrwt beam="1">  1        2 0.47008110E+00 0.14434616E+04</pdfrwt>
<pdfrwt beam="2">  1       -2 0.26227144E-01 0.14434616E+04</pdfrwt>
<totfact> 0.20674280E+01</totfact>
</mgrwt>
</event>
<event>
 6    1  0.2436515E-005  0.1280678E+04  0.7818608E-02  0.9045029E-01
          2   -1    0    0  501    0  0.00000000000E+00  0.00000000000E+00  0.10086556810E+04  0.10086556810E+04  0.00000000000E+00 0.  1.
         -2   -1    0    0    0  501 -0.00000000000E+00 -0.00000000000E+00 -0.40651546128E+03  0.40651546128E+03  0.00000000000E+00 0. -1.
         23    2    1    2    0    0 -0.15187892962E+03  0.42451149098E+03  0.80003063551E+03  0.92279137842E+03  0.90651503504E+02 0.  0.
         11    1    3    3    0    0  0.41902233308E+01 -0.20061539114E+00  0.24961131524E+02  0.25311189325E+02  0.00000000000E+00 0.  1.
        -11    1    3    3    0    0 -0.15606915295E+03  0.42471210638E+03  0.77506950398E+03  0.89748018909E+03  0.00000000000E+00 0. -1.
         22    1    1    2    0    0  0.15187892962E+03 -0.42451149098E+03 -0.19789041576E+03  0.49237976389E+03  0.00000000000E+00 0. -1.
<mgrwt>
<rscale>  0 0.12806781E+04</rscale>
<asrwt>0</asrwt>
<pdfrwt beam="1">  1        2 0.15517780E+00 0.12806781E+04</pdfrwt>
<pdfrwt beam="2">  1       -2 0.62540840E-01 0.12806781E+04</pdfrwt>
<totfact> 0.57886603E+01</totfact>
</mgrwt>
</event>
<event>
 6    1  0.2436515E-005  0.4057552E+03  0.7818608E-02  0.1041805E+00
          2   -1    0    0  501    0  0.00000000000E+00  0.00000000000E+00  0.54771358517E+03  0.54771358517E+03  0.00000000000E+00 0.  1.
         -2   -1    0    0    0  501 -0.00000000000E+00 -0.00000000000E+00 -0.75147531104E+02  0.75147531104E+02  0.00000000000E+00 0. -1.
         23    2    1    2    0    0  0.12751382373E+03 -0.18188824648E+02  0.46839129956E+03  0.49398894255E+03  0.89688668549E+02 0.  0.
         11    1    3    3    0    0  0.48594658486E+02  0.36493179471E+02  0.17045601237E+03  0.18096531473E+03  0.00000000000E+00 0.  1.
        -11    1    3    3    0    0  0.78919165248E+02 -0.54682004120E+02  0.29793528719E+03  0.31302362782E+03  0.00000000000E+00 0. -1.
         22    1    1    2    0    0 -0.12751382373E+03  0.18188824648E+02  0.41747545004E+01  0.12887217372E+03  0.00000000000E+00 0. -1.
<mgrwt>
<rscale>  0 0.40575522E+03</rscale>
<asrwt>0</asrwt>
<pdfrwt beam="1">  1        2 0.84263626E-01 0.40575522E+03</pdfrwt>
<pdfrwt beam="2">  1       -2 0.11561159E-01 0.40575522E+03</pdfrwt>
<totfact> 0.29640193E+03</totfact>
</mgrwt>
</event>
<event>
 6    1  0.2436515E-005  0.2836384E+04  0.7818608E-02  0.8292061E-01
          2   -1    0    0  501    0  0.00000000000E+00  0.00000000000E+00  0.28102842054E+04  0.28102842054E+04  0.00000000000E+00 0.  1.
         -2   -1    0    0    0  501 -0.00000000000E+00 -0.00000000000E+00 -0.71568151183E+03  0.71568151183E+03  0.00000000000E+00 0. -1.
         23    2    1    2    0    0  0.10410715491E+04  0.33450129443E+03  0.21682955655E+04  0.24299950399E+04  0.87459409382E+02 0.  0.
         13    1    3    3    0    0  0.27426789241E+03  0.11544332681E+03  0.65506476948E+03  0.71948585165E+03  0.00000000000E+00 0.  1.
        -13    1    3    3    0    0  0.76680365665E+03  0.21905796762E+03  0.15132307960E+04  0.17105091882E+04  0.00000000000E+00 0. -1.
         22    1    1    2    0    0 -0.10410715491E+04 -0.33450129443E+03 -0.73692871912E+02  0.10959706773E+04  0.00000000000E+00 0. -1.
<mgrwt>
<rscale>  0 0.28363839E+04</rscale>
<asrwt>0</asrwt>
<pdfrwt beam="1">  1        2 0.43235141E+00 0.28363839E+04</pdfrwt>
<pdfrwt beam="2">  1       -2 0.11010485E+00 0.28363839E+04</pdfrwt>
<totfact> 0.12957951E+00</totfact>
</mgrwt>
</event>
<event>
 6    1  0.2436515E-005  0.1045055E+04  0.7818608E-02  0.9260465E-01
          2   -1    0    0  501    0  0.00000000000E+00  0.00000000000E+00  0.28207159366E+04  0.28207159366E+04  0.00000000000E+00 0.  1.
         -2   -1    0    0    0  501 -0.00000000000E+00 -0.00000000000E+00 -0.96796290340E+02  0.96796290340E+02  0.00000000000E+00 0. -1.
         23    2    1    2    0    0  0.31440197581E+03 -0.51353847435E+02  0.25154331510E+04  0.25367860277E+04  0.79959950109E+02 0.  0.
         11    1    3    3    0    0  0.14613205646E+03 -0.55839157481E+02  0.10233931861E+04  0.10352807362E+04  0.00000000000E+00 0.  1.
        -11    1    3    3    0    0  0.16826991936E+03  0.44853100462E+01  0.14920399649E+04  0.15015052916E+04  0.00000000000E+00 0. -1.
         22    1    1    2    0    0 -0.31440197581E+03  0.51353847435E+02  0.20848649535E+03  0.38072619924E+03  0.00000000000E+00 0. -1.
<mgrwt>
<rscale>  0 0.10450547E+04</rscale>
<asrwt>0</asrwt>
<pdfrwt beam="1">  1        2 0.43395624E+00 0.10450547E+04</pdfrwt>
<pdfrwt beam="2">  1       -2 0.14891739E-01 0.10450547E+04</pdfrwt>
<totfact> 0.80924222E+01</totfact>
</mgrwt>
</event>
<event>
 6    1  0.2436515E-005  0.3593130E+04  0.7818608E-02  0.8092067E-01
          2   -1    0    0  501    0  0.00000000000E+00  0.00000000000E+00  0.31600100206E+04  0.31600100206E+04  0.00000000000E+00 0.  1.
         -2   -1    0    0    0  501 -0.00000000000E+00 -0.00000000000E+00 -0.10214039014E+04  0.10214039014E+04  0.00000000000E+00 0. -1.
         23    2    1    2    0    0 -0.60731645158E+03  0.15960299593E+04  0.42456017266E+03  0.17618895039E+04  0.88647506777E+02 0.  0.
         11    1    3    3    0    0 -0.24141114771E+03  0.75822322591E+03  0.19334077890E+03  0.81887878183E+03  0.00000000000E+00 0. -1.
        -11    1    3    3    0    0 -0.36590530388E+03  0.83780673334E+03  0.23121939376E+03  0.94301072204E+03  0.00000000000E+00 0.  1.
         22    1    1    2    0    0  0.60731645158E+03 -0.15960299593E+04  0.17140459465E+04  0.24195244181E+04  0.00000000000E+00 0. -1.
<mgrwt>
<rscale>  0 0.35931304E+04</rscale>
<asrwt>0</asrwt>
<pdfrwt beam="1">  1        2 0.48615538E+00 0.35931304E+04</pdfrwt>
<pdfrwt beam="2">  1       -2 0.15713906E+00 0.35931304E+04</pdfrwt>
<totfact> 0.29673531E-01</totfact>
</mgrwt>
</event>
<event>
 6    1  0.2436515E-005  0.2225034E+04  0.7818608E-02  0.8508080E-01
          2   -1    0    0  501    0  0.00000000000E+00  0.00000000000E+00  0.27745763932E+04  0.27745763932E+04  0.00000000000E+00 0.  1.
         -2   -1    0    0    0  501 -0.00000000000E+00 -0.00000000000E+00 -0.44608404214E+03  0.44608404214E+03  0.00000000000E+00 0. -1.
         23    2    1    2    0    0 -0.60861362400E+03 -0.71050147525E+03  0.20325999076E+04  0.22394493328E+04  0.91913221195E+02 0.  0.
         11    1    3    3    0    0 -0.19509887106E+03 -0.19100011126E+03  0.67660005817E+03  0.72961102699E+03  0.00000000000E+00 0.  1.
        -11    1    3    3    0    0 -0.41351475294E+03 -0.51950136400E+03  0.13559998494E+04  0.15098383058E+04  0.00000000000E+00 0. -1.
         22    1    1    2    0    0  0.60861362400E+03  0.71050147525E+03  0.29589244348E+03  0.98121110255E+03  0.00000000000E+00 0. -1.
<mgrwt>
<rscale>  0 0.22250342E+04</rscale>
<asrwt>0</asrwt>
<pdfrwt beam="1">  1        2 0.42685790E+00 0.22250342E+04</pdfrwt>
<pdfrwt beam="2">  1       -2 0.68628316E-01 0.22250342E+04</pdfrwt>
<totfact> 0.42436392E+00</totfact>
</mgrwt>
</event>
<event>
 6    1  0.2436515E-005  0.1251368E+04  0.7818608E-02  0.9069045E-01
          2   -1    0    0  501    0  0.00000000000E+00  0.00000000000E+00  0.11523396733E+04  0.11523396733E+04  0.00000000000E+00 0.  1.
         -2   -1    0    0    0  501 -0.00000000000E+00 -0.00000000000E+00 -0.33972673504E+03  0.33972673504E+03  0.00000000000E+00 0. -1.
         23    2    1    2    0    0 -0.38908587997E+03  0.25312847332E+03  0.90277424435E+03  0.10192124065E+04  0.91272927095E+02 0.  0.
         13    1    3    3    0    0 -0.27602764126E+03  0.12782910194E+03  0.59114376002E+03  0.66481763142E+03  0.00000000000E+00 0.  1.
        -13    1    3    3    0    0 -0.11305823872E+03  0.12529937138E+03  0.31163048433E+03  0.35439477504E+03  0.00000000000E+00 0. -1.
         22    1    1    2    0    0  0.38908587997E+03 -0.25312847332E+03 -0.90161306082E+02  0.47285400190E+03  0.00000000000E+00 0. -1.
<mgrwt>
<rscale>  0 0.12513682E+04</rscale>
<asrwt>0</asrwt>
<pdfrwt beam="1">  1        2 0.17728303E+00 0.12513682E+04</pdfrwt>
<pdfrwt beam="2">  1       -2 0.52265652E-01 0.12513682E+04</pdfrwt>
<totfact> 0.68750007E+01</totfact>
</mgrwt>
</event>
<event>
 6    1  0.2436515E-005  0.4850449E+04  0.7818608E-02  0.7852000E-01
          2   -1    0    0  501    0  0.00000000000E+00  0.00000000000E+00  0.47609422113E+04  0.47609422113E+04  0.00000000000E+00 0.  1.
         -2   -1    0    0    0  501 -0.00000000000E+00 -0.00000000000E+00 -0.12354096941E+04  0.12354096941E+04  0.00000000000E+00 0. -1.
         23    2    1    2    0    0 -0.54420849159E+03  0.23304606855E+04  0.12861550801E+04  0.27188496255E+04  0.10362676694E+03 0.  0.
         11    1    3    3    0    0 -0.25918431000E+03  0.11766727830E+04  0.59125223448E+03  0.13421306008E+04  0.00000000000E+00 0. -1.
        -11    1    3    3    0    0 -0.28502418160E+03  0.11537879026E+04  0.69490284559E+03  0.13767190247E+04  0.00000000000E+00 0.  1.
         22    1    1    2    0    0  0.54420849159E+03 -0.23304606855E+04  0.22393774372E+04  0.32775022800E+04  0.00000000000E+00 0. -1.
<mgrwt>
<rscale>  0 0.48504491E+04</rscale>
<asrwt>0</asrwt>
<pdfrwt beam="1">  1        2 0.73245264E+00 0.48504491E+04</pdfrwt>
<pdfrwt beam="2">  1       -2 0.19006303E+00 0.48504491E+04</pdfrwt>
<totfact> 0.74140445E-03</totfact>
</mgrwt>
</event>
<event>
 6    1  0.2436515E-005  0.5899128E+03  0.7818608E-02  0.9926558E-01
          1   -1    0    0  501    0  0.00000000000E+00  0.00000000000E+00  0.41790424949E+03  0.41790424949E+03  0.00000000000E+00 0.  1.
         -1   -1    0    0    0  501 -0.00000000000E+00 -0.00000000000E+00 -0.20817995970E+03  0.20817995970E+03  0.00000000000E+00 0. -1.
         23    2    1    2    0    0 -0.18714190841E+03  0.12661365866E+02  0.33915886988E+03  0.39819012284E+03  0.91346761534E+02 0.  0.
         11    1    3    3    0    0 -0.42843761844E+02 -0.21914847077E+02  0.15147528998E+03  0.15893587362E+03  0.00000000000E+00 0. -1.
        -11    1    3    3    0    0 -0.14429814657E+03  0.34576212943E+02  0.18768357991E+03  0.23925424922E+03  0.00000000000E+00 0.  1.
         22    1    1    2    0    0  0.18714190841E+03 -0.12661365866E+02 -0.12943458009E+03  0.22789408635E+03  0.00000000000E+00 0. -1.
<mgrwt>
<rscale>  0 0.58991284E+03</rscale>
<asrwt>0</asrwt>
<pdfrwt beam="1">  1        1 0.64292961E-01 0.58991284E+03</pdfrwt>
<pdfrwt beam="2">  1       -1 0.32027686E-01 0.58991284E+03</pdfrwt>
<totfact> 0.51975083E+02</totfact>
</mgrwt>
</event>
<event>
 6    1  0.2436515E-005  0.3670689E+03  0.7818608E-02  0.1055819E+00
         -2   -1    0    0    0  501 -0.00000000000E+00  0.00000000000E+00  0.42721089464E+02  0.42721089464E+02  0.00000000000E+00 0. -1.
          2   -1    0    0  501    0  0.00000000000E+00 -0.00000000000E+00 -0.78848377759E+03  0.78848377759E+03  0.00000000000E+00 0.  1.
         23    2    1    2    0    0  0.16446562204E+03  0.12911074305E+02 -0.27417157424E+03  0.33159120094E+03  0.86988710449E+02 0.  0.
         11    1    3    3    0    0  0.84007306409E+02  0.39787247674E+02 -0.92723214248E+02  0.13129298179E+03  0.00000000000E+00 0. -1.
        -11    1    3    3    0    0  0.80458315632E+02 -0.26876173368E+02 -0.18144835999E+03  0.20029821914E+03  0.00000000000E+00 0.  1.
         22    1    1    2    0    0 -0.16446562204E+03 -0.12911074305E+02 -0.47159111389E+03  0.49961366612E+03  0.00000000000E+00 0.  1.
<mgrwt>
<rscale>  0 0.36706885E+03</rscale>
<asrwt>0</asrwt>
<pdfrwt beam="1">  1        2 0.12130520E+00 0.36706885E+03</pdfrwt>
<pdfrwt beam="2">  1       -2 0.65724750E-02 0.36706885E+03</pdfrwt>
<totfact> 0.46674888E+03</totfact>
</mgrwt>
</event>
<event>
 6    1  0.2436515E-005  0.6964918E+03  0.7818608E-02  0.9723251E-01
         -2   -1    0    0    0  501 -0.00000000000E+00  0.00000000000E+00  0.68307537946E+02  0.68307537946E+02  0.00000000000E+00 0. -1.
          2   -1    0    0  501    0  0.00000000000E+00 -0.00000000000E+00 -0.17754291826E+04  0.17754291826E+04  0.00000000000E+00 0.  1.
         23    2    1    2    0    0 -0.18567316544E+03  0.17644934739E+03 -0.27008090429E+03  0.38404668975E+03  0.94547704790E+02 0.  0.
         11    1    3    3    0    0 -0.11030624699E+03  0.62711126076E+02 -0.18119568818E+03  0.22120585633E+03  0.00000000000E+00 0.  1.
        -11    1    3    3    0    0 -0.75366918455E+02  0.11373822131E+03 -0.88885216112E+02  0.16284083342E+03  0.00000000000E+00 0. -1.
         22    1    1    2    0    0  0.18567316544E+03 -0.17644934739E+03 -0.14370407404E+04  0.14596900308E+04  0.00000000000E+00 0.  1.
<mgrwt>
<rscale>  0 0.69649177E+03</rscale>
<asrwt>0</asrwt>
<pdfrwt beam="1">  1        2 0.27314294E+00 0.69649177E+03</pdfrwt>
<pdfrwt beam="2">  1       -2 0.10508853E-01 0.69649177E+03</pdfrwt>
<totfact> 0.57574753E+02</totfact>
</mgrwt>
</event>
<event>
 6    1  0.2436515E-005  0.3067221E+04  0.7818608E-02  0.8224792E-01
          2   -1    0    0  501    0  0.00000000000E+00  0.00000000000E+00  0.18022404314E+04  0.18022404314E+04  0.00000000000E+00 0.  1.
         -2   -1    0    0    0  501 -0.00000000000E+00 -0.00000000000E+00 -0.13050209691E+04  0.13050209691E+04  0.00000000000E+00 0. -1.
         23    2    1    2    0    0 -0.79005696980E+03 -0.12295568096E+04 -0.21737475512E+03  0.14804101906E+04  0.91447169480E+02 0.  0.
         13    1    3    3    0    0 -0.53909227358E+03 -0.83353281002E+03 -0.10442786462E+03  0.99814958985E+03  0.00000000000E+00 0. -1.
        -13    1    3    3    0    0 -0.25096469622E+03 -0.39602399954E+03 -0.11294689050E+03  0.48226060075E+03  0.00000000000E+00 0.  1.
         22    1    1    2    0    0  0.79005696980E+03  0.12295568096E+04  0.71459421738E+03  0.16268512098E+04  0.00000000000E+00 0.  1.
<mgrwt>
<rscale>  0 0.30672213E+04</rscale>
<asrwt>0</asrwt>
<pdfrwt beam="1">  1        2 0.27726776E+00 0.30672213E+04</pdfrwt>
<pdfrwt beam="2">  1       -2 0.20077246E+00 0.30672213E+04</pdfrwt>
<totfact> 0.96298127E-01</totfact>
</mgrwt>
</event>
<event>
 6    1  0.2436515E-005  0.2582520E+04  0.7818608E-02  0.8374163E-01
         -2   -1    0    0    0  501 -0.00000000000E+00  0.00000000000E+00  0.15790840678E+04  0.15790840678E+04  0.00000000000E+00 0. -1.
          2   -1    0    0  501    0  0.00000000000E+00 -0.00000000000E+00 -0.10558984384E+04  0.10558984384E+04  0.00000000000E+00 0.  1.
         23    2    1    2    0    0 -0.12404461267E+04 -0.20756161369E+03  0.55268011305E+03  0.13769450103E+04  0.93455000980E+02 0.  0.
         13    1    3    3    0    0 -0.51706878616E+03 -0.99885969867E+02  0.27983529707E+03  0.59635989979E+03  0.00000000000E+00 0. -1.
        -13    1    3    3    0    0 -0.72337734054E+03 -0.10767564382E+03  0.27284481598E+03  0.78058511047E+03  0.00000000000E+00 0.  1.
         22    1    1    2    0    0  0.12404461267E+04  0.20756161369E+03 -0.29494483649E+02  0.12580374960E+04  0.00000000000E+00 0.  1.
<mgrwt>
<rscale>  0 0.25825200E+04</rscale>
<asrwt>0</asrwt>
<pdfrwt beam="1">  1        2 0.16244591E+00 0.25825200E+04</pdfrwt>
<pdfrwt beam="2">  1       -2 0.24293601E+00 0.25825200E+04</pdfrwt>
<totfact> 0.14604307E+00</totfact>
</mgrwt>
</event>
<event>
 6    1  0.2436515E-005  0.3254362E+04  0.7818608E-02  0.8174606E-01
          2   -1    0    0  501    0  0.00000000000E+00  0.00000000000E+00  0.17095039179E+04  0.17095039179E+04  0.00000000000E+00 0.  1.
         -2   -1    0    0    0  501 -0.00000000000E+00 -0.00000000000E+00 -0.15488220333E+04  0.15488220333E+04  0.00000000000E+00 0. -1.
         23    2    1    2    0    0  0.55987949149E+03  0.53440915671E+03 -0.13510899783E+04  0.15599407307E+04  0.94407424958E+02 0.  0.
         13    1    3    3    0    0  0.13901887769E+03  0.14270743482E+03 -0.27088787940E+03  0.33626165930E+03  0.00000000000E+00 0. -1.
        -13    1    3    3    0    0  0.42086061379E+03  0.39170172189E+03 -0.10802020989E+04  0.12236790714E+04  0.00000000000E+00 0.  1.
         22    1    1    2    0    0 -0.55987949149E+03 -0.53440915671E+03  0.15117718629E+04  0.16983852205E+04  0.00000000000E+00 0.  1.
<mgrwt>
<rscale>  0 0.32543616E+04</rscale>
<asrwt>0</asrwt>
<pdfrwt beam="1">  1        2 0.26300060E+00 0.32543616E+04</pdfrwt>
<pdfrwt beam="2">  1       -2 0.23828031E+00 0.32543616E+04</pdfrwt>
<totfact> 0.61661414E-01</totfact>
</mgrwt>
</event>
<event>
 6    1  0.2436515E-005  0.2742377E+04  0.7818608E-02  0.8321385E-01
         -2   -1    0    0    0  501 -0.00000000000E+00  0.00000000000E+00  0.12807370045E+04  0.12807370045E+04  0.00000000000E+00 0. -1.
          2   -1    0    0  501    0  0.00000000000E+00 -0.00000000000E+00 -0.14680278864E+04  0.14680278864E+04  0.00000000000E+00 0.  1.
         23    2    1    2    0    0  0.63422369877E+03 -0.86226809116E+03 -0.95034237645E+03  0.14342332083E+04  0.90157097908E+02 0.  0.
         13    1    3    3    0    0  0.37105085253E+03 -0.49475190448E+03 -0.60748858437E+03  0.86689132092E+03  0.00000000000E+00 0. -1.
        -13    1    3    3    0    0  0.26317284624E+03 -0.36751618669E+03 -0.34285379207E+03  0.56734188741E+03  0.00000000000E+00 0.  1.
         22    1    1    2    0    0 -0.63422369877E+03  0.86226809116E+03  0.76305149456E+03  0.13145316826E+04  0.00000000000E+00 0. -1.
<mgrwt>
<rscale>  0 0.27423768E+04</rscale>
<asrwt>0</asrwt>
<pdfrwt beam="1">  1        2 0.22585044E+00 0.27423768E+04</pdfrwt>
<pdfrwt beam="2">  1       -2 0.19703646E+00 0.27423768E+04</pdfrwt>
<totfact> 0.16098501E+00</totfact>
</mgrwt>
</event>
<event>
 6    1  0.5104592E-005  0.3867135E+04  0.7818608E-02  0.8031899E-01
          2   -1    0    0  501    0  0.00000000000E+00  0.00000000000E+00  0.22678332878E+04  0.22678332878E+04  0.00000000000E+00 0.  1.
         -2   -1    0    0    0  501 -0.00000000000E+00 -0.00000000000E+00 -0.16485702823E+04  0.16485702823E+04  0.00000000000E+00 0. -1.
         23    2    1    2    0    0 -0.16119552565E+04 -0.26404438001E+03 -0.73599080930E+03  0.17939445985E+04  0.91845346339E+02 0.  0.
         13    1    3    3    0    0 -0.63911646082E+03 -0.95357295913E+02 -0.33957393048E+03  0.72998172487E+03  0.00000000000E+00 0. -1.
        -13    1    3    3    0    0 -0.97283879569E+03 -0.16868708410E+03 -0.39641687882E+03  0.10639628737E+04  0.00000000000E+00 0.  1.
         22    1    1    2    0    0  0.16119552565E+04  0.26404438001E+03  0.13552538148E+04  0.21224589716E+04  0.00000000000E+00 0.  1.
<mgrwt>
<rscale>  0 0.38671346E+04</rscale>
<asrwt>0</asrwt>
<pdfrwt beam="1">  1        2 0.34889743E+00 0.38671346E+04</pdfrwt>
<pdfrwt beam="2">  1       -2 0.25362620E+00 0.38671346E+04</pdfrwt>
<totfact> 0.23017126E-01</totfact>
</mgrwt>
</event>
<event>
 6    1  0.2436515E-005  0.2014120E+04  0.7818608E-02  0.8600048E-01
         -2   -1    0    0    0  501 -0.00000000000E+00  0.00000000000E+00  0.48103022102E+03  0.48103022102E+03  0.00000000000E+00 0. -1.
          2   -1    0    0  501    0  0.00000000000E+00 -0.00000000000E+00 -0.21083283755E+04  0.21083283755E+04  0.00000000000E+00 0.  1.
         23    2    1    2    0    0  0.85666259835E+03  0.13120870591E+03 -0.14692744985E+04  0.17084170504E+04  0.93993266877E+02 0.  0.
         11    1    3    3    0    0  0.55231993229E+02  0.27316477488E+02 -0.77237929799E+02  0.98805165949E+02  0.00000000000E+00 0.  1.
        -11    1    3    3    0    0  0.80143060512E+03  0.10389222843E+03 -0.13920365687E+04  0.16096118844E+04  0.00000000000E+00 0. -1.
         22    1    1    2    0    0 -0.85666259835E+03 -0.13120870591E+03 -0.15802365604E+03  0.88094154618E+03  0.00000000000E+00 0.  1.
<mgrwt>
<rscale>  0 0.20141198E+04</rscale>
<asrwt>0</asrwt>
<pdfrwt beam="1">  1        2 0.32435821E+00 0.20141198E+04</pdfrwt>
<pdfrwt beam="2">  1       -2 0.74004650E-01 0.20141198E+04</pdfrwt>
<totfact> 0.88726037E+00</totfact>
</mgrwt>
</event>
<event>
 6    1  0.2436515E-005  0.1585064E+04  0.7818608E-02  0.8829777E-01
          2   -1    0    0  501    0  0.00000000000E+00  0.00000000000E+00  0.63874366166E+03  0.63874366166E+03  0.00000000000E+00 0.  1.
         -2   -1    0    0    0  501 -0.00000000000E+00 -0.00000000000E+00 -0.98334693101E+03  0.98334693101E+03  0.00000000000E+00 0. -1.
         23    2    1    2    0    0 -0.19980624010E+03 -0.27126142536E+03 -0.90426985801E+03  0.96884333096E+03  0.86302545560E+02 0.  0.
         13    1    3    3    0    0 -0.66696513141E+02 -0.14607319549E+03 -0.34641514704E+03  0.38182359461E+03  0.00000000000E+00 0. -1.
        -13    1    3    3    0    0 -0.13310972696E+03 -0.12518822988E+03 -0.55785471097E+03  0.58701973635E+03  0.00000000000E+00 0.  1.
         22    1    1    2    0    0  0.19980624010E+03  0.27126142536E+03  0.55966658866E+03  0.65324726171E+03  0.00000000000E+00 0.  1.
<mgrwt>
<rscale>  0 0.15850636E+04</rscale>
<asrwt>0</asrwt>
<pdfrwt beam="1">  1        2 0.98268256E-01 0.15850636E+04</pdfrwt>
<pdfrwt beam="2">  1       -2 0.15128414E+00 0.15850636E+04</pdfrwt>
<totfact> 0.12910633E+01</totfact>
</mgrwt>
</event>
<event>
 6    1  0.2436515E-005  0.5420381E+04  0.7818608E-02  0.7766741E-01
          2   -1    0    0  501    0  0.00000000000E+00  0.00000000000E+00  0.40821815669E+04  0.40821815669E+04  0.00000000000E+00 0. -1.
         -2   -1    0    0    0  501 -0.00000000000E+00 -0.00000000000E+00 -0.17993156977E+04  0.17993156977E+04  0.00000000000E+00 0.  1.
         23    2    1    2    0    0  0.78292279429E+03  0.24223875110E+04  0.21479713894E+04  0.33321589434E+04  0.92589301885E+02 0.  0.
         11    1    3    3    0    0  0.28699758122E+03  0.82629237596E+03  0.68641600519E+03  0.11118874198E+04  0.00000000000E+00 0. -1.
        -11    1    3    3    0    0  0.49592521307E+03  0.15960951351E+04  0.14615553842E+04  0.22202715236E+04  0.00000000000E+00 0.  1.
         22    1    1    2    0    0 -0.78292279429E+03 -0.24223875110E+04  0.13489447983E+03  0.25493383212E+04  0.00000000000E+00 0.  1.
<mgrwt>
<rscale>  0 0.54203813E+04</rscale>
<asrwt>0</asrwt>
<pdfrwt beam="1">  1        2 0.62802793E+00 0.54203813E+04</pdfrwt>
<pdfrwt beam="2">  1       -2 0.27681780E+00 0.54203813E+04</pdfrwt>
<totfact> 0.90305624E-03</totfact>
</mgrwt>
</event>
<event>
 6    1  0.2436515E-005  0.1420449E+04  0.7818608E-02  0.8939148E-01
          1   -1    0    0  501    0  0.00000000000E+00  0.00000000000E+00  0.83254501925E+03  0.83254501925E+03  0.00000000000E+00 0.  1.
         -1   -1    0    0    0  501 -0.00000000000E+00 -0.00000000000E+00 -0.60587565674E+03  0.60587565674E+03  0.00000000000E+00 0. -1.
         23    2    1    2    0    0 -0.23147098042E+02 -0.22767354454E+03  0.79152670131E+03  0.82896612952E+03  0.91100460870E+02 0.  0.
         11    1    3    3    0    0 -0.14768634091E+02 -0.10554466704E+03  0.52448057036E+03  0.53519870887E+03  0.00000000000E+00 0. -1.
        -11    1    3    3    0    0 -0.83784639514E+01 -0.12212887750E+03  0.26704613095E+03  0.29376742065E+03  0.00000000000E+00 0.  1.
         22    1    1    2    0    0  0.23147098042E+02  0.22767354454E+03 -0.56485733880E+03  0.60945454648E+03  0.00000000000E+00 0. -1.
<mgrwt>
<rscale>  0 0.14204489E+04</rscale>
<asrwt>0</asrwt>
<pdfrwt beam="1">  1        1 0.12808385E+00 0.14204489E+04</pdfrwt>
<pdfrwt beam="2">  1       -1 0.93211640E-01 0.14204489E+04</pdfrwt>
<totfact> 0.22551172E+01</totfact>
</mgrwt>
</event>
<event>
 6    1  0.2436515E-005  0.2956321E+04  0.7818608E-02  0.8256315E-01
         -2   -1    0    0    0  501 -0.00000000000E+00  0.00000000000E+00  0.12654933520E+04  0.12654933520E+04  0.00000000000E+00 0. -1.
          2   -1    0    0  501    0  0.00000000000E+00 -0.00000000000E+00 -0.17265667698E+04  0.17265667698E+04  0.00000000000E+00 0.  1.
         23    2    1    2    0    0  0.73478001788E+03  0.12413162611E+04 -0.55081856010E+03  0.15467843954E+04  0.91504889460E+02 0.  0.
         13    1    3    3    0    0  0.21114545341E+03  0.28039876552E+03 -0.13931224283E+03  0.37764238534E+03  0.00000000000E+00 0.  1.
        -13    1    3    3    0    0  0.52363456447E+03  0.96091749558E+03 -0.41150631727E+03  0.11691420100E+04  0.00000000000E+00 0. -1.
         22    1    1    2    0    0 -0.73478001788E+03 -0.12413162611E+04  0.89745142310E+02  0.14452757264E+04  0.00000000000E+00 0.  1.
<mgrwt>
<rscale>  0 0.29563212E+04</rscale>
<asrwt>0</asrwt>
<pdfrwt beam="1">  1        2 0.26562566E+00 0.29563212E+04</pdfrwt>
<pdfrwt beam="2">  1       -2 0.19469129E+00 0.29563212E+04</pdfrwt>
<totfact> 0.11743622E+00</totfact>
</mgrwt>
</event>
<event>
 6    1  0.2436515E-005  0.2429321E+04  0.7818608E-02  0.8428607E-01
         -2   -1    0    0    0  501 -0.00000000000E+00  0.00000000000E+00  0.10203060213E+04  0.10203060213E+04  0.00000000000E+00 0. -1.
          2   -1    0    0  501    0  0.00000000000E+00 -0.00000000000E+00 -0.14460363525E+04  0.14460363525E+04  0.00000000000E+00 0.  1.
         23    2    1    2    0    0  0.34949903610E+03 -0.11485136559E+04 -0.39042736086E+03  0.12653096958E+04  0.85684935580E+02 0.  0.
         11    1    3    3    0    0  0.13525068093E+03 -0.50277059136E+03 -0.12844541771E+03  0.53625482708E+03  0.00000000000E+00 0.  1.
        -11    1    3    3    0    0  0.21424835517E+03 -0.64574306449E+03 -0.26198194315E+03  0.72905486869E+03  0.00000000000E+00 0. -1.
         22    1    1    2    0    0 -0.34949903610E+03  0.11485136559E+04 -0.35302970400E+02  0.12010326780E+04  0.00000000000E+00 0. -1.
<mgrwt>
<rscale>  0 0.24293206E+04</rscale>
<asrwt>0</asrwt>
<pdfrwt beam="1">  1        2 0.22246713E+00 0.24293206E+04</pdfrwt>
<pdfrwt beam="2">  1       -2 0.15697016E+00 0.24293206E+04</pdfrwt>
<totfact> 0.32423650E+00</totfact>
</mgrwt>
</event>
<event>
 6    1  0.2436515E-005  0.6873314E+03  0.7818608E-02  0.9739146E-01
          2   -1    0    0  501    0  0.00000000000E+00  0.00000000000E+00  0.16699174373E+04  0.16699174373E+04  0.00000000000E+00 0.  1.
         -2   -1    0    0    0  501 -0.00000000000E+00 -0.00000000000E+00 -0.70725712893E+02  0.70725712893E+02  0.00000000000E+00 0. -1.
         23    2    1    2    0    0 -0.33481807398E+03 -0.19579637545E+02  0.70778502093E+03  0.78822915624E+03  0.88651350986E+02 0.  0.
         11    1    3    3    0    0 -0.17928358476E+03  0.67369706682E+01  0.28275693086E+03  0.33487232267E+03  0.00000000000E+00 0. -1.
        -11    1    3    3    0    0 -0.15553448922E+03 -0.26316608213E+02  0.42502809007E+03  0.45335683357E+03  0.00000000000E+00 0.  1.
         22    1    1    2    0    0  0.33481807398E+03  0.19579637545E+02  0.89140670348E+03  0.95241399395E+03  0.00000000000E+00 0. -1.
<mgrwt>
<rscale>  0 0.68733136E+03</rscale>
<asrwt>0</asrwt>
<pdfrwt beam="1">  1        2 0.25691035E+00 0.68733136E+03</pdfrwt>
<pdfrwt beam="2">  1       -2 0.10880880E-01 0.68733136E+03</pdfrwt>
<totfact> 0.62131148E+02</totfact>
</mgrwt>
</event>
<event>
 6    1  0.2436515E-005  0.4259163E+04  0.7818608E-02  0.7954213E-01
         -2   -1    0    0    0  501 -0.00000000000E+00  0.00000000000E+00  0.21140459332E+04  0.21140459332E+04  0.00000000000E+00 0. -1.
          2   -1    0    0  501    0  0.00000000000E+00 -0.00000000000E+00 -0.21452315691E+04  0.21452315691E+04  0.00000000000E+00 0.  1.
         23    2    1    2    0    0 -0.15621310181E+04 -0.14415896237E+04  0.96317672016E+02  0.21297960972E+04  0.91216011050E+02 0.  0.
         11    1    3    3    0    0 -0.10976243922E+04 -0.10097872840E+04  0.25824021648E+02  0.14916824546E+04  0.00000000000E+00 0. -1.
        -11    1    3    3    0    0 -0.46450662593E+03 -0.43180233977E+03  0.70493650368E+02  0.63811364262E+03  0.00000000000E+00 0.  1.
         22    1    1    2    0    0  0.15621310181E+04  0.14415896237E+04 -0.12750330784E+03  0.21294814051E+04  0.00000000000E+00 0. -1.
<mgrwt>
<rscale>  0 0.42591633E+04</rscale>
<asrwt>0</asrwt>
<pdfrwt beam="1">  1        2 0.33003563E+00 0.42591633E+04</pdfrwt>
<pdfrwt beam="2">  1       -2 0.32523783E+00 0.42591633E+04</pdfrwt>
<totfact> 0.95157009E-02</totfact>
</mgrwt>
</event>
<event>
 6    1  0.2436515E-005  0.3184441E+04  0.7818608E-02  0.8192938E-01
         -2   -1    0    0    0  501 -0.00000000000E+00  0.00000000000E+00  0.21098083669E+04  0.21098083669E+04  0.00000000000E+00 0. -1.
          2   -1    0    0  501    0  0.00000000000E+00 -0.00000000000E+00 -0.12016093424E+04  0.12016093424E+04  0.00000000000E+00 0.  1.
         23    2    1    2    0    0 -0.14352117088E+02 -0.41423955520E+03 -0.11425123618E+04  0.12192376067E+04  0.96981711658E+02 0.  0.
         11    1    3    3    0    0 -0.44869048688E+02 -0.30971384192E+03 -0.77086444433E+03  0.83196627752E+03  0.00000000000E+00 0.  1.
        -11    1    3    3    0    0  0.30516931600E+02 -0.10452571329E+03 -0.37164791743E+03  0.38727132915E+03  0.00000000000E+00 0. -1.
         22    1    1    2    0    0  0.14352117088E+02  0.41423955520E+03  0.20507113863E+04  0.20921801027E+04  0.00000000000E+00 0. -1.
<mgrwt>
<rscale>  0 0.31844406E+04</rscale>
<asrwt>0</asrwt>
<pdfrwt beam="1">  1        2 0.18486298E+00 0.31844406E+04</pdfrwt>
<pdfrwt beam="2">  1       -2 0.32458590E+00 0.31844406E+04</pdfrwt>
<totfact> 0.35731583E-01</totfact>
</mgrwt>
</event>
<event>
 6    1  0.2436515E-005  0.2878847E+04  0.7818608E-02  0.8279199E-01
          2   -1    0    0  501    0  0.00000000000E+00  0.00000000000E+00  0.82610069909E+03  0.82610069909E+03  0.00000000000E+00 0.  1.
         -2   -1    0    0    0  501 -0.00000000000E+00 -0.00000000000E+00 -0.25080954695E+04  0.25080954695E+04  0.00000000000E+00 0. -1.
         23    2    1    2    0    0 -0.62777094239E+03 -0.98882492404E+03  0.12432450222E+03  0.11813700258E+04  0.91145320480E+02 0.  0.
         11    1    3    3    0    0 -0.35238469350E+03 -0.63156739986E+03  0.59637080091E+02  0.72567825798E+03  0.00000000000E+00 0. -1.
        -11    1    3    3    0    0 -0.27538624889E+03 -0.35725752418E+03  0.64687422127E+02  0.45569176780E+03  0.00000000000E+00 0.  1.
         22    1    1    2    0    0  0.62777094239E+03  0.98882492404E+03 -0.18063192726E+04  0.21528261428E+04  0.00000000000E+00 0. -1.
<mgrwt>
<rscale>  0 0.28788466E+04</rscale>
<asrwt>0</asrwt>
<pdfrwt beam="1">  1        2 0.12709242E+00 0.28788466E+04</pdfrwt>
<pdfrwt beam="2">  1       -2 0.38586084E+00 0.28788466E+04</pdfrwt>
<totfact> 0.26162176E-01</totfact>
</mgrwt>
</event>
<event>
 6    1  0.2436515E-005  0.1793840E+04  0.7818608E-02  0.8709582E-01
          1   -1    0    0  501    0  0.00000000000E+00  0.00000000000E+00  0.26588293772E+04  0.26588293772E+04  0.00000000000E+00 0.  1.
         -1   -1    0    0    0  501 -0.00000000000E+00 -0.00000000000E+00 -0.30256371715E+03  0.30256371715E+03  0.00000000000E+00 0. -1.
         23    2    1    2    0    0 -0.29110501442E+03 -0.31442590163E+03  0.24774869732E+04  0.25160837819E+04  0.95551651518E+02 0.  0.
         11    1    3    3    0    0 -0.50248677815E+02 -0.11782251506E+03  0.71271992823E+03  0.72413864058E+03  0.00000000000E+00 0.  1.
        -11    1    3    3    0    0 -0.24085633660E+03 -0.19660338657E+03  0.17647670450E+04  0.17919451413E+04  0.00000000000E+00 0. -1.
         22    1    1    2    0    0  0.29110501442E+03  0.31442590163E+03 -0.12122131311E+03  0.44530931249E+03  0.00000000000E+00 0. -1.
<mgrwt>
<rscale>  0 0.17938398E+04</rscale>
<asrwt>0</asrwt>
<pdfrwt beam="1">  1        1 0.40905066E+00 0.17938398E+04</pdfrwt>
<pdfrwt beam="2">  1       -1 0.46548266E-01 0.17938398E+04</pdfrwt>
<totfact> 0.45604679E+00</totfact>
</mgrwt>
</event>
<event>
 6    1  0.2436515E-005  0.2232656E+04  0.7818608E-02  0.8504958E-01
          1   -1    0    0  501    0  0.00000000000E+00  0.00000000000E+00  0.85029062781E+03  0.85029062781E+03  0.00000000000E+00 0.  1.
         -1   -1    0    0    0  501 -0.00000000000E+00 -0.00000000000E+00 -0.14656029184E+04  0.14656029184E+04  0.00000000000E+00 0. -1.
         23    2    1    2    0    0  0.60845662052E+03 -0.45940469288E+03 -0.11512253882E+04  0.13839734965E+04  0.93758272396E+02 0.  0.
         13    1    3    3    0    0  0.19730805687E+03 -0.20251947210E+03 -0.45088948750E+03  0.53220854542E+03  0.00000000000E+00 0. -1.
        -13    1    3    3    0    0  0.41114856364E+03 -0.25688522078E+03 -0.70033590070E+03  0.85176495106E+03  0.00000000000E+00 0.  1.
         22    1    1    2    0    0 -0.60845662052E+03  0.45940469288E+03  0.53591309761E+03  0.93192004972E+03  0.00000000000E+00 0.  1.
<mgrwt>
<rscale>  0 0.22326562E+04</rscale>
<asrwt>0</asrwt>
<pdfrwt beam="1">  1        1 0.13081394E+00 0.22326562E+04</pdfrwt>
<pdfrwt beam="2">  1       -1 0.22547737E+00 0.22326562E+04</pdfrwt>
<totfact> 0.18406690E+00</totfact>
</mgrwt>
</event>
<event>
 6    1  0.2436515E-005  0.1751672E+04  0.7818608E-02  0.8732430E-01
          2   -1    0    0  501    0  0.00000000000E+00  0.00000000000E+00  0.11619357939E+04  0.11619357939E+04  0.00000000000E+00 0.  1.
         -2   -1    0    0    0  501 -0.00000000000E+00 -0.00000000000E+00 -0.66018197015E+03  0.66018197015E+03  0.00000000000E+00 0. -1.
         23    2    1    2    0    0 -0.19118126527E+03  0.79085352303E+03  0.57651754394E+03  0.10050564537E+04  0.12556442787E+03 0.  0.
         11    1    3    3    0    0 -0.76862081901E+02  0.56319416753E+03  0.39081598896E+03  0.68980619539E+03  0.00000000000E+00 0. -1.
        -11    1    3    3    0    0 -0.11431918337E+03  0.22765935550E+03  0.18570155498E+03  0.31525025829E+03  0.00000000000E+00 0.  1.
         22    1    1    2    0    0  0.19118126527E+03 -0.79085352303E+03 -0.74763720178E+02  0.81706131039E+03  0.00000000000E+00 0. -1.
<mgrwt>
<rscale>  0 0.17516724E+04</rscale>
<asrwt>0</asrwt>
<pdfrwt beam="1">  1        2 0.17875935E+00 0.17516724E+04</pdfrwt>
<pdfrwt beam="2">  1       -2 0.10156646E+00 0.17516724E+04</pdfrwt>
<totfact> 0.15064880E+01</totfact>
</mgrwt>
</event>
<event>
 6    1  0.2436515E-005  0.1778495E+04  0.7818608E-02  0.8717820E-01
         -2   -1    0    0    0  501 -0.00000000000E+00  0.00000000000E+00  0.35670870366E+03  0.35670870366E+03  0.00000000000E+00 0. -1.
          2   -1    0    0  501    0  0.00000000000E+00 -0.00000000000E+00 -0.22168258561E+04  0.22168258561E+04  0.00000000000E+00 0.  1.
         23    2    1    2    0    0 -0.56822731712E+03 -0.46354489785E+03 -0.16544020040E+04  0.18119080906E+04  0.90602326716E+02 0.  0.
         11    1    3    3    0    0 -0.21612706763E+03 -0.15918234333E+03 -0.71016731932E+03  0.75920191598E+03  0.00000000000E+00 0. -1.
        -11    1    3    3    0    0 -0.35210024950E+03 -0.30436255452E+03 -0.94423468466E+03  0.10527061746E+04  0.00000000000E+00 0.  1.
         22    1    1    2    0    0  0.56822731712E+03  0.46354489785E+03 -0.20571514843E+03  0.76162646917E+03  0.00000000000E+00 0. -1.
<mgrwt>
<rscale>  0 0.17784950E+04</rscale>
<asrwt>0</asrwt>
<pdfrwt beam="1">  1        2 0.34105014E+00 0.17784950E+04</pdfrwt>
<pdfrwt beam="2">  1       -2 0.54878262E-01 0.17784950E+04</pdfrwt>
<totfact> 0.14928712E+01</totfact>
</mgrwt>
</event>
<event>
 6    1  0.2436515E-005  0.2479486E+04  0.7818608E-02  0.8410330E-01
          1   -1    0    0  501    0  0.00000000000E+00  0.00000000000E+00  0.13676460883E+04  0.13676460883E+04  0.00000000000E+00 0. -1.
         -1   -1    0    0    0  501 -0.00000000000E+00 -0.00000000000E+00 -0.11238015610E+04  0.11238015610E+04  0.00000000000E+00 0.  1.
         23    2    1    2    0    0 -0.75525661268E+03 -0.77475527477E+03  0.72639960675E+03  0.13067461293E+04  0.96284842942E+02 0.  0.
         13    1    3    3    0    0 -0.41315467551E+03 -0.38012608417E+03  0.42101928063E+03  0.70174771851E+03  0.00000000000E+00 0. -1.
        -13    1    3    3    0    0 -0.34210193717E+03 -0.39462919060E+03  0.30538032612E+03  0.60499841080E+03  0.00000000000E+00 0.  1.
         22    1    1    2    0    0  0.75525661268E+03  0.77475527477E+03 -0.48255507941E+03  0.11847015200E+04  0.00000000000E+00 0.  1.
<mgrwt>
<rscale>  0 0.24794861E+04</rscale>
<asrwt>0</asrwt>
<pdfrwt beam="1">  1        1 0.21040709E+00 0.24794861E+04</pdfrwt>
<pdfrwt beam="2">  1       -1 0.17289255E+00 0.24794861E+04</pdfrwt>
<totfact> 0.16888284E+00</totfact>
</mgrwt>
</event>
<event>
 6    1  0.2436515E-005  0.1480129E+04  0.7818608E-02  0.8897775E-01
         -2   -1    0    0    0  501 -0.00000000000E+00  0.00000000000E+00  0.12479412310E+04  0.12479412310E+04  0.00000000000E+00 0. -1.
          2   -1    0    0  501    0  0.00000000000E+00 -0.00000000000E+00 -0.43887933719E+03  0.43887933719E+03  0.00000000000E+00 0.  1.
         23    2    1    2    0    0 -0.43089606529E+03 -0.17315836208E+02 -0.27531856960E+03  0.51983631522E+03  0.91968595664E+02 0.  0.
         11    1    3    3    0    0 -0.18717432314E+03  0.37648493971E+02 -0.11199955078E+03  0.22134935219E+03  0.00000000000E+00 0. -1.
        -11    1    3    3    0    0 -0.24372174215E+03 -0.54964330179E+02 -0.16331901882E+03  0.29848696303E+03  0.00000000000E+00 0.  1.
         22    1    1    2    0    0  0.43089606529E+03  0.17315836208E+02  0.10843804634E+04  0.11669842530E+04  0.00000000000E+00 0. -1.
<mgrwt>
<rscale>  0 0.14801292E+04</rscale>
<asrwt>0</asrwt>
<pdfrwt beam="1">  1        2 0.67519899E-01 0.14801292E+04</pdfrwt>
<pdfrwt beam="2">  1       -2 0.19199096E+00 0.14801292E+04</pdfrwt>
<totfact> 0.10397760E+01</totfact>
</mgrwt>
</event>
<event>
 6    1  0.2436515E-005  0.5177713E+04  0.7818608E-02  0.7801663E-01
         -2   -1    0    0    0  501 -0.00000000000E+00  0.00000000000E+00  0.29964620797E+04  0.29964620797E+04  0.00000000000E+00 0. -1.
          2   -1    0    0  501    0  0.00000000000E+00 -0.00000000000E+00 -0.22366971327E+04  0.22366971327E+04  0.00000000000E+00 0.  1.
         23    2    1    2    0    0  0.24769038852E+04 -0.56905531916E+03 -0.11432701456E+03  0.25456113394E+04  0.90496475738E+02 0.  0.
         13    1    3    3    0    0  0.20126462094E+04 -0.47465797920E+03 -0.12617499024E+03  0.20717058406E+04  0.00000000000E+00 0. -1.
        -13    1    3    3    0    0  0.46425767575E+03 -0.94397339964E+02  0.11847975686E+02  0.47390549882E+03  0.00000000000E+00 0.  1.
         22    1    1    2    0    0 -0.24769038852E+04  0.56905531916E+03  0.87409196148E+03  0.26875478730E+04  0.00000000000E+00 0. -1.
<mgrwt>
<rscale>  0 0.51777131E+04</rscale>
<asrwt>0</asrwt>
<pdfrwt beam="1">  1        2 0.34410725E+00 0.51777131E+04</pdfrwt>
<pdfrwt beam="2">  1       -2 0.46099417E+00 0.51777131E+04</pdfrwt>
<totfact> 0.10422858E-02</totfact>
</mgrwt>
</event>
<event>
 6    1  0.2436515E-005  0.2691962E+04  0.7818608E-02  0.8337618E-01
         -2   -1    0    0    0  501 -0.00000000000E+00  0.00000000000E+00  0.10231607528E+04  0.10231607528E+04  0.00000000000E+00 0. -1.
          2   -1    0    0  501    0  0.00000000000E+00 -0.00000000000E+00 -0.17706548790E+04  0.17706548790E+04  0.00000000000E+00 0.  1.
         23    2    1    2    0    0  0.89828536674E+03  0.53642283768E+03 -0.12503402617E+04  0.16329882128E+04  0.92917555176E+02 0.  0.
         13    1    3    3    0    0  0.12265220598E+03  0.46746114090E+02 -0.12604578625E+03  0.18197885329E+03  0.00000000000E+00 0.  1.
        -13    1    3    3    0    0  0.77563316076E+03  0.48967672359E+03 -0.11242944755E+04  0.14510093595E+04  0.00000000000E+00 0. -1.
         22    1    1    2    0    0 -0.89828536674E+03 -0.53642283768E+03  0.50284613551E+03  0.11608274191E+04  0.00000000000E+00 0. -1.
<mgrwt>
<rscale>  0 0.26919618E+04</rscale>
<asrwt>0</asrwt>
<pdfrwt beam="1">  1        2 0.27240844E+00 0.26919618E+04</pdfrwt>
<pdfrwt beam="2">  1       -2 0.15740935E+00 0.26919618E+04</pdfrwt>
<totfact> 0.20712224E+00</totfact>
</mgrwt>
</event>
<event>
 6    1  0.2436515E-005  0.1550443E+04  0.7818608E-02  0.8851585E-01
          2   -1    0    0  501    0  0.00000000000E+00  0.00000000000E+00  0.13227242405E+04  0.13227242405E+04  0.00000000000E+00 0.  1.
         -2   -1    0    0    0  501 -0.00000000000E+00 -0.00000000000E+00 -0.45434132065E+03  0.45434132065E+03  0.00000000000E+00 0. -1.
         23    2    1    2    0    0 -0.62933863450E+03 -0.38446249484E+03  0.69914002811E+03  0.10204139351E+04  0.92570477090E+02 0.  0.
         11    1    3    3    0    0 -0.38412084663E+03 -0.28051559263E+03  0.41907328975E+03  0.63392447870E+03  0.00000000000E+00 0. -1.
        -11    1    3    3    0    0 -0.24521778787E+03 -0.10394690222E+03  0.28006673836E+03  0.38648945640E+03  0.00000000000E+00 0.  1.
         22    1    1    2    0    0  0.62933863450E+03  0.38446249484E+03  0.16924289176E+03  0.75665162606E+03  0.00000000000E+00 0. -1.
<mgrwt>
<rscale>  0 0.15504429E+04</rscale>
<asrwt>0</asrwt>
<pdfrwt beam="1">  1        2 0.20349604E+00 0.15504429E+04</pdfrwt>
<pdfrwt beam="2">  1       -2 0.69898665E-01 0.15504429E+04</pdfrwt>
<totfact> 0.28782765E+01</totfact>
</mgrwt>
</event>
<event>
 6    1  0.2436515E-005  0.3767256E+04  0.7818608E-02  0.8053218E-01
          2   -1    0    0  501    0  0.00000000000E+00  0.00000000000E+00  0.14612782976E+04  0.14612782976E+04  0.00000000000E+00 0.  1.
         -2   -1    0    0    0  501 -0.00000000000E+00 -0.00000000000E+00 -0.24280480970E+04  0.24280480970E+04  0.00000000000E+00 0. -1.
         23    2    1    2    0    0 -0.50140266869E+03  0.23837393168E+03 -0.23407658817E+04  0.24074046688E+04  0.90474079466E+02 0.  0.
         11    1    3    3    0    0 -0.39462322322E+03  0.19373602186E+03 -0.16792082694E+04  0.17357999730E+04  0.00000000000E+00 0. -1.
        -11    1    3    3    0    0 -0.10677944547E+03  0.44637909811E+02 -0.66155761232E+03  0.67160469577E+03  0.00000000000E+00 0.  1.
         22    1    1    2    0    0  0.50140266869E+03 -0.23837393168E+03  0.13739960822E+04  0.14819217258E+04  0.00000000000E+00 0.  1.
<mgrwt>
<rscale>  0 0.37672558E+04</rscale>
<asrwt>0</asrwt>
<pdfrwt beam="1">  1        2 0.22481205E+00 0.37672558E+04</pdfrwt>
<pdfrwt beam="2">  1       -2 0.37354586E+00 0.37672558E+04</pdfrwt>
<totfact> 0.11820129E-01</totfact>
</mgrwt>
</event>
<event>
 6    1  0.2436515E-005  0.1887150E+04  0.7818608E-02  0.8661279E-01
          2   -1    0    0  501    0  0.00000000000E+00  0.00000000000E+00  0.13132399472E+04  0.13132399472E+04  0.00000000000E+00 0.  1.
         -2   -1    0    0    0  501 -0.00000000000E+00 -0.00000000000E+00 -0.67796699236E+03  0.67796699236E+03  0.00000000000E+00 0. -1.
         23    2    1    2    0    0 -0.90099014466E+03  0.78443689907E+02  0.42701738396E+02  0.90996815938E+03  0.91005271054E+02 0.  0.
         11    1    3    3    0    0 -0.48845294362E+03  0.65507126554E+02  0.62386466054E+02  0.49675902902E+03  0.00000000000E+00 0. -1.
        -11    1    3    3    0    0 -0.41253720103E+03  0.12936563353E+02 -0.19684727658E+02  0.41320913036E+03  0.00000000000E+00 0.  1.
         22    1    1    2    0    0  0.90099014466E+03 -0.78443689907E+02  0.59257121647E+03  0.10812387802E+04  0.00000000000E+00 0.  1.
<mgrwt>
<rscale>  0 0.18871495E+04</rscale>
<asrwt>0</asrwt>
<pdfrwt beam="1">  1        2 0.20203692E+00 0.18871495E+04</pdfrwt>
<pdfrwt beam="2">  1       -2 0.10430261E+00 0.18871495E+04</pdfrwt>
<totfact> 0.11374477E+01</totfact>
</mgrwt>
</event>
<event>
 6    1  0.2436515E-005  0.3191259E+04  0.7818608E-02  0.8191129E-01
          2   -1    0    0  501    0  0.00000000000E+00  0.00000000000E+00  0.26998808137E+04  0.26998808137E+04  0.00000000000E+00 0.  1.
         -2   -1    0    0    0  501 -0.00000000000E+00 -0.00000000000E+00 -0.94301700209E+03  0.94301700209E+03  0.00000000000E+00 0. -1.
         23    2    1    2    0    0  0.87822542359E+03 -0.12657396285E+04  0.41071448409E+03  0.15970496509E+04  0.92219837532E+02 0.  0.
         11    1    3    3    0    0  0.55309853518E+03 -0.84798233246E+03  0.30354152051E+03  0.10569434613E+04  0.00000000000E+00 0. -1.
        -11    1    3    3    0    0  0.32512688842E+03 -0.41775729599E+03  0.10717296358E+03  0.54010618961E+03  0.00000000000E+00 0.  1.
         22    1    1    2    0    0 -0.87822542359E+03  0.12657396285E+04  0.13461493275E+04  0.20458481649E+04  0.00000000000E+00 0.  1.
<mgrwt>
<rscale>  0 0.31912590E+04</rscale>
<asrwt>0</asrwt>
<pdfrwt beam="1">  1        2 0.41536627E+00 0.31912590E+04</pdfrwt>
<pdfrwt beam="2">  1       -2 0.14507954E+00 0.31912590E+04</pdfrwt>
<totfact> 0.73203311E-01</totfact>
</mgrwt>
</event>
<event>
 6    1  0.2436515E-005  0.2036263E+04  0.7818608E-02  0.8589852E-01
          2   -1    0    0  501    0  0.00000000000E+00  0.00000000000E+00  0.23934695788E+04  0.23934695788E+04  0.00000000000E+00 0.  1.
         -2   -1    0    0    0  501 -0.00000000000E+00 -0.00000000000E+00 -0.43309168314E+03  0.43309168314E+03  0.00000000000E+00 0. -1.
         23    2    1    2    0    0 -0.44311741149E+03 -0.84345556699E+01  0.22512738756E+04  0.22964248142E+04  0.94385816987E+02 0.  0.
         11    1    3    3    0    0 -0.26039487199E+03 -0.11266837253E+02  0.15483918528E+04  0.15701750733E+04  0.00000000000E+00 0. -1.
        -11    1    3    3    0    0 -0.18272253950E+03  0.28322815832E+01  0.70288202276E+03  0.72624974091E+03  0.00000000000E+00 0.  1.
         22    1    1    2    0    0  0.44311741149E+03  0.84345556699E+01 -0.29089597990E+03  0.53013644773E+03  0.00000000000E+00 0. -1.
<mgrwt>
<rscale>  0 0.20362630E+04</rscale>
<asrwt>0</asrwt>
<pdfrwt beam="1">  1        2 0.36822608E+00 0.20362630E+04</pdfrwt>
<pdfrwt beam="2">  1       -2 0.66629491E-01 0.20362630E+04</pdfrwt>
<totfact> 0.76893131E+00</totfact>
</mgrwt>
</event>
<event>
 6    1  0.2436515E-005  0.2726856E+04  0.7818608E-02  0.8326343E-01
          2   -1    0    0  501    0  0.00000000000E+00  0.00000000000E+00  0.13215368387E+04  0.13215368387E+04  0.00000000000E+00 0.  1.
         -2   -1    0    0    0  501 -0.00000000000E+00 -0.00000000000E+00 -0.14066472720E+04  0.14066472720E+04  0.00000000000E+00 0. -1.
         23    2    1    2    0    0 -0.72177572518E+03  0.11500470184E+04  0.63754654883E+02  0.13622671453E+04  0.90215172727E+02 0.  0.
         11    1    3    3    0    0 -0.62819966336E+03  0.97403337556E+03  0.25703743462E+02  0.11593258887E+04  0.00000000000E+00 0. -1.
        -11    1    3    3    0    0 -0.93576061822E+02  0.17601364279E+03  0.38050911421E+02  0.20294125666E+03  0.00000000000E+00 0.  1.
         22    1    1    2    0    0  0.72177572518E+03 -0.11500470184E+04 -0.14886508815E+03  0.13659169654E+04  0.00000000000E+00 0. -1.
<mgrwt>
<rscale>  0 0.27268562E+04</rscale>
<asrwt>0</asrwt>
<pdfrwt beam="1">  1        2 0.20331336E+00 0.27268562E+04</pdfrwt>
<pdfrwt beam="2">  1       -2 0.21640727E+00 0.27268562E+04</pdfrwt>
<totfact> 0.14646280E+00</totfact>
</mgrwt>
</event>
<event>
 6    1  0.2436515E-005  0.1494037E+04  0.7818608E-02  0.8888428E-01
         -2   -1    0    0    0  501 -0.00000000000E+00  0.00000000000E+00  0.50272343513E+03  0.50272343513E+03  0.00000000000E+00 0. -1.
          2   -1    0    0  501    0  0.00000000000E+00 -0.00000000000E+00 -0.11100276191E+04  0.11100276191E+04  0.00000000000E+00 0.  1.
         23    2    1    2    0    0 -0.35684058188E+03  0.46138050310E+03  0.19443292613E+03  0.62129275293E+03  0.89405551095E+02 0.  0.
         11    1    3    3    0    0 -0.77540777511E+02  0.16766954787E+03  0.57282622556E+02  0.19340875965E+03  0.00000000000E+00 0. -1.
        -11    1    3    3    0    0 -0.27929980437E+03  0.29371095522E+03  0.13715030357E+03  0.42788399328E+03  0.00000000000E+00 0.  1.
         22    1    1    2    0    0  0.35684058188E+03 -0.46138050310E+03 -0.80173711012E+03  0.99145830132E+03  0.00000000000E+00 0.  1.
<mgrwt>
<rscale>  0 0.14940373E+04</rscale>
<asrwt>0</asrwt>
<pdfrwt beam="1">  1        2 0.17077348E+00 0.14940373E+04</pdfrwt>
<pdfrwt beam="2">  1       -2 0.77342067E-01 0.14940373E+04</pdfrwt>
<totfact> 0.30962971E+01</totfact>
</mgrwt>
</event>
<event>
 6    1  0.2436515E-005  0.2975607E+04  0.7818608E-02  0.8250731E-01
          2   -1    0    0  501    0  0.00000000000E+00  0.00000000000E+00  0.20573357991E+04  0.20573357991E+04  0.00000000000E+00 0.  1.
         -2   -1    0    0    0  501 -0.00000000000E+00 -0.00000000000E+00 -0.10759347809E+04  0.10759347809E+04  0.00000000000E+00 0. -1.
         23    2    1    2    0    0  0.66940000579E+03 -0.82503194896E+03 -0.60226271549E+03  0.12262401907E+04  0.11032018071E+03 0.  0.
         11    1    3    3    0    0  0.33427981372E+03 -0.34480321690E+03 -0.23138847475E+03  0.53307867946E+03  0.00000000000E+00 0.  1.
        -11    1    3    3    0    0  0.33512019207E+03 -0.48022873207E+03 -0.37087424074E+03  0.69316151125E+03  0.00000000000E+00 0. -1.
         22    1    1    2    0    0 -0.66940000579E+03  0.82503194896E+03  0.15836637336E+04  0.19070303893E+04  0.00000000000E+00 0.  1.
<mgrwt>
<rscale>  0 0.29756069E+04</rscale>
<asrwt>0</asrwt>
<pdfrwt beam="1">  1        2 0.31651320E+00 0.29756069E+04</pdfrwt>
<pdfrwt beam="2">  1       -2 0.16552843E+00 0.29756069E+04</pdfrwt>
<totfact> 0.12218987E+00</totfact>
</mgrwt>
</event>
<event>
 6    1  0.2436515E-005  0.1367932E+04  0.7818608E-02  0.8977364E-01
         -2   -1    0    0    0  501 -0.00000000000E+00  0.00000000000E+00  0.49697799464E+03  0.49697799464E+03  0.00000000000E+00 0. -1.
          2   -1    0    0  501    0  0.00000000000E+00 -0.00000000000E+00 -0.94130801273E+03  0.94130801273E+03  0.00000000000E+00 0.  1.
         23    2    1    2    0    0  0.39120545802E+03  0.33407856782E+03 -0.69220850878E+03  0.86723964673E+03  0.91114133789E+02 0.  0.
         13    1    3    3    0    0  0.12176145511E+03  0.75739566065E+02 -0.13777971804E+03  0.19886071639E+03  0.00000000000E+00 0. -1.
        -13    1    3    3    0    0  0.26944400291E+03  0.25833900176E+03 -0.55442879073E+03  0.66837893034E+03  0.00000000000E+00 0.  1.
         22    1    1    2    0    0 -0.39120545802E+03 -0.33407856782E+03  0.24787849068E+03  0.57104636064E+03  0.00000000000E+00 0. -1.
<mgrwt>
<rscale>  0 0.13679318E+04</rscale>
<asrwt>0</asrwt>
<pdfrwt beam="1">  1        2 0.14481662E+00 0.13679318E+04</pdfrwt>
<pdfrwt beam="2">  1       -2 0.76458154E-01 0.13679318E+04</pdfrwt>
<totfact> 0.41071808E+01</totfact>
</mgrwt>
</event>
<event>
 6    1  0.2436515E-005  0.1362132E+04  0.7818608E-02  0.8981695E-01
         -2   -1    0    0    0  501 -0.00000000000E+00  0.00000000000E+00  0.42888573454E+03  0.42888573454E+03  0.00000000000E+00 0. -1.
          2   -1    0    0  501    0  0.00000000000E+00 -0.00000000000E+00 -0.10815259701E+04  0.10815259701E+04  0.00000000000E+00 0.  1.
         23    2    1    2    0    0  0.17291813110E+03 -0.35592205748E+03  0.28364420369E+03  0.49394245166E+03  0.83330187822E+02 0.  0.
         13    1    3    3    0    0  0.25599124862E+02 -0.11431686375E+03  0.51676657451E+02  0.12803959332E+03  0.00000000000E+00 0.  1.
        -13    1    3    3    0    0  0.14731900623E+03 -0.24160519373E+03  0.23196754624E+03  0.36590285834E+03  0.00000000000E+00 0. -1.
         22    1    1    2    0    0 -0.17291813110E+03  0.35592205748E+03 -0.93628443924E+03  0.10164692530E+04  0.00000000000E+00 0.  1.
<mgrwt>
<rscale>  0 0.13621322E+04</rscale>
<asrwt>0</asrwt>
<pdfrwt beam="1">  1        2 0.16638861E+00 0.13621322E+04</pdfrwt>
<pdfrwt beam="2">  1       -2 0.65982420E-01 0.13621322E+04</pdfrwt>
<totfact> 0.46148588E+01</totfact>
</mgrwt>
</event>
<event>
 6    1  0.2436515E-005  0.1915284E+04  0.7818608E-02  0.8647286E-01
          1   -1    0    0  501    0  0.00000000000E+00  0.00000000000E+00  0.29016435876E+04  0.29016435876E+04  0.00000000000E+00 0.  1.
         -1   -1    0    0    0  501 -0.00000000000E+00 -0.00000000000E+00 -0.31605461224E+03  0.31605461224E+03  0.00000000000E+00 0. -1.
         23    2    1    2    0    0  0.39130785665E+03 -0.84892600155E+03  0.16233245069E+04  0.18761505480E+04  0.10469589016E+03 0.  0.
         11    1    3    3    0    0  0.12316171249E+03 -0.25481126583E+03  0.39987674573E+03  0.48989692834E+03  0.00000000000E+00 0. -1.
        -11    1    3    3    0    0  0.26814614416E+03 -0.59411473572E+03  0.12234477611E+04  0.13862536197E+04  0.00000000000E+00 0.  1.
         22    1    1    2    0    0 -0.39130785665E+03  0.84892600155E+03  0.96226446846E+03  0.13415476518E+04  0.00000000000E+00 0. -1.
<mgrwt>
<rscale>  0 0.19152836E+04</rscale>
<asrwt>0</asrwt>
<pdfrwt beam="1">  1        1 0.44640669E+00 0.19152836E+04</pdfrwt>
<pdfrwt beam="2">  1       -1 0.48623788E-01 0.19152836E+04</pdfrwt>
<totfact> 0.27920200E+00</totfact>
</mgrwt>
</event>
<event>
 6    1  0.2436515E-005  0.2186381E+04  0.7818608E-02  0.8524118E-01
          2   -1    0    0  501    0  0.00000000000E+00  0.00000000000E+00  0.27520399826E+04  0.27520399826E+04  0.00000000000E+00 0.  1.
         -2   -1    0    0    0  501 -0.00000000000E+00 -0.00000000000E+00 -0.43424728832E+03  0.43424728832E+03  0.00000000000E+00 0. -1.
         23    2    1    2    0    0  0.89515441971E+03 -0.58424068901E+03  0.83556497120E+03  0.13588197224E+04  0.74723484133E+02 0.  0.
         13    1    3    3    0    0  0.73415749975E+03 -0.44365600606E+03  0.66604130835E+03  0.10860151521E+04  0.00000000000E+00 0.  1.
        -13    1    3    3    0    0  0.16099691996E+03 -0.14058468294E+03  0.16952366285E+03  0.27280457031E+03  0.00000000000E+00 0. -1.
         22    1    1    2    0    0 -0.89515441971E+03  0.58424068901E+03  0.14822277231E+04  0.18274675485E+04  0.00000000000E+00 0.  1.
<mgrwt>
<rscale>  0 0.21863814E+04</rscale>
<asrwt>0</asrwt>
<pdfrwt beam="1">  1        2 0.42339075E+00 0.21863814E+04</pdfrwt>
<pdfrwt beam="2">  1       -2 0.66807277E-01 0.21863814E+04</pdfrwt>
<totfact> 0.46566952E+00</totfact>
</mgrwt>
</event>
<event>
 6    1  0.2436515E-005  0.3129678E+04  0.7818608E-02  0.8207640E-01
          2   -1    0    0  501    0  0.00000000000E+00  0.00000000000E+00  0.23208386461E+04  0.23208386461E+04  0.00000000000E+00 0.  1.
         -2   -1    0    0    0  501 -0.00000000000E+00 -0.00000000000E+00 -0.10551018522E+04  0.10551018522E+04  0.00000000000E+00 0. -1.
         23    2    1    2    0    0 -0.12347847494E+04  0.60980259799E+03 -0.16496117733E+03  0.13901285055E+04  0.93233501508E+02 0.  0.
         11    1    3    3    0    0 -0.96127156327E+03  0.43380385246E+03 -0.14090655813E+03  0.10639941066E+04  0.00000000000E+00 0.  1.
        -11    1    3    3    0    0 -0.27351318615E+03  0.17599874552E+03 -0.24054619203E+02  0.32613439887E+03  0.00000000000E+00 0. -1.
         22    1    1    2    0    0  0.12347847494E+04 -0.60980259799E+03  0.14306979712E+04  0.19858119928E+04  0.00000000000E+00 0. -1.
<mgrwt>
<rscale>  0 0.31296780E+04</rscale>
<asrwt>0</asrwt>
<pdfrwt beam="1">  1        2 0.35705210E+00 0.31296780E+04</pdfrwt>
<pdfrwt beam="2">  1       -2 0.16232336E+00 0.31296780E+04</pdfrwt>
<totfact> 0.90475058E-01</totfact>
</mgrwt>
</event>
<event>
 6    1  0.2436515E-005  0.2651947E+04  0.7818608E-02  0.8350767E-01
          2   -1    0    0  501    0  0.00000000000E+00  0.00000000000E+00  0.91918453280E+03  0.91918453280E+03  0.00000000000E+00 0.  1.
         -2   -1    0    0    0  501 -0.00000000000E+00 -0.00000000000E+00 -0.19127891995E+04  0.19127891995E+04  0.00000000000E+00 0. -1.
         23    2    1    2    0    0  0.23117528690E+03  0.11519653018E+04 -0.11500643041E+04  0.16466696836E+04  0.91690094983E+02 0.  0.
         11    1    3    3    0    0  0.22682582810E+03  0.10180257929E+04 -0.99150948424E+03  0.14390682849E+04  0.00000000000E+00 0.  1.
        -11    1    3    3    0    0  0.43494588034E+01  0.13393950884E+03 -0.15855481990E+03  0.20760139868E+03  0.00000000000E+00 0. -1.
         22    1    1    2    0    0 -0.23117528690E+03 -0.11519653018E+04  0.15645963739E+03  0.11853040487E+04  0.00000000000E+00 0.  1.
<mgrwt>
<rscale>  0 0.26519474E+04</rscale>
<asrwt>0</asrwt>
<pdfrwt beam="1">  1        2 0.14141301E+00 0.26519474E+04</pdfrwt>
<pdfrwt beam="2">  1       -2 0.29427526E+00 0.26519474E+04</pdfrwt>
<totfact> 0.86370297E-01</totfact>
</mgrwt>
</event>
<event>
 6    1  0.2436515E-005  0.2729109E+04  0.7818608E-02  0.8325622E-01
         -2   -1    0    0    0  501 -0.00000000000E+00  0.00000000000E+00  0.64422344816E+03  0.64422344816E+03  0.00000000000E+00 0. -1.
          2   -1    0    0  501    0  0.00000000000E+00 -0.00000000000E+00 -0.28903145832E+04  0.28903145832E+04  0.00000000000E+00 0.  1.
         23    2    1    2    0    0 -0.86451081581E+03  0.62479212377E+03 -0.25311884899E+02  0.10708812723E+04  0.91661656532E+02 0.  0.
         11    1    3    3    0    0 -0.51325159981E+03  0.40331531149E+03 -0.51633174410E+02  0.65479495255E+03  0.00000000000E+00 0. -1.
        -11    1    3    3    0    0 -0.35125921600E+03  0.22147681228E+03  0.26321289512E+02  0.41608631975E+03  0.00000000000E+00 0.  1.
         22    1    1    2    0    0  0.86451081581E+03 -0.62479212377E+03 -0.22207792501E+04  0.24636567590E+04  0.00000000000E+00 0.  1.
<mgrwt>
<rscale>  0 0.27291086E+04</rscale>
<asrwt>0</asrwt>
<pdfrwt beam="1">  1        2 0.44466379E+00 0.27291086E+04</pdfrwt>
<pdfrwt beam="2">  1       -2 0.99111298E-01 0.27291086E+04</pdfrwt>
<totfact> 0.15034325E+00</totfact>
</mgrwt>
</event>
<event>
 6    1  0.2436515E-005  0.8444269E+03  0.7818608E-02  0.9497848E-01
          2   -1    0    0  501    0  0.00000000000E+00  0.00000000000E+00  0.30254478372E+04  0.30254478372E+04  0.00000000000E+00 0.  1.
         -2   -1    0    0    0  501 -0.00000000000E+00 -0.00000000000E+00 -0.58921589480E+02  0.58921589480E+02  0.00000000000E+00 0. -1.
         23    2    1    2    0    0  0.12663725961E+03  0.10521927670E+03  0.29011418271E+04  0.29072163455E+04  0.90415081635E+02 0.  0.
         13    1    3    3    0    0  0.12007422062E+03  0.61891776991E+02  0.17347962190E+04  0.17400477959E+04  0.00000000000E+00 0.  1.
        -13    1    3    3    0    0  0.65630389876E+01  0.43327499713E+02  0.11663456081E+04  0.11671685496E+04  0.00000000000E+00 0. -1.
         22    1    1    2    0    0 -0.12663725961E+03 -0.10521927670E+03  0.65384420645E+02  0.17715308119E+03  0.00000000000E+00 0. -1.
<mgrwt>
<rscale>  0 0.84442690E+03</rscale>
<asrwt>0</asrwt>
<pdfrwt beam="1">  1        2 0.46545339E+00 0.84442690E+03</pdfrwt>
<pdfrwt beam="2">  1       -2 0.90648623E-02 0.84442690E+03</pdfrwt>
<totfact> 0.14112957E+02</totfact>
</mgrwt>
</event>
<event>
 6    1  0.2436515E-005  0.2516076E+04  0.7818608E-02  0.8397281E-01
         -2   -1    0    0    0  501 -0.00000000000E+00  0.00000000000E+00  0.65046545420E+03  0.65046545420E+03  0.00000000000E+00 0. -1.
          2   -1    0    0  501    0  0.00000000000E+00 -0.00000000000E+00 -0.24331189200E+04  0.24331189200E+04  0.00000000000E+00 0.  1.
         23    2    1    2    0    0 -0.11519625466E+04  0.20143105621E+03 -0.32958878024E+03  0.12183795170E+04  0.90706693154E+02 0.  0.
         11    1    3    3    0    0 -0.40661584019E+03  0.85281499428E+02 -0.16001281648E+03  0.44521172163E+03  0.00000000000E+00 0. -1.
        -11    1    3    3    0    0 -0.74534670637E+03  0.11614955678E+03 -0.16957596376E+03  0.77316779533E+03  0.00000000000E+00 0.  1.
         22    1    1    2    0    0  0.11519625466E+04 -0.20143105621E+03 -0.14530646856E+04  0.18652048573E+04  0.00000000000E+00 0.  1.
<mgrwt>
<rscale>  0 0.25160762E+04</rscale>
<asrwt>0</asrwt>
<pdfrwt beam="1">  1        2 0.37432599E+00 0.25160762E+04</pdfrwt>
<pdfrwt beam="2">  1       -2 0.10007161E+00 0.25160762E+04</pdfrwt>
<totfact> 0.27942695E+00</totfact>
</mgrwt>
</event>
<event>
 6    1  0.2436515E-005  0.2838389E+04  0.7818608E-02  0.8291448E-01
         -2   -1    0    0    0  501 -0.00000000000E+00  0.00000000000E+00  0.81051088981E+03  0.81051088981E+03  0.00000000000E+00 0. -1.
          2   -1    0    0  501    0  0.00000000000E+00 -0.00000000000E+00 -0.24849914221E+04  0.24849914221E+04  0.00000000000E+00 0.  1.
         23    2    1    2    0    0  0.20406647025E+03  0.13993248540E+04 -0.95494902978E+03  0.17088458417E+04  0.92050475850E+02 0.  0.
         11    1    3    3    0    0  0.89481428357E+02  0.80202071792E+03 -0.50027063436E+03  0.94948136664E+03  0.00000000000E+00 0. -1.
        -11    1    3    3    0    0  0.11458504189E+03  0.59730413605E+03 -0.45467839542E+03  0.75936447509E+03  0.00000000000E+00 0.  1.
         22    1    1    2    0    0 -0.20406647025E+03 -0.13993248540E+04 -0.71953150247E+03  0.15866564701E+04  0.00000000000E+00 0. -1.
<mgrwt>
<rscale>  0 0.28383887E+04</rscale>
<asrwt>0</asrwt>
<pdfrwt beam="1">  1        2 0.38230637E+00 0.28383887E+04</pdfrwt>
<pdfrwt beam="2">  1       -2 0.12469398E+00 0.28383887E+04</pdfrwt>
<totfact> 0.14859398E+00</totfact>
</mgrwt>
</event>
<event>
 6    1  0.2436515E-005  0.4258047E+04  0.7818608E-02  0.7954421E-01
         -2   -1    0    0    0  501 -0.00000000000E+00  0.00000000000E+00  0.24945143804E+04  0.24945143804E+04  0.00000000000E+00 0. -1.
          2   -1    0    0  501    0  0.00000000000E+00 -0.00000000000E+00 -0.18170833506E+04  0.18170833506E+04  0.00000000000E+00 0.  1.
         23    2    1    2    0    0  0.17181442627E+04 -0.88114721847E+03  0.12446998906E+04  0.22990783923E+04  0.89685609522E+02 0.  0.
         13    1    3    3    0    0  0.63687542147E+03 -0.35850965794E+03  0.51029547404E+03  0.89137026433E+03  0.00000000000E+00 0. -1.
        -13    1    3    3    0    0  0.10812688412E+04 -0.52263756053E+03  0.73440441652E+03  0.14077081280E+04  0.00000000000E+00 0.  1.
         22    1    1    2    0    0 -0.17181442627E+04  0.88114721847E+03 -0.56726886073E+03  0.20125193386E+04  0.00000000000E+00 0.  1.
<mgrwt>
<rscale>  0 0.42580468E+04</rscale>
<asrwt>0</asrwt>
<pdfrwt beam="1">  1        2 0.27955128E+00 0.42580468E+04</pdfrwt>
<pdfrwt beam="2">  1       -2 0.38377144E+00 0.42580468E+04</pdfrwt>
<totfact> 0.61731067E-02</totfact>
</mgrwt>
</event>
<event>
 6    1  0.2436515E-005  0.2341766E+04  0.7818608E-02  0.8461633E-01
          2   -1    0    0  501    0  0.00000000000E+00  0.00000000000E+00  0.40344113727E+04  0.40344113727E+04  0.00000000000E+00 0.  1.
         -2   -1    0    0    0  501 -0.00000000000E+00 -0.00000000000E+00 -0.33981830068E+03  0.33981830068E+03  0.00000000000E+00 0. -1.
         23    2    1    2    0    0  0.27994362852E+02 -0.11108681672E+04  0.11716709046E+04  0.16174293483E+04  0.91941388793E+02 0.  0.
         11    1    3    3    0    0 -0.10512560945E+02 -0.89460954643E+03  0.96285480307E+03  0.13143538817E+04  0.00000000000E+00 0.  1.
        -11    1    3    3    0    0  0.38506923797E+02 -0.21625862076E+03  0.20881610151E+03  0.30307546665E+03  0.00000000000E+00 0. -1.
         22    1    1    2    0    0 -0.27994362852E+02  0.11108681672E+04  0.25229221675E+04  0.27568003251E+04  0.00000000000E+00 0.  1.
<mgrwt>
<rscale>  0 0.23417658E+04</rscale>
<asrwt>0</asrwt>
<pdfrwt beam="1">  1        2 0.62067864E+00 0.23417658E+04</pdfrwt>
<pdfrwt beam="2">  1       -2 0.52279742E-01 0.23417658E+04</pdfrwt>
<totfact> 0.10062880E+00</totfact>
</mgrwt>
</event>
<event>
 6    1  0.2436515E-005  0.3015302E+04  0.7818608E-02  0.8239375E-01
         -2   -1    0    0    0  501 -0.00000000000E+00  0.00000000000E+00  0.11862149077E+04  0.11862149077E+04  0.00000000000E+00 0. -1.
          2   -1    0    0  501    0  0.00000000000E+00 -0.00000000000E+00 -0.19161886044E+04  0.19161886044E+04  0.00000000000E+00 0.  1.
         23    2    1    2    0    0 -0.59657689585E+03 -0.48260822415E+03  0.96809667922E+03  0.12390040133E+04  0.95420511277E+02 0.  0.
         11    1    3    3    0    0 -0.48092229131E+03 -0.37864166547E+03  0.70746411375E+03  0.93550052557E+03  0.00000000000E+00 0.  1.
        -11    1    3    3    0    0 -0.11565460453E+03 -0.10396655868E+03  0.26063256548E+03  0.30350348773E+03  0.00000000000E+00 0. -1.
         22    1    1    2    0    0  0.59657689585E+03  0.48260822415E+03 -0.16980703759E+04  0.18633994988E+04  0.00000000000E+00 0.  1.
<mgrwt>
<rscale>  0 0.30153020E+04</rscale>
<asrwt>0</asrwt>
<pdfrwt beam="1">  1        2 0.29479825E+00 0.30153020E+04</pdfrwt>
<pdfrwt beam="2">  1       -2 0.18249460E+00 0.30153020E+04</pdfrwt>
<totfact> 0.11084379E+00</totfact>
</mgrwt>
</event>
<event>
 6    1  0.2436515E-005  0.2170039E+04  0.7818608E-02  0.8531003E-01
          2   -1    0    0  501    0  0.00000000000E+00  0.00000000000E+00  0.13142729887E+04  0.13142729887E+04  0.00000000000E+00 0.  1.
         -2   -1    0    0    0  501 -0.00000000000E+00 -0.00000000000E+00 -0.89575521484E+03  0.89575521484E+03  0.00000000000E+00 0. -1.
         23    2    1    2    0    0  0.10197982475E+04  0.18385142380E+03 -0.11112904726E+03  0.10462775572E+04  0.92505405045E+02 0.  0.
         13    1    3    3    0    0  0.46694286741E+03  0.12496039809E+03 -0.74585001665E+02  0.48909474030E+03  0.00000000000E+00 0.  1.
        -13    1    3    3    0    0  0.55285538011E+03  0.58891025714E+02 -0.36544045598E+02  0.55718281695E+03  0.00000000000E+00 0. -1.
         22    1    1    2    0    0 -0.10197982475E+04 -0.18385142380E+03  0.52964682115E+03  0.11637506463E+04  0.00000000000E+00 0.  1.
<mgrwt>
<rscale>  0 0.21700386E+04</rscale>
<asrwt>0</asrwt>
<pdfrwt beam="1">  1        2 0.20219585E+00 0.21700386E+04</pdfrwt>
<pdfrwt beam="2">  1       -2 0.13780849E+00 0.21700386E+04</pdfrwt>
<totfact> 0.55611199E+00</totfact>
</mgrwt>
</event>
<event>
 6    1  0.2436515E-005  0.2004340E+04  0.7818608E-02  0.8604594E-01
          2   -1    0    0  501    0  0.00000000000E+00  0.00000000000E+00  0.15204830214E+04  0.15204830214E+04  0.00000000000E+00 0.  1.
         -2   -1    0    0    0  501 -0.00000000000E+00 -0.00000000000E+00 -0.66054291212E+03  0.66054291212E+03  0.00000000000E+00 0. -1.
         23    2    1    2    0    0  0.39626686429E+03 -0.16063770073E+03  0.14145328331E+04  0.14807367162E+04  0.94054176784E+02 0.  0.
         13    1    3    3    0    0  0.21553358196E+03 -0.13436701280E+03  0.76837205682E+03  0.80926190864E+03  0.00000000000E+00 0. -1.
        -13    1    3    3    0    0  0.18073328233E+03 -0.26270687932E+02  0.64616077629E+03  0.67147480757E+03  0.00000000000E+00 0.  1.
         22    1    1    2    0    0 -0.39626686429E+03  0.16063770073E+03 -0.55459272379E+03  0.70028921733E+03  0.00000000000E+00 0. -1.
<mgrwt>
<rscale>  0 0.20043396E+04</rscale>
<asrwt>0</asrwt>
<pdfrwt beam="1">  1        2 0.23392046E+00 0.20043396E+04</pdfrwt>
<pdfrwt beam="2">  1       -2 0.10162199E+00 0.20043396E+04</pdfrwt>
<totfact> 0.91266370E+00</totfact>
</mgrwt>
</event>
<event>
 6    1  0.2436515E-005  0.4022868E+04  0.7818608E-02  0.7999949E-01
         -2   -1    0    0    0  501 -0.00000000000E+00  0.00000000000E+00  0.29064107119E+04  0.29064107119E+04  0.00000000000E+00 0. -1.
          2   -1    0    0  501    0  0.00000000000E+00 -0.00000000000E+00 -0.13920492394E+04  0.13920492394E+04  0.00000000000E+00 0.  1.
         23    2    1    2    0    0  0.85347733348E+03  0.17756764557E+04  0.11856523013E+04  0.23010866379E+04  0.88192410689E+02 0.  0.
         11    1    3    3    0    0  0.31170065443E+03  0.74645817297E+03  0.47587453226E+03  0.93851674062E+03  0.00000000000E+00 0.  1.
        -11    1    3    3    0    0  0.54177667905E+03  0.10292182827E+04  0.70977776905E+03  0.13625698973E+04  0.00000000000E+00 0. -1.
         22    1    1    2    0    0 -0.85347733348E+03 -0.17756764557E+04  0.32870917122E+03  0.19973733135E+04  0.00000000000E+00 0.  1.
<mgrwt>
<rscale>  0 0.40228680E+04</rscale>
<asrwt>0</asrwt>
<pdfrwt beam="1">  1        2 0.21416142E+00 0.40228680E+04</pdfrwt>
<pdfrwt beam="2">  1       -2 0.44714011E+00 0.40228680E+04</pdfrwt>
<totfact> 0.41745058E-02</totfact>
</mgrwt>
</event>
<event>
 6    1  0.2436515E-005  0.3387791E+04  0.7818608E-02  0.8140909E-01
         -2   -1    0    0    0  501 -0.00000000000E+00  0.00000000000E+00  0.82589337085E+03  0.82589337085E+03  0.00000000000E+00 0. -1.
          2   -1    0    0  501    0  0.00000000000E+00 -0.00000000000E+00 -0.34741550353E+04  0.34741550353E+04  0.00000000000E+00 0.  1.
         23    2    1    2    0    0  0.12455998714E+04 -0.55522918646E+03 -0.52384636558E+02  0.13677496436E+04  0.90534238333E+02 0.  0.
         13    1    3    3    0    0  0.54349971813E+03 -0.23816911177E+03  0.21954446618E+02  0.59380002285E+03  0.00000000000E+00 0.  1.
        -13    1    3    3    0    0  0.70210015324E+03 -0.31706007470E+03 -0.74339083176E+02  0.77394962073E+03  0.00000000000E+00 0. -1.
         22    1    1    2    0    0 -0.12455998714E+04  0.55522918646E+03 -0.25958770279E+04  0.29322987626E+04  0.00000000000E+00 0.  1.
<mgrwt>
<rscale>  0 0.33877908E+04</rscale>
<asrwt>0</asrwt>
<pdfrwt beam="1">  1        2 0.53448539E+00 0.33877908E+04</pdfrwt>
<pdfrwt beam="2">  1       -2 0.12706052E+00 0.33877908E+04</pdfrwt>
<totfact> 0.32290940E-01</totfact>
</mgrwt>
</event>
<event>
 6    1  0.2436515E-005  0.7583361E+03  0.7818608E-02  0.9622362E-01
         -2   -1    0    0    0  501 -0.00000000000E+00  0.00000000000E+00  0.24721136335E+03  0.24721136335E+03  0.00000000000E+00 0. -1.
          2   -1    0    0  501    0  0.00000000000E+00 -0.00000000000E+00 -0.58156062240E+03  0.58156062240E+03  0.00000000000E+00 0.  1.
         23    2    1    2    0    0 -0.13367020935E+03 -0.34815729970E+03 -0.15108244338E+03  0.41323864661E+03  0.94122495447E+02 0.  0.
         11    1    3    3    0    0 -0.56950964048E+02 -0.16364746873E+03 -0.12057817688E+03  0.21109950987E+03  0.00000000000E+00 0.  1.
        -11    1    3    3    0    0 -0.76719245305E+02 -0.18450983098E+03 -0.30504266492E+02  0.20213913674E+03  0.00000000000E+00 0. -1.
         22    1    1    2    0    0  0.13367020935E+03  0.34815729970E+03 -0.18326681568E+03  0.41553333914E+03  0.00000000000E+00 0. -1.
<mgrwt>
<rscale>  0 0.75833606E+03</rscale>
<asrwt>0</asrwt>
<pdfrwt beam="1">  1        2 0.89470864E-01 0.75833606E+03</pdfrwt>
<pdfrwt beam="2">  1       -2 0.38032518E-01 0.75833606E+03</pdfrwt>
<totfact> 0.33835042E+02</totfact>
</mgrwt>
</event>
<event>
 6    1  0.2436515E-005  0.1585719E+04  0.7818608E-02  0.8829370E-01
          2   -1    0    0  501    0  0.00000000000E+00  0.00000000000E+00  0.26229132526E+04  0.26229132526E+04  0.00000000000E+00 0.  1.
         -2   -1    0    0    0  501 -0.00000000000E+00 -0.00000000000E+00 -0.23966724241E+03  0.23966724241E+03  0.00000000000E+00 0. -1.
         23    2    1    2    0    0 -0.74319209388E+03 -0.18504082149E+03  0.15478258936E+04  0.17292220498E+04  0.88709113254E+02 0.  0.
         11    1    3    3    0    0 -0.54149932635E+03 -0.16408418178E+03  0.11974374883E+04  0.13243872838E+04  0.00000000000E+00 0. -1.
        -11    1    3    3    0    0 -0.20169276753E+03 -0.20956639714E+02  0.35038840525E+03  0.40483476599E+03  0.00000000000E+00 0.  1.
         22    1    1    2    0    0  0.74319209388E+03  0.18504082149E+03  0.83542011662E+03  0.11333584452E+04  0.00000000000E+00 0. -1.
<mgrwt>
<rscale>  0 0.15857193E+04</rscale>
<asrwt>0</asrwt>
<pdfrwt beam="1">  1        2 0.40352509E+00 0.15857193E+04</pdfrwt>
<pdfrwt beam="2">  1       -2 0.36871885E-01 0.15857193E+04</pdfrwt>
<totfact> 0.19685808E+01</totfact>
</mgrwt>
</event>
<event>
 6    1  0.2436515E-005  0.2078361E+04  0.7818608E-02  0.8570836E-01
          1   -1    0    0  501    0  0.00000000000E+00  0.00000000000E+00  0.51178423737E+03  0.51178423737E+03  0.00000000000E+00 0.  1.
         -1   -1    0    0    0  501 -0.00000000000E+00 -0.00000000000E+00 -0.21100612676E+04  0.21100612676E+04  0.00000000000E+00 0. -1.
         23    2    1    2    0    0  0.29010398343E+03  0.97349877496E+03 -0.10649481571E+04  0.14745443793E+04  0.91139252005E+02 0.  0.
         13    1    3    3    0    0  0.25270930007E+03  0.71151108636E+03 -0.80082248795E+03  0.11006482969E+04  0.00000000000E+00 0. -1.
        -13    1    3    3    0    0  0.37394683360E+02  0.26198768860E+03 -0.26412566912E+03  0.37389608237E+03  0.00000000000E+00 0.  1.
         22    1    1    2    0    0 -0.29010398343E+03 -0.97349877496E+03 -0.53332887320E+03  0.11473011257E+04  0.00000000000E+00 0.  1.
<mgrwt>
<rscale>  0 0.20783610E+04</rscale>
<asrwt>0</asrwt>
<pdfrwt beam="1">  1        1 0.78736037E-01 0.20783610E+04</pdfrwt>
<pdfrwt beam="2">  1       -1 0.32462481E+00 0.20783610E+04</pdfrwt>
<totfact> 0.90352495E-01</totfact>
</mgrwt>
</event>
<event>
 6    1  0.2436515E-005  0.5100247E+04  0.7818608E-02  0.7813227E-01
         -2   -1    0    0    0  501 -0.00000000000E+00  0.00000000000E+00  0.20282260122E+04  0.20282260122E+04  0.00000000000E+00 0.  1.
          2   -1    0    0  501    0  0.00000000000E+00 -0.00000000000E+00 -0.32063145592E+04  0.32063145592E+04  0.00000000000E+00 0. -1.
         23    2    1    2    0    0 -0.60743087003E+03 -0.86517405028E+02  0.19504389542E+04  0.20464154408E+04  0.84537085942E+02 0.  0.
         13    1    3    3    0    0 -0.42036754357E+03 -0.39685215167E+02  0.12223254765E+04  0.12931988859E+04  0.00000000000E+00 0. -1.
        -13    1    3    3    0    0 -0.18706332646E+03 -0.46832189861E+02  0.72811347774E+03  0.75321655490E+03  0.00000000000E+00 0.  1.
         22    1    1    2    0    0  0.60743087003E+03  0.86517405028E+02 -0.31285275012E+04  0.31881251307E+04  0.00000000000E+00 0. -1.
<mgrwt>
<rscale>  0 0.51002473E+04</rscale>
<asrwt>0</asrwt>
<pdfrwt beam="1">  1        2 0.49327916E+00 0.51002473E+04</pdfrwt>
<pdfrwt beam="2">  1       -2 0.31203478E+00 0.51002473E+04</pdfrwt>
<totfact> 0.24849831E-02</totfact>
</mgrwt>
</event>
<event>
 6    1  0.2436515E-005  0.7060572E+03  0.7818608E-02  0.9706929E-01
         -2   -1    0    0    0  501 -0.00000000000E+00  0.00000000000E+00  0.10489747563E+03  0.10489747563E+03  0.00000000000E+00 0. -1.
          2   -1    0    0  501    0  0.00000000000E+00 -0.00000000000E+00 -0.11881046364E+04  0.11881046364E+04  0.00000000000E+00 0.  1.
         23    2    1    2    0    0 -0.24307021547E+03  0.24348958571E+03 -0.61215736545E+03  0.70968554474E+03  0.10269675915E+03 0.  0.
         11    1    3    3    0    0 -0.12663245176E+03  0.59990360470E+02 -0.20785736843E+03  0.25067769505E+03  0.00000000000E+00 0. -1.
        -11    1    3    3    0    0 -0.11643776371E+03  0.18349922524E+03 -0.40429999703E+03  0.45900784969E+03  0.00000000000E+00 0.  1.
         22    1    1    2    0    0  0.24307021547E+03 -0.24348958571E+03 -0.47104979527E+03  0.58331656725E+03  0.00000000000E+00 0.  1.
<mgrwt>
<rscale>  0 0.70605716E+03</rscale>
<asrwt>0</asrwt>
<pdfrwt beam="1">  1        2 0.18278533E+00 0.70605716E+03</pdfrwt>
<pdfrwt beam="2">  1       -2 0.16138073E-01 0.70605716E+03</pdfrwt>
<totfact> 0.60111671E+02</totfact>
</mgrwt>
</event>
<event>
 6    1  0.2436515E-005  0.1084884E+04  0.7818608E-02  0.9220051E-01
          3   -1    0    0  501    0  0.00000000000E+00  0.00000000000E+00  0.55953012015E+03  0.55953012015E+03  0.00000000000E+00 0. -1.
         -3   -1    0    0    0  501 -0.00000000000E+00 -0.00000000000E+00 -0.52587592321E+03  0.52587592321E+03  0.00000000000E+00 0.  1.
         23    2    1    2    0    0 -0.24862179094E+03  0.35919756074E+03  0.33263587937E+03  0.55604253026E+03  0.87755254180E+02 0.  0.
         13    1    3    3    0    0 -0.12293523980E+03  0.14144386707E+03  0.19048939333E+03  0.26721835582E+03  0.00000000000E+00 0. -1.
        -13    1    3    3    0    0 -0.12568655114E+03  0.21775369367E+03  0.14214648604E+03  0.28882417444E+03  0.00000000000E+00 0.  1.
         22    1    1    2    0    0  0.24862179094E+03 -0.35919756074E+03 -0.29898168243E+03  0.52936351310E+03  0.00000000000E+00 0.  1.
<mgrwt>
<rscale>  0 0.10848842E+04</rscale>
<asrwt>0</asrwt>
<pdfrwt beam="1">  1        3 0.86081557E-01 0.10848842E+04</pdfrwt>
<pdfrwt beam="2">  1       -3 0.80903988E-01 0.10848842E+04</pdfrwt>
<totfact> 0.45603049E+00</totfact>
</mgrwt>
</event>
<event>
 6    1  0.2436515E-005  0.4035084E+04  0.7818608E-02  0.7997506E-01
          2   -1    0    0  501    0  0.00000000000E+00  0.00000000000E+00  0.34158499108E+04  0.34158499108E+04  0.00000000000E+00 0.  1.
         -2   -1    0    0    0  501 -0.00000000000E+00 -0.00000000000E+00 -0.11916435104E+04  0.11916435104E+04  0.00000000000E+00 0. -1.
         23    2    1    2    0    0 -0.62609708654E+03  0.19071823196E+04  0.13323451050E+04  0.24109601224E+04  0.90792462289E+02 0.  0.
         11    1    3    3    0    0 -0.38608477757E+03  0.10341624561E+04  0.74280461031E+03  0.13305307701E+04  0.00000000000E+00 0. -1.
        -11    1    3    3    0    0 -0.24001230898E+03  0.87301986353E+03  0.58954049468E+03  0.10804293524E+04  0.00000000000E+00 0.  1.
         22    1    1    2    0    0  0.62609708654E+03 -0.19071823196E+04  0.89186129541E+03  0.21965332987E+04  0.00000000000E+00 0. -1.
<mgrwt>
<rscale>  0 0.40350838E+04</rscale>
<asrwt>0</asrwt>
<pdfrwt beam="1">  1        2 0.52551537E+00 0.40350838E+04</pdfrwt>
<pdfrwt beam="2">  1       -2 0.18332977E+00 0.40350838E+04</pdfrwt>
<totfact> 0.12562478E-01</totfact>
</mgrwt>
</event>
<event>
 6    1  0.2436515E-005  0.3421784E+04  0.7818608E-02  0.8132580E-01
         -2   -1    0    0    0  501 -0.00000000000E+00  0.00000000000E+00  0.22360898081E+04  0.22360898081E+04  0.00000000000E+00 0. -1.
          2   -1    0    0  501    0  0.00000000000E+00 -0.00000000000E+00 -0.13090493892E+04  0.13090493892E+04  0.00000000000E+00 0.  1.
         23    2    1    2    0    0 -0.18301442400E+02 -0.37458203802E+03 -0.12640681132E+04  0.13221674823E+04  0.98040861643E+02 0.  0.
         13    1    3    3    0    0 -0.33611848810E+02 -0.17567656724E+03 -0.74274706070E+03  0.76397984845E+03  0.00000000000E+00 0. -1.
        -13    1    3    3    0    0  0.15310406410E+02 -0.19890547078E+03 -0.52132105248E+03  0.55818763387E+03  0.00000000000E+00 0.  1.
         22    1    1    2    0    0  0.18301442400E+02  0.37458203802E+03  0.21911085321E+04  0.22229717150E+04  0.00000000000E+00 0. -1.
<mgrwt>
<rscale>  0 0.34217843E+04</rscale>
<asrwt>0</asrwt>
<pdfrwt beam="1">  1        2 0.20139221E+00 0.34217843E+04</pdfrwt>
<pdfrwt beam="2">  1       -2 0.34401382E+00 0.34217843E+04</pdfrwt>
<totfact> 0.22908102E-01</totfact>
</mgrwt>
</event>
<event>
 6    1  0.2436515E-005  0.3548566E+04  0.7818608E-02  0.8102376E-01
         -2   -1    0    0    0  501 -0.00000000000E+00  0.00000000000E+00  0.10966364910E+04  0.10966364910E+04  0.00000000000E+00 0. -1.
          2   -1    0    0  501    0  0.00000000000E+00 -0.00000000000E+00 -0.28706695885E+04  0.28706695885E+04  0.00000000000E+00 0.  1.
         23    2    1    2    0    0  0.51830443360E+03  0.65244822265E+03 -0.26373880582E+04  0.27674269367E+04  0.92238339391E+02 0.  0.
         13    1    3    3    0    0  0.16795738117E+03  0.15402738665E+03 -0.78641785278E+03  0.81877173675E+03  0.00000000000E+00 0.  1.
        -13    1    3    3    0    0  0.35034705243E+03  0.49842083600E+03 -0.18509702054E+04  0.19486551999E+04  0.00000000000E+00 0. -1.
         22    1    1    2    0    0 -0.51830443360E+03 -0.65244822265E+03  0.86335496071E+03  0.11998791428E+04  0.00000000000E+00 0. -1.
<mgrwt>
<rscale>  0 0.35485665E+04</rscale>
<asrwt>0</asrwt>
<pdfrwt beam="1">  1        2 0.44164147E+00 0.35485665E+04</pdfrwt>
<pdfrwt beam="2">  1       -2 0.16871331E+00 0.35485665E+04</pdfrwt>
<totfact> 0.37293023E-01</totfact>
</mgrwt>
</event>
<event>
 6    1  0.2436515E-005  0.1544271E+04  0.7818608E-02  0.8855536E-01
          2   -1    0    0  501    0  0.00000000000E+00  0.00000000000E+00  0.49193928265E+03  0.49193928265E+03  0.00000000000E+00 0.  1.
         -2   -1    0    0    0  501 -0.00000000000E+00 -0.00000000000E+00 -0.12119238614E+04  0.12119238614E+04  0.00000000000E+00 0. -1.
         23    2    1    2    0    0 -0.70021561605E+03 -0.19606370946E+03 -0.63870916200E+03  0.97218795618E+03  0.91962717371E+02 0.  0.
         13    1    3    3    0    0 -0.13856989261E+03 -0.10717409452E+02 -0.91221472866E+02  0.16624630858E+03  0.00000000000E+00 0.  1.
        -13    1    3    3    0    0 -0.56164572344E+03 -0.18534630001E+03 -0.54748768914E+03  0.80594164760E+03  0.00000000000E+00 0. -1.
         22    1    1    2    0    0  0.70021561605E+03  0.19606370946E+03 -0.81275416704E+02  0.73167518783E+03  0.00000000000E+00 0.  1.
<mgrwt>
<rscale>  0 0.15442706E+04</rscale>
<asrwt>0</asrwt>
<pdfrwt beam="1">  1        2 0.75682968E-01 0.15442706E+04</pdfrwt>
<pdfrwt beam="2">  1       -2 0.18644982E+00 0.15442706E+04</pdfrwt>
<totfact> 0.98877251E+00</totfact>
</mgrwt>
</event>
<event>
 6    1  0.2436515E-005  0.2986203E+04  0.7818608E-02  0.8247682E-01
          2   -1    0    0  501    0  0.00000000000E+00  0.00000000000E+00  0.29699444277E+04  0.29699444277E+04  0.00000000000E+00 0.  1.
         -2   -1    0    0    0  501 -0.00000000000E+00 -0.00000000000E+00 -0.75063769675E+03  0.75063769675E+03  0.00000000000E+00 0. -1.
         23    2    1    2    0    0 -0.28207830209E+02  0.13391581906E+04  0.29185947820E+03  0.13734150547E+04  0.83346363486E+02 0.  0.
         13    1    3    3    0    0 -0.41959113730E+02  0.48135862706E+03  0.13004608298E+03  0.50037853548E+03  0.00000000000E+00 0. -1.
        -13    1    3    3    0    0  0.13751283521E+02  0.85779956356E+03  0.16181339522E+03  0.87303651923E+03  0.00000000000E+00 0.  1.
         22    1    1    2    0    0  0.28207830209E+02 -0.13391581906E+04  0.19274472528E+04  0.23471670698E+04  0.00000000000E+00 0.  1.
<mgrwt>
<rscale>  0 0.29862031E+04</rscale>
<asrwt>0</asrwt>
<pdfrwt beam="1">  1        2 0.45691452E+00 0.29862031E+04</pdfrwt>
<pdfrwt beam="2">  1       -2 0.11548272E+00 0.29862031E+04</pdfrwt>
<totfact> 0.90888946E-01</totfact>
</mgrwt>
</event>
<event>
 6    1  0.2436515E-005  0.1164142E+04  0.7818608E-02  0.9144835E-01
         -2   -1    0    0    0  501 -0.00000000000E+00  0.00000000000E+00  0.12716494973E+03  0.12716494973E+03  0.00000000000E+00 0. -1.
          2   -1    0    0  501    0  0.00000000000E+00 -0.00000000000E+00 -0.26643101231E+04  0.26643101231E+04  0.00000000000E+00 0.  1.
         23    2    1    2    0    0 -0.67300997161E+02 -0.55676244963E+03 -0.93642482022E+03  0.10953561211E+04  0.91650087354E+02 0.  0.
         13    1    3    3    0    0 -0.58130767327E+02 -0.16820216214E+03 -0.25668981971E+03  0.31234726988E+03  0.00000000000E+00 0. -1.
        -13    1    3    3    0    0 -0.91702298340E+01 -0.38856028749E+03 -0.67973500051E+03  0.78300885119E+03  0.00000000000E+00 0.  1.
         22    1    1    2    0    0  0.67300997161E+02  0.55676244963E+03 -0.16007203531E+04  0.16961189517E+04  0.00000000000E+00 0.  1.
<mgrwt>
<rscale>  0 0.11641424E+04</rscale>
<asrwt>0</asrwt>
<pdfrwt beam="1">  1        2 0.40989389E+00 0.11641424E+04</pdfrwt>
<pdfrwt beam="2">  1       -2 0.19563837E-01 0.11641424E+04</pdfrwt>
<totfact> 0.61873625E+01</totfact>
</mgrwt>
</event>
<event>
 6    1  0.2436515E-005  0.3240661E+04  0.7818608E-02  0.8178161E-01
          2   -1    0    0  501    0  0.00000000000E+00  0.00000000000E+00  0.18791624350E+04  0.18791624350E+04  0.00000000000E+00 0.  1.
         -2   -1    0    0    0  501 -0.00000000000E+00 -0.00000000000E+00 -0.13971493055E+04  0.13971493055E+04  0.00000000000E+00 0. -1.
         23    2    1    2    0    0 -0.99105547359E+03 -0.12352763338E+04  0.58155514397E+03  0.16894887557E+04  0.89818136068E+02 0.  0.
         13    1    3    3    0    0 -0.76904076339E+03 -0.10087214996E+04  0.44651253017E+03  0.13447364795E+04  0.00000000000E+00 0. -1.
        -13    1    3    3    0    0 -0.22201471020E+03 -0.22655483413E+03  0.13504261380E+03  0.34475227621E+03  0.00000000000E+00 0.  1.
         22    1    1    2    0    0  0.99105547359E+03  0.12352763338E+04 -0.99542014391E+02  0.15868229848E+04  0.00000000000E+00 0. -1.
<mgrwt>
<rscale>  0 0.32406607E+04</rscale>
<asrwt>0</asrwt>
<pdfrwt beam="1">  1        2 0.28910191E+00 0.32406607E+04</pdfrwt>
<pdfrwt beam="2">  1       -2 0.21494605E+00 0.32406607E+04</pdfrwt>
<totfact> 0.69666076E-01</totfact>
</mgrwt>
</event>
<event>
 6    1  0.2436515E-005  0.1033969E+04  0.7818608E-02  0.9272053E-01
         -1   -1    0    0    0  501 -0.00000000000E+00  0.00000000000E+00  0.23666141144E+03  0.23666141144E+03  0.00000000000E+00 0. -1.
          1   -1    0    0  501    0  0.00000000000E+00 -0.00000000000E+00 -0.11293471814E+04  0.11293471814E+04  0.00000000000E+00 0.  1.
         23    2    1    2    0    0 -0.23637021071E+03  0.25738238671E+03 -0.94592197117E+03  0.10125249828E+04  0.91224424887E+02 0.  0.
         13    1    3    3    0    0 -0.93591471696E+02  0.15045638238E+03 -0.56018362681E+03  0.58753909004E+03  0.00000000000E+00 0.  1.
        -13    1    3    3    0    0 -0.14277873901E+03  0.10692600432E+03 -0.38573834436E+03  0.42498589274E+03  0.00000000000E+00 0. -1.
         22    1    1    2    0    0  0.23637021071E+03 -0.25738238671E+03  0.53236201173E+02  0.35348361010E+03  0.00000000000E+00 0. -1.
<mgrwt>
<rscale>  0 0.10339689E+04</rscale>
<asrwt>0</asrwt>
<pdfrwt beam="1">  1        1 0.17374572E+00 0.10339689E+04</pdfrwt>
<pdfrwt beam="2">  1       -1 0.36409447E-01 0.10339689E+04</pdfrwt>
<totfact> 0.87070126E+01</totfact>
</mgrwt>
</event>
<event>
 6    1  0.2436515E-005  0.1276791E+04  0.7818608E-02  0.9048175E-01
          2   -1    0    0  501    0  0.00000000000E+00  0.00000000000E+00  0.54508401360E+03  0.54508401360E+03  0.00000000000E+00 0.  1.
         -2   -1    0    0    0  501 -0.00000000000E+00 -0.00000000000E+00 -0.74768102811E+03  0.74768102811E+03  0.00000000000E+00 0. -1.
         23    2    1    2    0    0  0.13829876999E+03 -0.34229326747E+03 -0.62502573324E+03  0.73175055603E+03  0.92252253568E+02 0.  0.
         13    1    3    3    0    0  0.10105177295E+03 -0.26996454497E+03 -0.40454143401E+03  0.49673543078E+03  0.00000000000E+00 0. -1.
        -13    1    3    3    0    0  0.37246997040E+02 -0.72328722504E+02 -0.22048429923E+03  0.23501512525E+03  0.00000000000E+00 0.  1.
         22    1    1    2    0    0 -0.13829876999E+03  0.34229326747E+03  0.42242871873E+03  0.56101448568E+03  0.00000000000E+00 0.  1.
<mgrwt>
<rscale>  0 0.12767913E+04</rscale>
<asrwt>0</asrwt>
<pdfrwt beam="1">  1        2 0.83859079E-01 0.12767913E+04</pdfrwt>
<pdfrwt beam="2">  1       -2 0.11502785E+00 0.12767913E+04</pdfrwt>
<totfact> 0.32185987E+01</totfact>
</mgrwt>
</event>
<event>
 6    1  0.2436515E-005  0.2136334E+04  0.7818608E-02  0.8545405E-01
         -2   -1    0    0    0  501 -0.00000000000E+00  0.00000000000E+00  0.12056356157E+04  0.12056356157E+04  0.00000000000E+00 0. -1.
          2   -1    0    0  501    0  0.00000000000E+00 -0.00000000000E+00 -0.94637309857E+03  0.94637309857E+03  0.00000000000E+00 0.  1.
         23    2    1    2    0    0  0.58371674349E+01  0.57067272749E+03 -0.77730706850E+03  0.96871756656E+03  0.92228035784E+02 0.  0.
         13    1    3    3    0    0 -0.22771643643E+02  0.47474762211E+03 -0.60404968383E+03  0.76862206121E+03  0.00000000000E+00 0.  1.
        -13    1    3    3    0    0  0.28608811078E+02  0.95925105383E+02 -0.17325738468E+03  0.20009550534E+03  0.00000000000E+00 0. -1.
         22    1    1    2    0    0 -0.58371674349E+01 -0.57067272749E+03  0.10365695857E+04  0.11832911477E+04  0.00000000000E+00 0. -1.
<mgrwt>
<rscale>  0 0.21363343E+04</rscale>
<asrwt>0</asrwt>
<pdfrwt beam="1">  1        2 0.14559586E+00 0.21363343E+04</pdfrwt>
<pdfrwt beam="2">  1       -2 0.18548240E+00 0.21363343E+04</pdfrwt>
<totfact> 0.41699689E+00</totfact>
</mgrwt>
</event>
<event>
 6    1  0.2436515E-005  0.2109366E+04  0.7818608E-02  0.8557129E-01
          2   -1    0    0  501    0  0.00000000000E+00  0.00000000000E+00  0.21442482007E+04  0.21442482007E+04  0.00000000000E+00 0.  1.
         -2   -1    0    0    0  501 -0.00000000000E+00 -0.00000000000E+00 -0.51876300408E+03  0.51876300408E+03  0.00000000000E+00 0. -1.
         23    2    1    2    0    0 -0.13879922983E+03  0.27261369245E+03  0.20859606251E+04  0.21101811480E+04  0.89717869687E+02 0.  0.
         11    1    3    3    0    0 -0.13512750622E+03  0.23912603090E+03  0.16301471353E+04  0.16531244310E+04  0.00000000000E+00 0. -1.
        -11    1    3    3    0    0 -0.36717236158E+01  0.33487661547E+02  0.45581348983E+03  0.45705671699E+03  0.00000000000E+00 0.  1.
         22    1    1    2    0    0  0.13879922983E+03 -0.27261369245E+03 -0.46047542848E+03  0.55283005684E+03  0.00000000000E+00 0. -1.
<mgrwt>
<rscale>  0 0.21093664E+04</rscale>
<asrwt>0</asrwt>
<pdfrwt beam="1">  1        2 0.32988433E+00 0.21093664E+04</pdfrwt>
<pdfrwt beam="2">  1       -2 0.79809694E-01 0.21093664E+04</pdfrwt>
<totfact> 0.71018880E+00</totfact>
</mgrwt>
</event>
<event>
 6    1  0.2436515E-005  0.2616136E+04  0.7818608E-02  0.8362741E-01
          2   -1    0    0  501    0  0.00000000000E+00  0.00000000000E+00  0.12134706239E+04  0.12134706239E+04  0.00000000000E+00 0. -1.
         -2   -1    0    0    0  501 -0.00000000000E+00 -0.00000000000E+00 -0.14100395678E+04  0.14100395678E+04  0.00000000000E+00 0.  1.
         23    2    1    2    0    0  0.48114774807E+03 -0.39714898799E+03  0.10527463308E+04  0.12270793378E+04  0.90655336727E+02 0.  0.
         13    1    3    3    0    0  0.26231432102E+03 -0.16451985589E+03  0.47715735175E+03  0.56881870954E+03  0.00000000000E+00 0.  1.
        -13    1    3    3    0    0  0.21883342705E+03 -0.23262913210E+03  0.57558897904E+03  0.65826062824E+03  0.00000000000E+00 0. -1.
         22    1    1    2    0    0 -0.48114774807E+03  0.39714898799E+03 -0.12493152747E+04  0.13964308539E+04  0.00000000000E+00 0.  1.
<mgrwt>
<rscale>  0 0.26161358E+04</rscale>
<asrwt>0</asrwt>
<pdfrwt beam="1">  1        2 0.18668779E+00 0.26161358E+04</pdfrwt>
<pdfrwt beam="2">  1       -2 0.21692916E+00 0.26161358E+04</pdfrwt>
<totfact> 0.16979280E+00</totfact>
</mgrwt>
</event>
<event>
 6    1  0.2436515E-005  0.1495366E+04  0.7818608E-02  0.8887541E-01
         -2   -1    0    0    0  501 -0.00000000000E+00  0.00000000000E+00  0.49554687370E+03  0.49554687370E+03  0.00000000000E+00 0. -1.
          2   -1    0    0  501    0  0.00000000000E+00 -0.00000000000E+00 -0.11281062070E+04  0.11281062070E+04  0.00000000000E+00 0.  1.
         23    2    1    2    0    0  0.41208686042E+03 -0.50968642389E+03 -0.70177873578E+03  0.96457254165E+03  0.91164482516E+02 0.  0.
         11    1    3    3    0    0  0.14224853430E+03 -0.15247569955E+03 -0.16705617168E+03  0.26719140885E+03  0.00000000000E+00 0. -1.
        -11    1    3    3    0    0  0.26983832612E+03 -0.35721072434E+03 -0.53472256410E+03  0.69738113280E+03  0.00000000000E+00 0.  1.
         22    1    1    2    0    0 -0.41208686042E+03  0.50968642389E+03  0.69219402521E+02  0.65908053902E+03  0.00000000000E+00 0. -1.
<mgrwt>
<rscale>  0 0.14953655E+04</rscale>
<asrwt>0</asrwt>
<pdfrwt beam="1">  1        2 0.17355480E+00 0.14953655E+04</pdfrwt>
<pdfrwt beam="2">  1       -2 0.76237981E-01 0.14953655E+04</pdfrwt>
<totfact> 0.31162060E+01</totfact>
</mgrwt>
</event>
<event>
 6    1  0.2436515E-005  0.4209109E+03  0.7818608E-02  0.1036770E+00
         -2   -1    0    0    0  501 -0.00000000000E+00  0.00000000000E+00  0.14342394884E+03  0.14342394884E+03  0.00000000000E+00 0. -1.
          2   -1    0    0  501    0  0.00000000000E+00 -0.00000000000E+00 -0.30881527511E+03  0.30881527511E+03  0.00000000000E+00 0.  1.
         23    2    1    2    0    0  0.11111343768E+03 -0.14457521221E+02  0.93777026234E+02  0.16988580908E+03  0.86670880497E+02 0.  0.
         11    1    3    3    0    0  0.94250040879E+02  0.22553566315E+02  0.46401887126E+02  0.10744705063E+03  0.00000000000E+00 0.  1.
        -11    1    3    3    0    0  0.16863396796E+02 -0.37011087536E+02  0.47375139108E+02  0.62438758456E+02  0.00000000000E+00 0. -1.
         22    1    1    2    0    0 -0.11111343768E+03  0.14457521221E+02 -0.25916835250E+03  0.28235341487E+03  0.00000000000E+00 0.  1.
<mgrwt>
<rscale>  0 0.42091095E+03</rscale>
<asrwt>0</asrwt>
<pdfrwt beam="1">  1        2 0.47510042E-01 0.42091095E+03</pdfrwt>
<pdfrwt beam="2">  1       -2 0.22065223E-01 0.42091095E+03</pdfrwt>
<totfact> 0.18901792E+03</totfact>
</mgrwt>
</event>
<event>
 6    1  0.2436515E-005  0.1366593E+04  0.7818608E-02  0.8978362E-01
         -2   -1    0    0    0  501 -0.00000000000E+00  0.00000000000E+00  0.43912195930E+03  0.43912195930E+03  0.00000000000E+00 0. -1.
          2   -1    0    0  501    0  0.00000000000E+00 -0.00000000000E+00 -0.10632440511E+04  0.10632440511E+04  0.00000000000E+00 0.  1.
         23    2    1    2    0    0  0.22199817494E+03  0.49712738919E+03 -0.76203643694E+03  0.94072627053E+03  0.88586421575E+02 0.  0.
         13    1    3    3    0    0  0.58620857284E+02  0.10198620427E+03 -0.22842966199E+03  0.25693910027E+03  0.00000000000E+00 0. -1.
        -13    1    3    3    0    0  0.16337731766E+03  0.39514118492E+03 -0.53360677495E+03  0.68378717027E+03  0.00000000000E+00 0.  1.
         22    1    1    2    0    0 -0.22199817494E+03 -0.49712738919E+03  0.13791434517E+03  0.56163973984E+03  0.00000000000E+00 0. -1.
<mgrwt>
<rscale>  0 0.13665926E+04</rscale>
<asrwt>0</asrwt>
<pdfrwt beam="1">  1        2 0.16357601E+00 0.13665926E+04</pdfrwt>
<pdfrwt beam="2">  1       -2 0.67557225E-01 0.13665926E+04</pdfrwt>
<totfact> 0.45006393E+01</totfact>
</mgrwt>
</event>
<event>
 6    1  0.2436515E-005  0.3287649E+04  0.7818608E-02  0.8166045E-01
         -2   -1    0    0    0  501 -0.00000000000E+00  0.00000000000E+00  0.77877238875E+03  0.77877238875E+03  0.00000000000E+00 0. -1.
          2   -1    0    0  501    0  0.00000000000E+00 -0.00000000000E+00 -0.34697662934E+04  0.34697662934E+04  0.00000000000E+00 0.  1.
         23    2    1    2    0    0 -0.10960776891E+04  0.26534847433E+03 -0.28897282450E+04  0.31034223338E+04  0.94364920132E+02 0.  0.
         13    1    3    3    0    0 -0.80674277784E+03  0.23721736039E+03 -0.21306164504E+04  0.22905528687E+04  0.00000000000E+00 0. -1.
        -13    1    3    3    0    0 -0.28933491125E+03  0.28131113932E+02 -0.75911179466E+03  0.81286946506E+03  0.00000000000E+00 0.  1.
         22    1    1    2    0    0  0.10960776891E+04 -0.26534847433E+03  0.19873434037E+03  0.11451163484E+04  0.00000000000E+00 0. -1.
<mgrwt>
<rscale>  0 0.32876485E+04</rscale>
<asrwt>0</asrwt>
<pdfrwt beam="1">  1        2 0.53381019E+00 0.32876485E+04</pdfrwt>
<pdfrwt beam="2">  1       -2 0.11981114E+00 0.32876485E+04</pdfrwt>
<totfact> 0.37985584E-01</totfact>
</mgrwt>
</event>
<event>
 6    1  0.2436515E-005  0.1440753E+04  0.7818608E-02  0.8924836E-01
         -2   -1    0    0    0  501 -0.00000000000E+00  0.00000000000E+00  0.46448473393E+03  0.46448473393E+03  0.00000000000E+00 0. -1.
          2   -1    0    0  501    0  0.00000000000E+00 -0.00000000000E+00 -0.11172431815E+04  0.11172431815E+04  0.00000000000E+00 0.  1.
         23    2    1    2    0    0 -0.28575042374E+03 -0.65636989261E+02 -0.10462440937E+04  0.10910218194E+04  0.98693402901E+02 0.  0.
         13    1    3    3    0    0 -0.53786767705E+02 -0.11523746699E+02 -0.36974698615E+03  0.37381632774E+03  0.00000000000E+00 0. -1.
        -13    1    3    3    0    0 -0.23196365603E+03 -0.54113242562E+02 -0.67649710751E+03  0.71720549162E+03  0.00000000000E+00 0.  1.
         22    1    1    2    0    0  0.28575042374E+03  0.65636989261E+02  0.39348564609E+03  0.49070609606E+03  0.00000000000E+00 0. -1.
<mgrwt>
<rscale>  0 0.14407531E+04</rscale>
<asrwt>0</asrwt>
<pdfrwt beam="1">  1        2 0.17188356E+00 0.14407531E+04</pdfrwt>
<pdfrwt beam="2">  1       -2 0.71459191E-01 0.14407531E+04</pdfrwt>
<totfact> 0.36661893E+01</totfact>
</mgrwt>
</event>
<event>
 6    1  0.2436515E-005  0.2179569E+04  0.7818608E-02  0.8526980E-01
          2   -1    0    0  501    0  0.00000000000E+00  0.00000000000E+00  0.12109282504E+04  0.12109282504E+04  0.00000000000E+00 0.  1.
         -2   -1    0    0    0  501 -0.00000000000E+00 -0.00000000000E+00 -0.98076024515E+03  0.98076024515E+03  0.00000000000E+00 0. -1.
         23    2    1    2    0    0  0.99827484180E+03 -0.28341603348E+03 -0.21281579614E+03  0.10633658661E+04  0.92623400185E+02 0.  0.
         13    1    3    3    0    0  0.19069413316E+03 -0.23279195035E+02 -0.60065030801E+02  0.20128085172E+03  0.00000000000E+00 0.  1.
        -13    1    3    3    0    0  0.80758070864E+03 -0.26013683844E+03 -0.15275076534E+03  0.86208501437E+03  0.00000000000E+00 0. -1.
         22    1    1    2    0    0 -0.99827484180E+03  0.28341603348E+03  0.44298380135E+03  0.11283226294E+04  0.00000000000E+00 0.  1.
<mgrwt>
<rscale>  0 0.21795690E+04</rscale>
<asrwt>0</asrwt>
<pdfrwt beam="1">  1        2 0.18629665E+00 0.21795690E+04</pdfrwt>
<pdfrwt beam="2">  1       -2 0.15088619E+00 0.21795690E+04</pdfrwt>
<totfact> 0.50393210E+00</totfact>
</mgrwt>
</event>
<event>
 6    1  0.2436515E-005  0.1678003E+04  0.7818608E-02  0.8774010E-01
         -1   -1    0    0    0  501 -0.00000000000E+00  0.00000000000E+00  0.10609628973E+04  0.10609628973E+04  0.00000000000E+00 0. -1.
          1   -1    0    0  501    0  0.00000000000E+00 -0.00000000000E+00 -0.66347647050E+03  0.66347647050E+03  0.00000000000E+00 0.  1.
         23    2    1    2    0    0  0.58368560835E+03 -0.49091106858E+03 -0.15403970354E+03  0.78323607461E+03  0.89710376518E+02 0.  0.
         13    1    3    3    0    0  0.25424185466E+03 -0.18447239334E+03 -0.24710512179E+02  0.31508664518E+03  0.00000000000E+00 0.  1.
        -13    1    3    3    0    0  0.32944375369E+03 -0.30643867524E+03 -0.12932919136E+03  0.46814942942E+03  0.00000000000E+00 0. -1.
         22    1    1    2    0    0 -0.58368560835E+03  0.49091106858E+03  0.55152613031E+03  0.94120329316E+03  0.00000000000E+00 0. -1.
<mgrwt>
<rscale>  0 0.16780035E+04</rscale>
<asrwt>0</asrwt>
<pdfrwt beam="1">  1        1 0.10207330E+00 0.16780035E+04</pdfrwt>
<pdfrwt beam="2">  1       -1 0.16322506E+00 0.16780035E+04</pdfrwt>
<totfact> 0.77812734E+00</totfact>
</mgrwt>
</event>
<event>
 6    1  0.2436515E-005  0.4204187E+04  0.7818608E-02  0.7964576E-01
         -2   -1    0    0    0  501 -0.00000000000E+00  0.00000000000E+00  0.22084332539E+04  0.22084332539E+04  0.00000000000E+00 0. -1.
          2   -1    0    0  501    0  0.00000000000E+00 -0.00000000000E+00 -0.20008740788E+04  0.20008740788E+04  0.00000000000E+00 0.  1.
         23    2    1    2    0    0  0.17155216393E+04 -0.10986069690E+04  0.61887231891E+03  0.21310555989E+04  0.91887165871E+02 0.  0.
         13    1    3    3    0    0  0.71242327165E+03 -0.50998207394E+03  0.27057282088E+03  0.91697234698E+03  0.00000000000E+00 0.  1.
        -13    1    3    3    0    0  0.10030983676E+04 -0.58862489507E+03  0.34829949803E+03  0.12140832519E+04  0.00000000000E+00 0. -1.
         22    1    1    2    0    0 -0.17155216393E+04  0.10986069690E+04 -0.41131314379E+03  0.20782517339E+04  0.00000000000E+00 0.  1.
<mgrwt>
<rscale>  0 0.42041869E+04</rscale>
<asrwt>0</asrwt>
<pdfrwt beam="1">  1        2 0.30782678E+00 0.42041869E+04</pdfrwt>
<pdfrwt beam="2">  1       -2 0.33975896E+00 0.42041869E+04</pdfrwt>
<totfact> 0.93434913E-02</totfact>
</mgrwt>
</event>
<event>
 6    1  0.2436515E-005  0.2227087E+04  0.7818608E-02  0.8507238E-01
         -2   -1    0    0    0  501 -0.00000000000E+00  0.00000000000E+00  0.75645085546E+03  0.75645085546E+03  0.00000000000E+00 0. -1.
          2   -1    0    0  501    0  0.00000000000E+00 -0.00000000000E+00 -0.16392062088E+04  0.16392062088E+04  0.00000000000E+00 0.  1.
         23    2    1    2    0    0 -0.65979111668E+03  0.89527642190E+03 -0.40897598575E+03  0.11868100605E+04  0.66427204860E+02 0.  0.
         13    1    3    3    0    0 -0.51028104513E+03  0.65843768607E+03 -0.28392698761E+03  0.88008037460E+03  0.00000000000E+00 0.  1.
        -13    1    3    3    0    0 -0.14951007155E+03  0.23683873584E+03 -0.12504899814E+03  0.30672968592E+03  0.00000000000E+00 0. -1.
         22    1    1    2    0    0  0.65979111668E+03 -0.89527642190E+03 -0.47377936756E+03  0.12088470037E+04  0.00000000000E+00 0. -1.
<mgrwt>
<rscale>  0 0.22270868E+04</rscale>
<asrwt>0</asrwt>
<pdfrwt beam="1">  1        2 0.25218557E+00 0.22270868E+04</pdfrwt>
<pdfrwt beam="2">  1       -2 0.11637706E+00 0.22270868E+04</pdfrwt>
<totfact> 0.55389263E+00</totfact>
</mgrwt>
</event>
<event>
 6    1  0.2436515E-005  0.1680629E+04  0.7818608E-02  0.8772490E-01
         -2   -1    0    0    0  501 -0.00000000000E+00  0.00000000000E+00  0.14762202756E+04  0.14762202756E+04  0.00000000000E+00 0. -1.
          2   -1    0    0  501    0  0.00000000000E+00 -0.00000000000E+00 -0.47833565333E+03  0.47833565333E+03  0.00000000000E+00 0.  1.
         23    2    1    2    0    0  0.26966852631E+03  0.60633994077E+03 -0.94489953567E+02  0.67641217654E+03  0.90751547582E+02 0.  0.
         13    1    3    3    0    0  0.96987483981E+02  0.26152059921E+03  0.17996721437E+01  0.27893159498E+03  0.00000000000E+00 0.  1.
        -13    1    3    3    0    0  0.17268104233E+03  0.34481934156E+03 -0.96289625711E+02  0.39748058156E+03  0.00000000000E+00 0. -1.
         22    1    1    2    0    0 -0.26966852631E+03 -0.60633994077E+03  0.10923745759E+04  0.12781437524E+04  0.00000000000E+00 0. -1.
<mgrwt>
<rscale>  0 0.16806294E+04</rscale>
<asrwt>0</asrwt>
<pdfrwt beam="1">  1        2 0.73590101E-01 0.16806294E+04</pdfrwt>
<pdfrwt beam="2">  1       -2 0.22711081E+00 0.16806294E+04</pdfrwt>
<totfact> 0.55040322E+00</totfact>
</mgrwt>
</event>
<event>
 6    1  0.2436515E-005  0.5646358E+03  0.7818608E-02  0.9981620E-01
         -2   -1    0    0    0  501 -0.00000000000E+00  0.00000000000E+00  0.16029858224E+03  0.16029858224E+03  0.00000000000E+00 0. -1.
          2   -1    0    0  501    0  0.00000000000E+00 -0.00000000000E+00 -0.49721834944E+03  0.49721834944E+03  0.00000000000E+00 0.  1.
         23    2    1    2    0    0  0.57482643602E+02 -0.30719741389E+02 -0.48398312984E+03  0.49665802003E+03  0.90451987624E+02 0.  0.
         11    1    3    3    0    0  0.33114053996E+02  0.26099053332E+02 -0.29033176920E+03  0.29337729524E+03  0.00000000000E+00 0. -1.
        -11    1    3    3    0    0  0.24368589606E+02 -0.56818794721E+02 -0.19365136063E+03  0.20328072478E+03  0.00000000000E+00 0.  1.
         22    1    1    2    0    0 -0.57482643602E+02  0.30719741389E+02  0.14706336264E+03  0.16085891165E+03  0.00000000000E+00 0. -1.
<mgrwt>
<rscale>  0 0.56463580E+03</rscale>
<asrwt>0</asrwt>
<pdfrwt beam="1">  1        2 0.76495128E-01 0.56463580E+03</pdfrwt>
<pdfrwt beam="2">  1       -2 0.24661321E-01 0.56463580E+03</pdfrwt>
<totfact> 0.91391703E+02</totfact>
</mgrwt>
</event>
<event>
 6    1  0.2436515E-005  0.2913877E+04  0.7818608E-02  0.8268761E-01
         -2   -1    0    0    0  501 -0.00000000000E+00  0.00000000000E+00  0.16671853123E+04  0.16671853123E+04  0.00000000000E+00 0. -1.
          2   -1    0    0  501    0  0.00000000000E+00 -0.00000000000E+00 -0.12732053037E+04  0.12732053037E+04  0.00000000000E+00 0.  1.
         23    2    1    2    0    0 -0.89082315129E+03 -0.10935395226E+03 -0.95935745635E+03  0.13164920761E+04  0.85208472085E+02 0.  0.
         13    1    3    3    0    0 -0.50428184031E+03 -0.19579992145E+02 -0.54423570152E+03  0.74221024607E+03  0.00000000000E+00 0.  1.
        -13    1    3    3    0    0 -0.38654131097E+03 -0.89773960116E+02 -0.41512175483E+03  0.57428183006E+03  0.00000000000E+00 0. -1.
         22    1    1    2    0    0  0.89082315129E+03  0.10935395226E+03  0.13533374649E+04  0.16238985399E+04  0.00000000000E+00 0. -1.
<mgrwt>
<rscale>  0 0.29138766E+04</rscale>
<asrwt>0</asrwt>
<pdfrwt beam="1">  1        2 0.19587774E+00 0.29138766E+04</pdfrwt>
<pdfrwt beam="2">  1       -2 0.25649005E+00 0.29138766E+04</pdfrwt>
<totfact> 0.86622386E-01</totfact>
</mgrwt>
</event>
<event>
 6    1  0.2436515E-005  0.2690189E+04  0.7818608E-02  0.8338195E-01
         -2   -1    0    0    0  501 -0.00000000000E+00  0.00000000000E+00  0.21740579737E+04  0.21740579737E+04  0.00000000000E+00 0. -1.
          2   -1    0    0  501    0  0.00000000000E+00 -0.00000000000E+00 -0.83221273728E+03  0.83221273728E+03  0.00000000000E+00 0.  1.
         23    2    1    2    0    0  0.29006173375E+03 -0.25647422040E+03 -0.76605416163E+03  0.86310606322E+03  0.90544258235E+02 0.  0.
         11    1    3    3    0    0  0.82204653963E+02 -0.13060045544E+03 -0.31445882928E+03  0.35028337015E+03  0.00000000000E+00 0. -1.
        -11    1    3    3    0    0  0.20785707978E+03 -0.12587376496E+03 -0.45159533236E+03  0.51282269307E+03  0.00000000000E+00 0.  1.
         22    1    1    2    0    0 -0.29006173375E+03  0.25647422040E+03  0.21078993981E+04  0.21431646478E+04  0.00000000000E+00 0. -1.
<mgrwt>
<rscale>  0 0.26901886E+04</rscale>
<asrwt>0</asrwt>
<pdfrwt beam="1">  1        2 0.12803273E+00 0.26901886E+04</pdfrwt>
<pdfrwt beam="2">  1       -2 0.33447045E+00 0.26901886E+04</pdfrwt>
<totfact> 0.55846580E-01</totfact>
</mgrwt>
</event>
<event>
 6    1  0.2436515E-005  0.4981027E+04  0.7818608E-02  0.7831441E-01
         -2   -1    0    0    0  501 -0.00000000000E+00  0.00000000000E+00  0.17513428175E+04  0.17513428175E+04  0.00000000000E+00 0. -1.
          2   -1    0    0  501    0  0.00000000000E+00 -0.00000000000E+00 -0.35416585278E+04  0.35416585278E+04  0.00000000000E+00 0.  1.
         23    2    1    2    0    0  0.22026830024E+04  0.76584496437E+03  0.30580741047E+02  0.23342862855E+04  0.98114027533E+02 0.  0.
         11    1    3    3    0    0  0.91163451509E+03  0.26618965450E+03  0.17240392767E+02  0.94985875392E+03  0.00000000000E+00 0. -1.
        -11    1    3    3    0    0  0.12910484874E+04  0.49965530987E+03  0.13340348280E+02  0.13844275316E+04  0.00000000000E+00 0.  1.
         22    1    1    2    0    0 -0.22026830024E+04 -0.76584496437E+03 -0.18208964513E+04  0.29587150598E+04  0.00000000000E+00 0. -1.
<mgrwt>
<rscale>  0 0.49810273E+04</rscale>
<asrwt>0</asrwt>
<pdfrwt beam="1">  1        2 0.54487054E+00 0.49810273E+04</pdfrwt>
<pdfrwt beam="2">  1       -2 0.26943736E+00 0.49810273E+04</pdfrwt>
<totfact> 0.27007214E-02</totfact>
</mgrwt>
</event>
<event>
 6    1  0.2436515E-005  0.3344954E+04  0.7818608E-02  0.8151550E-01
          2   -1    0    0  501    0  0.00000000000E+00  0.00000000000E+00  0.15531110437E+04  0.15531110437E+04  0.00000000000E+00 0.  1.
         -2   -1    0    0    0  501 -0.00000000000E+00 -0.00000000000E+00 -0.18010174281E+04  0.18010174281E+04  0.00000000000E+00 0. -1.
         23    2    1    2    0    0  0.15094458141E+04  0.70480746091E+03 -0.25802027298E+03  0.16882105527E+04  0.91105359157E+02 0.  0.
         11    1    3    3    0    0  0.60834928175E+03  0.23641505348E+03 -0.90190084064E+02  0.65887417417E+03  0.00000000000E+00 0. -1.
        -11    1    3    3    0    0  0.90109653230E+03  0.46839240744E+03 -0.16783018892E+03  0.10293363785E+04  0.00000000000E+00 0.  1.
         22    1    1    2    0    0 -0.15094458141E+04 -0.70480746091E+03  0.10113888576E+02  0.16659179191E+04  0.00000000000E+00 0. -1.
<mgrwt>
<rscale>  0 0.33449544E+04</rscale>
<asrwt>0</asrwt>
<pdfrwt beam="1">  1        2 0.23894016E+00 0.33449544E+04</pdfrwt>
<pdfrwt beam="2">  1       -2 0.27707961E+00 0.33449544E+04</pdfrwt>
<totfact> 0.43259073E-01</totfact>
</mgrwt>
</event>
<event>
 6    1  0.2436515E-005  0.2239076E+04  0.7818608E-02  0.8502338E-01
         -2   -1    0    0    0  501 -0.00000000000E+00  0.00000000000E+00  0.33601194074E+03  0.33601194074E+03  0.00000000000E+00 0. -1.
          2   -1    0    0  501    0  0.00000000000E+00 -0.00000000000E+00 -0.37301202079E+04  0.37301202079E+04  0.00000000000E+00 0.  1.
         23    2    1    2    0    0  0.60868804188E+03  0.35084310606E+03 -0.12159026609E+03  0.71904892818E+03  0.93033063566E+02 0.  0.
         11    1    3    3    0    0  0.43620626753E+03  0.20779055799E+03 -0.10429449400E+03  0.49429764849E+03  0.00000000000E+00 0.  1.
        -11    1    3    3    0    0  0.17248177435E+03  0.14305254807E+03 -0.17295772091E+02  0.22475127970E+03  0.00000000000E+00 0. -1.
         22    1    1    2    0    0 -0.60868804188E+03 -0.35084310606E+03 -0.32725180011E+04  0.33470832204E+04  0.00000000000E+00 0.  1.
<mgrwt>
<rscale>  0 0.22390756E+04</rscale>
<asrwt>0</asrwt>
<pdfrwt beam="1">  1        2 0.57386465E+00 0.22390756E+04</pdfrwt>
<pdfrwt beam="2">  1       -2 0.51694145E-01 0.22390756E+04</pdfrwt>
<totfact> 0.17935357E+00</totfact>
</mgrwt>
</event>
<event>
 6    1  0.2436515E-005  0.5300602E+04  0.7818608E-02  0.7783739E-01
          2   -1    0    0  501    0  0.00000000000E+00  0.00000000000E+00  0.22727325368E+04  0.22727325368E+04  0.00000000000E+00 0.  1.
         -2   -1    0    0    0  501 -0.00000000000E+00 -0.00000000000E+00 -0.30905944534E+04  0.30905944534E+04  0.00000000000E+00 0. -1.
         23    2    1    2    0    0  0.12112713394E+04  0.14089603559E+04 -0.23201822294E+04  0.29739099348E+04  0.92450960217E+02 0.  0.
         13    1    3    3    0    0  0.39532235443E+03  0.43470672964E+03 -0.79803224878E+03  0.99101219710E+03  0.00000000000E+00 0. -1.
        -13    1    3    3    0    0  0.81594898501E+03  0.97425362628E+03 -0.15221499806E+04  0.19828977377E+04  0.00000000000E+00 0.  1.
         22    1    1    2    0    0 -0.12112713394E+04 -0.14089603559E+04  0.15023203128E+04  0.23894170554E+04  0.00000000000E+00 0.  1.
<mgrwt>
<rscale>  0 0.53006017E+04</rscale>
<asrwt>0</asrwt>
<pdfrwt beam="1">  1        2 0.34965116E+00 0.53006017E+04</pdfrwt>
<pdfrwt beam="2">  1       -2 0.47547607E+00 0.53006017E+04</pdfrwt>
<totfact> 0.79342807E-03</totfact>
</mgrwt>
</event>
<event>
 6    1  0.2436515E-005  0.3612357E+04  0.7818608E-02  0.8087667E-01
          2   -1    0    0  501    0  0.00000000000E+00  0.00000000000E+00  0.53452720184E+04  0.53452720184E+04  0.00000000000E+00 0.  1.
         -2   -1    0    0    0  501 -0.00000000000E+00 -0.00000000000E+00 -0.61031158695E+03  0.61031158695E+03  0.00000000000E+00 0. -1.
         23    2    1    2    0    0 -0.13163169331E+03 -0.14367095443E+04  0.41573386877E+04  0.44015217996E+04  0.92021574953E+02 0.  0.
         11    1    3    3    0    0 -0.10983184937E+03 -0.13257162185E+04  0.37592299679E+04  0.39876555115E+04  0.00000000000E+00 0. -1.
        -11    1    3    3    0    0 -0.21799843932E+02 -0.11099332579E+03  0.39810871987E+03  0.41386628807E+03  0.00000000000E+00 0.  1.
         22    1    1    2    0    0  0.13163169331E+03  0.14367095443E+04  0.57762174366E+03  0.15540618057E+04  0.00000000000E+00 0. -1.
<mgrwt>
<rscale>  0 0.36123574E+04</rscale>
<asrwt>0</asrwt>
<pdfrwt beam="1">  1        2 0.82234951E+00 0.36123574E+04</pdfrwt>
<pdfrwt beam="2">  1       -2 0.93894094E-01 0.36123574E+04</pdfrwt>
<totfact> 0.85275563E-03</totfact>
</mgrwt>
</event>
<event>
 6    1  0.2436515E-005  0.2608302E+04  0.7818608E-02  0.8365387E-01
         -2   -1    0    0    0  501 -0.00000000000E+00  0.00000000000E+00  0.97235878009E+03  0.97235878009E+03  0.00000000000E+00 0. -1.
          2   -1    0    0  501    0  0.00000000000E+00 -0.00000000000E+00 -0.17491587652E+04  0.17491587652E+04  0.00000000000E+00 0.  1.
         23    2    1    2    0    0  0.93443819962E+03 -0.55886684343E+03  0.35685735501E+03  0.11496759940E+04  0.94344166587E+02 0.  0.
         13    1    3    3    0    0  0.20108846044E+03 -0.16707499665E+03  0.84048748967E+02  0.27461758071E+03  0.00000000000E+00 0. -1.
        -13    1    3    3    0    0  0.73334973918E+03 -0.39179184677E+03  0.27280860604E+03  0.87505841329E+03  0.00000000000E+00 0.  1.
         22    1    1    2    0    0 -0.93443819962E+03  0.55886684343E+03 -0.11336573401E+04  0.15718415513E+04  0.00000000000E+00 0.  1.
<mgrwt>
<rscale>  0 0.26083020E+04</rscale>
<asrwt>0</asrwt>
<pdfrwt beam="1">  1        2 0.26910135E+00 0.26083020E+04</pdfrwt>
<pdfrwt beam="2">  1       -2 0.14959366E+00 0.26083020E+04</pdfrwt>
<totfact> 0.24568494E+00</totfact>
</mgrwt>
</event>
<event>
 6    1  0.2436515E-005  0.2643465E+04  0.7818608E-02  0.8353585E-01
          2   -1    0    0  501    0  0.00000000000E+00  0.00000000000E+00  0.12439306607E+04  0.12439306607E+04  0.00000000000E+00 0.  1.
         -2   -1    0    0    0  501 -0.00000000000E+00 -0.00000000000E+00 -0.14044001558E+04  0.14044001558E+04  0.00000000000E+00 0. -1.
         23    2    1    2    0    0  0.11567983039E+04 -0.83105795878E+02 -0.71217133220E+03  0.13640162887E+04  0.90904015815E+02 0.  0.
         11    1    3    3    0    0  0.96777451952E+03 -0.36349677959E+02 -0.60131153536E+03  0.11399492893E+04  0.00000000000E+00 0. -1.
        -11    1    3    3    0    0  0.18902378439E+03 -0.46756117919E+02 -0.11085979684E+03  0.22406699932E+03  0.00000000000E+00 0.  1.
         22    1    1    2    0    0 -0.11567983039E+04  0.83105795878E+02  0.55170183720E+03  0.12843145278E+04  0.00000000000E+00 0.  1.
<mgrwt>
<rscale>  0 0.26434647E+04</rscale>
<asrwt>0</asrwt>
<pdfrwt beam="1">  1        2 0.19137395E+00 0.26434647E+04</pdfrwt>
<pdfrwt beam="2">  1       -2 0.21606156E+00 0.26434647E+04</pdfrwt>
<totfact> 0.16458405E+00</totfact>
</mgrwt>
</event>
<event>
 6    1  0.2436515E-005  0.9552097E+03  0.7818608E-02  0.9359082E-01
         -2   -1    0    0    0  501 -0.00000000000E+00  0.00000000000E+00  0.16818609636E+03  0.16818609636E+03  0.00000000000E+00 0. -1.
          2   -1    0    0  501    0  0.00000000000E+00 -0.00000000000E+00 -0.13562738361E+04  0.13562738361E+04  0.00000000000E+00 0.  1.
         23    2    1    2    0    0  0.20482059416E+03 -0.39384942425E+02 -0.12775081166E+04  0.12975267853E+04  0.89700173284E+02 0.  0.
         13    1    3    3    0    0  0.88331076632E+02 -0.22049484353E+02 -0.31665459311E+03  0.32948245811E+03  0.00000000000E+00 0. -1.
        -13    1    3    3    0    0  0.11648951753E+03 -0.17335458072E+02 -0.96085352349E+03  0.96804432719E+03  0.00000000000E+00 0.  1.
         22    1    1    2    0    0 -0.20482059416E+03  0.39384942425E+02  0.89420376861E+02  0.22693314716E+03  0.00000000000E+00 0. -1.
<mgrwt>
<rscale>  0 0.95520972E+03</rscale>
<asrwt>0</asrwt>
<pdfrwt beam="1">  1        2 0.20865751E+00 0.95520972E+03</pdfrwt>
<pdfrwt beam="2">  1       -2 0.25874784E-01 0.95520972E+03</pdfrwt>
<totfact> 0.20645558E+02</totfact>
</mgrwt>
</event>
<event>
 6    1  0.2436515E-005  0.3293880E+04  0.7818608E-02  0.8164454E-01
         -2   -1    0    0    0  501 -0.00000000000E+00  0.00000000000E+00  0.77456735844E+03  0.77456735844E+03  0.00000000000E+00 0. -1.
          2   -1    0    0  501    0  0.00000000000E+00 -0.00000000000E+00 -0.35018396929E+04  0.35018396929E+04  0.00000000000E+00 0.  1.
         23    2    1    2    0    0 -0.39475759083E+03  0.12586946797E+04 -0.86842548430E+02  0.13247947280E+04  0.85985992330E+02 0.  0.
         13    1    3    3    0    0 -0.17635195642E+03  0.56436371526E+03 -0.81794652691E+02  0.59690600671E+03  0.00000000000E+00 0. -1.
        -13    1    3    3    0    0 -0.21840563441E+03  0.69433096446E+03 -0.50478957386E+01  0.72788872130E+03  0.00000000000E+00 0.  1.
         22    1    1    2    0    0  0.39475759083E+03 -0.12586946797E+04 -0.26404297860E+04  0.29516123233E+04  0.00000000000E+00 0.  1.
<mgrwt>
<rscale>  0 0.32938796E+04</rscale>
<asrwt>0</asrwt>
<pdfrwt beam="1">  1        2 0.53874456E+00 0.32938796E+04</pdfrwt>
<pdfrwt beam="2">  1       -2 0.11916421E+00 0.32938796E+04</pdfrwt>
<totfact> 0.36545117E-01</totfact>
</mgrwt>
</event>
<event>
 6    1  0.2436515E-005  0.1777564E+04  0.7818608E-02  0.8718322E-01
         -2   -1    0    0    0  501 -0.00000000000E+00  0.00000000000E+00  0.66863950787E+03  0.66863950787E+03  0.00000000000E+00 0. -1.
          2   -1    0    0  501    0  0.00000000000E+00 -0.00000000000E+00 -0.11814047208E+04  0.11814047208E+04  0.00000000000E+00 0.  1.
         23    2    1    2    0    0  0.67575204177E+03  0.91648756267E+02  0.33308788445E+03  0.76353248054E+03  0.83630099818E+02 0.  0.
         13    1    3    3    0    0  0.34736280348E+03  0.89261942508E+02  0.17462075508E+03  0.39889976150E+03  0.00000000000E+00 0.  1.
        -13    1    3    3    0    0  0.32838923829E+03  0.23868137594E+01  0.15846712937E+03  0.36463271904E+03  0.00000000000E+00 0. -1.
         22    1    1    2    0    0 -0.67575204177E+03 -0.91648756267E+02 -0.84585309737E+03  0.10865117481E+04  0.00000000000E+00 0.  1.
<mgrwt>
<rscale>  0 0.17775645E+04</rscale>
<asrwt>0</asrwt>
<pdfrwt beam="1">  1        2 0.18175457E+00 0.17775645E+04</pdfrwt>
<pdfrwt beam="2">  1       -2 0.10286762E+00 0.17775645E+04</pdfrwt>
<totfact> 0.14194365E+01</totfact>
</mgrwt>
</event>
<event>
 6    1  0.2436515E-005  0.2693714E+04  0.7818608E-02  0.8337047E-01
          2   -1    0    0  501    0  0.00000000000E+00  0.00000000000E+00  0.20212568877E+04  0.20212568877E+04  0.00000000000E+00 0.  1.
         -2   -1    0    0    0  501 -0.00000000000E+00 -0.00000000000E+00 -0.89747306310E+03  0.89747306310E+03  0.00000000000E+00 0. -1.
         23    2    1    2    0    0  0.45348998985E+02 -0.54180376296E+03  0.18959138860E+04  0.19743821966E+04  0.89931894627E+02 0.  0.
         13    1    3    3    0    0  0.16137871949E+02 -0.27076435535E+03  0.11050475050E+04  0.11378504978E+04  0.00000000000E+00 0.  1.
        -13    1    3    3    0    0  0.29211127036E+02 -0.27103940762E+03  0.79086638102E+03  0.83653169877E+03  0.00000000000E+00 0. -1.
         22    1    1    2    0    0 -0.45348998985E+02  0.54180376296E+03 -0.77213006139E+03  0.94434775426E+03  0.00000000000E+00 0. -1.
<mgrwt>
<rscale>  0 0.26937139E+04</rscale>
<asrwt>0</asrwt>
<pdfrwt beam="1">  1        2 0.31096260E+00 0.26937139E+04</pdfrwt>
<pdfrwt beam="2">  1       -2 0.13807278E+00 0.26937139E+04</pdfrwt>
<totfact> 0.21248233E+00</totfact>
</mgrwt>
</event>
<event>
 6    1  0.2436515E-005  0.1262078E+04  0.7818608E-02  0.9060190E-01
         -2   -1    0    0    0  501 -0.00000000000E+00  0.00000000000E+00  0.33786233312E+03  0.33786233312E+03  0.00000000000E+00 0. -1.
          2   -1    0    0  501    0  0.00000000000E+00 -0.00000000000E+00 -0.11786168662E+04  0.11786168662E+04  0.00000000000E+00 0.  1.
         23    2    1    2    0    0 -0.29285348939E+03 -0.14956421873E+03 -0.10648718140E+04  0.11185330002E+04  0.95034049857E+02 0.  0.
         11    1    3    3    0    0 -0.13315810202E+03 -0.27535928250E+02 -0.33632308906E+03  0.36277062686E+03  0.00000000000E+00 0.  1.
        -11    1    3    3    0    0 -0.15969538737E+03 -0.12202829048E+03 -0.72854872491E+03  0.75576237336E+03  0.00000000000E+00 0. -1.
         22    1    1    2    0    0  0.29285348939E+03  0.14956421873E+03  0.22411728089E+03  0.39794619909E+03  0.00000000000E+00 0. -1.
<mgrwt>
<rscale>  0 0.12620780E+04</rscale>
<asrwt>0</asrwt>
<pdfrwt beam="1">  1        2 0.18132567E+00 0.12620780E+04</pdfrwt>
<pdfrwt beam="2">  1       -2 0.51978820E-01 0.12620780E+04</pdfrwt>
<totfact> 0.66986258E+01</totfact>
</mgrwt>
</event>
<event>
 6    1  0.2436515E-005  0.1816503E+04  0.7818608E-02  0.8697572E-01
         -2   -1    0    0    0  501 -0.00000000000E+00  0.00000000000E+00  0.89850108451E+03  0.89850108451E+03  0.00000000000E+00 0. -1.
          2   -1    0    0  501    0  0.00000000000E+00 -0.00000000000E+00 -0.91810801168E+03  0.91810801168E+03  0.00000000000E+00 0.  1.
         23    2    1    2    0    0 -0.49962754906E+03 -0.57157277595E+03 -0.50376542900E+03  0.91620219879E+03  0.96559492676E+02 0.  0.
         11    1    3    3    0    0 -0.41265165839E+03 -0.40992462576E+03 -0.37794279903E+03  0.69365722754E+03  0.00000000000E+00 0. -1.
        -11    1    3    3    0    0 -0.86975890673E+02 -0.16164815019E+03 -0.12582262997E+03  0.22254497125E+03  0.00000000000E+00 0.  1.
         22    1    1    2    0    0  0.49962754906E+03  0.57157277595E+03  0.48415850183E+03  0.90040689740E+03  0.00000000000E+00 0. -1.
<mgrwt>
<rscale>  0 0.18165033E+04</rscale>
<asrwt>0</asrwt>
<pdfrwt beam="1">  1        2 0.14124739E+00 0.18165033E+04</pdfrwt>
<pdfrwt beam="2">  1       -2 0.13823094E+00 0.18165033E+04</pdfrwt>
<totfact> 0.99765170E+00</totfact>
</mgrwt>
</event>
<event>
 6    1  0.2436515E-005  0.1600889E+04  0.7818608E-02  0.8820002E-01
          2   -1    0    0  501    0  0.00000000000E+00  0.00000000000E+00  0.17880035743E+04  0.17880035743E+04  0.00000000000E+00 0.  1.
         -2   -1    0    0    0  501 -0.00000000000E+00 -0.00000000000E+00 -0.35833891309E+03  0.35833891309E+03  0.00000000000E+00 0. -1.
         23    2    1    2    0    0  0.73925722598E+03  0.12189826771E+03  0.34906552315E+03  0.83140715398E+03  0.89614074870E+02 0.  0.
         11    1    3    3    0    0  0.13770294333E+03  0.58723242328E+02  0.67087217385E+02  0.16404637920E+03  0.00000000000E+00 0. -1.
        -11    1    3    3    0    0  0.60155428265E+03  0.63175025384E+02  0.28197830576E+03  0.66736077478E+03  0.00000000000E+00 0.  1.
         22    1    1    2    0    0 -0.73925722598E+03 -0.12189826771E+03  0.10805991380E+04  0.13149353334E+04  0.00000000000E+00 0.  1.
<mgrwt>
<rscale>  0 0.16008888E+04</rscale>
<asrwt>0</asrwt>
<pdfrwt beam="1">  1        2 0.27507747E+00 0.16008888E+04</pdfrwt>
<pdfrwt beam="2">  1       -2 0.55129064E-01 0.16008888E+04</pdfrwt>
<totfact> 0.25991866E+01</totfact>
</mgrwt>
</event>
<event>
 6    1  0.2436515E-005  0.1776570E+04  0.7818608E-02  0.8718860E-01
          2   -1    0    0  501    0  0.00000000000E+00  0.00000000000E+00  0.35195117534E+03  0.35195117534E+03  0.00000000000E+00 0.  1.
         -2   -1    0    0    0  501 -0.00000000000E+00 -0.00000000000E+00 -0.22419305086E+04  0.22419305086E+04  0.00000000000E+00 0. -1.
         23    2    1    2    0    0  0.54633312964E+03 -0.19618647088E+03  0.29730898451E+02  0.58832530388E+03  0.90959974499E+02 0.  0.
         11    1    3    3    0    0  0.78686979093E+02  0.29500341106E+01  0.12703920323E+02  0.79760472489E+02  0.00000000000E+00 0. -1.
        -11    1    3    3    0    0  0.46764615055E+03 -0.19913650499E+03  0.17026978128E+02  0.50856483139E+03  0.00000000000E+00 0.  1.
         22    1    1    2    0    0 -0.54633312964E+03  0.19618647088E+03 -0.19197102318E+04  0.20055563801E+04  0.00000000000E+00 0. -1.
<mgrwt>
<rscale>  0 0.17765698E+04</rscale>
<asrwt>0</asrwt>
<pdfrwt beam="1">  1        2 0.54146333E-01 0.17765698E+04</pdfrwt>
<pdfrwt beam="2">  1       -2 0.34491239E+00 0.17765698E+04</pdfrwt>
<totfact> 0.14602710E+00</totfact>
</mgrwt>
</event>
<event>
 6    1  0.2436515E-005  0.3572254E+03  0.7818608E-02  0.1059688E+00
          2   -1    0    0  501    0  0.00000000000E+00  0.00000000000E+00  0.21436306444E+03  0.21436306444E+03  0.00000000000E+00 0.  1.
         -2   -1    0    0    0  501 -0.00000000000E+00 -0.00000000000E+00 -0.14882456365E+03  0.14882456365E+03  0.00000000000E+00 0. -1.
         23    2    1    2    0    0  0.11783475186E+03  0.22949332067E+02 -0.83189698469E+02  0.17205474803E+03  0.90942893057E+02 0.  0.
         11    1    3    3    0    0  0.82441124462E+02 -0.28462765200E+02 -0.38769816452E+02  0.95445097690E+02  0.00000000000E+00 0.  1.
        -11    1    3    3    0    0  0.35393627403E+02  0.51412097267E+02 -0.44419882017E+02  0.76609650335E+02  0.00000000000E+00 0. -1.
         22    1    1    2    0    0 -0.11783475186E+03 -0.22949332067E+02  0.14872819926E+03  0.19113288007E+03  0.00000000000E+00 0.  1.
<mgrwt>
<rscale>  0 0.35722536E+03</rscale>
<asrwt>0</asrwt>
<pdfrwt beam="1">  1        2 0.32978933E-01 0.35722536E+03</pdfrwt>
<pdfrwt beam="2">  1       -2 0.22896087E-01 0.35722536E+03</pdfrwt>
<totfact> 0.26345285E+03</totfact>
</mgrwt>
</event>
<event>
 6    1  0.2436515E-005  0.1200595E+04  0.7818608E-02  0.9112336E-01
          2   -1    0    0  501    0  0.00000000000E+00  0.00000000000E+00  0.61912480003E+03  0.61912480003E+03  0.00000000000E+00 0.  1.
         -2   -1    0    0    0  501 -0.00000000000E+00 -0.00000000000E+00 -0.58204238239E+03  0.58204238239E+03  0.00000000000E+00 0. -1.
         23    2    1    2    0    0  0.26751659164E+03  0.70284261825E+01  0.55245527500E+03  0.62045752375E+03  0.90256203857E+02 0.  0.
         13    1    3    3    0    0  0.15547681345E+03  0.48320603719E+02  0.33019110681E+03  0.36814954473E+03  0.00000000000E+00 0. -1.
        -13    1    3    3    0    0  0.11203977818E+03 -0.41292177536E+02  0.22226416818E+03  0.25230797902E+03  0.00000000000E+00 0.  1.
         22    1    1    2    0    0 -0.26751659164E+03 -0.70284261825E+01 -0.51537285735E+03  0.58070965867E+03  0.00000000000E+00 0. -1.
<mgrwt>
<rscale>  0 0.12005946E+04</rscale>
<asrwt>0</asrwt>
<pdfrwt beam="1">  1        2 0.95249969E-01 0.12005946E+04</pdfrwt>
<pdfrwt beam="2">  1       -2 0.89544982E-01 0.12005946E+04</pdfrwt>
<totfact> 0.50386989E+01</totfact>
</mgrwt>
</event>
<event>
 6    1  0.2436515E-005  0.1908446E+04  0.7818608E-02  0.8650664E-01
          2   -1    0    0  501    0  0.00000000000E+00  0.00000000000E+00  0.37780863473E+04  0.37780863473E+04  0.00000000000E+00 0.  1.
         -2   -1    0    0    0  501 -0.00000000000E+00 -0.00000000000E+00 -0.24100604188E+03  0.24100604188E+03  0.00000000000E+00 0. -1.
         23    2    1    2    0    0 -0.19552458103E+03 -0.80205134073E+03  0.77433679195E+03  0.11356451578E+04  0.92608002354E+02 0.  0.
         13    1    3    3    0    0 -0.21089636832E+02 -0.18691182655E+03  0.13567599689E+03  0.23192408201E+03  0.00000000000E+00 0. -1.
        -13    1    3    3    0    0 -0.17443494420E+03 -0.61513951419E+03  0.63866079506E+03  0.90372107579E+03  0.00000000000E+00 0.  1.
         22    1    1    2    0    0  0.19552458103E+03  0.80205134073E+03  0.27627435135E+04  0.28834472314E+04  0.00000000000E+00 0.  1.
<mgrwt>
<rscale>  0 0.19084461E+04</rscale>
<asrwt>0</asrwt>
<pdfrwt beam="1">  1        2 0.58124401E+00 0.19084461E+04</pdfrwt>
<pdfrwt beam="2">  1       -2 0.37077855E-01 0.19084461E+04</pdfrwt>
<totfact> 0.33058185E+00</totfact>
</mgrwt>
</event>
<event>
 6    1  0.2436515E-005  0.2135899E+04  0.7818608E-02  0.8545592E-01
         -2   -1    0    0    0  501 -0.00000000000E+00  0.00000000000E+00  0.10482891347E+04  0.10482891347E+04  0.00000000000E+00 0. -1.
          2   -1    0    0  501    0  0.00000000000E+00 -0.00000000000E+00 -0.10879786698E+04  0.10879786698E+04  0.00000000000E+00 0.  1.
         23    2    1    2    0    0  0.50257990648E+03  0.49072915459E+03  0.78187718477E+03  0.10553545143E+04  0.95076565372E+02 0.  0.
         13    1    3    3    0    0  0.13963363082E+03  0.19172486071E+03  0.29394560632E+03  0.37770357762E+03  0.00000000000E+00 0. -1.
        -13    1    3    3    0    0  0.36294627566E+03  0.29900429388E+03  0.48793157845E+03  0.67765093671E+03  0.00000000000E+00 0.  1.
         22    1    1    2    0    0 -0.50257990648E+03 -0.49072915459E+03 -0.82156671986E+03  0.10809132901E+04  0.00000000000E+00 0.  1.
<mgrwt>
<rscale>  0 0.21358991E+04</rscale>
<asrwt>0</asrwt>
<pdfrwt beam="1">  1        2 0.16738133E+00 0.21358991E+04</pdfrwt>
<pdfrwt beam="2">  1       -2 0.16127525E+00 0.21358991E+04</pdfrwt>
<totfact> 0.50194119E+00</totfact>
</mgrwt>
</event>
<event>
 6    1  0.2436515E-005  0.3173996E+03  0.7818608E-02  0.1076852E+00
          2   -1    0    0  501    0  0.00000000000E+00  0.00000000000E+00  0.63759207864E+03  0.63759207864E+03  0.00000000000E+00 0.  1.
         -2   -1    0    0    0  501 -0.00000000000E+00 -0.00000000000E+00 -0.39501152719E+02  0.39501152719E+02  0.00000000000E+00 0. -1.
         23    2    1    2    0    0  0.77526667158E+02 -0.63951983419E+02  0.54834710847E+03  0.56495631648E+03  0.91601571265E+02 0.  0.
         11    1    3    3    0    0  0.66581277245E+02 -0.75782491439E+02  0.30862128533E+03  0.32468931342E+03  0.00000000000E+00 0. -1.
        -11    1    3    3    0    0  0.10945389913E+02  0.11830508020E+02  0.23972582314E+03  0.24026700306E+03  0.00000000000E+00 0.  1.
         22    1    1    2    0    0 -0.77526667158E+02  0.63951983419E+02  0.49743817447E+02  0.11213691488E+03  0.00000000000E+00 0. -1.
<mgrwt>
<rscale>  0 0.31739957E+03</rscale>
<asrwt>0</asrwt>
<pdfrwt beam="1">  1        2 0.98091082E-01 0.31739957E+03</pdfrwt>
<pdfrwt beam="2">  1       -2 0.60771009E-02 0.31739957E+03</pdfrwt>
<totfact> 0.68240780E+03</totfact>
</mgrwt>
</event>
<event>
 6    1  0.2436515E-005  0.2427450E+04  0.7818608E-02  0.8429298E-01
          2   -1    0    0  501    0  0.00000000000E+00  0.00000000000E+00  0.24179778150E+04  0.24179778150E+04  0.00000000000E+00 0.  1.
         -2   -1    0    0    0  501 -0.00000000000E+00 -0.00000000000E+00 -0.60923981019E+03  0.60923981019E+03  0.00000000000E+00 0. -1.
         23    2    1    2    0    0 -0.55441652908E+03 -0.24918417539E+03  0.22132102672E+04  0.22971023931E+04  0.94388963381E+02 0.  0.
         11    1    3    3    0    0 -0.50607109808E+03 -0.21058404028E+03  0.18835084679E+04  0.19616466917E+04  0.00000000000E+00 0. -1.
        -11    1    3    3    0    0 -0.48345431002E+02 -0.38600135108E+02  0.32970179937E+03  0.33545570145E+03  0.00000000000E+00 0.  1.
         22    1    1    2    0    0  0.55441652908E+03  0.24918417539E+03 -0.40447226246E+03  0.73011523205E+03  0.00000000000E+00 0. -1.
<mgrwt>
<rscale>  0 0.24274500E+04</rscale>
<asrwt>0</asrwt>
<pdfrwt beam="1">  1        2 0.37199658E+00 0.24274500E+04</pdfrwt>
<pdfrwt beam="2">  1       -2 0.93729203E-01 0.24274500E+04</pdfrwt>
<totfact> 0.33494938E+00</totfact>
</mgrwt>
</event>
<event>
 6    1  0.2436515E-005  0.2434408E+04  0.7818608E-02  0.8426733E-01
          2   -1    0    0  501    0  0.00000000000E+00  0.00000000000E+00  0.66691766114E+03  0.66691766114E+03  0.00000000000E+00 0.  1.
         -2   -1    0    0    0  501 -0.00000000000E+00 -0.00000000000E+00 -0.22215425395E+04  0.22215425395E+04  0.00000000000E+00 0. -1.
         23    2    1    2    0    0 -0.11596973637E+04  0.32884313538E+03 -0.96331213997E+03  0.15458185740E+04  0.92460812629E+02 0.  0.
         13    1    3    3    0    0 -0.12957586178E+03  0.29013559760E+02 -0.14406504725E+03  0.19592454783E+03  0.00000000000E+00 0.  1.
        -13    1    3    3    0    0 -0.10301215019E+04  0.29982957562E+03 -0.81924709272E+03  0.13498940262E+04  0.00000000000E+00 0. -1.
         22    1    1    2    0    0  0.11596973637E+04 -0.32884313538E+03 -0.59131273840E+03  0.13426416266E+04  0.00000000000E+00 0. -1.
<mgrwt>
<rscale>  0 0.24344083E+04</rscale>
<asrwt>0</asrwt>
<pdfrwt beam="1">  1        2 0.10260272E+00 0.24344083E+04</pdfrwt>
<pdfrwt beam="2">  1       -2 0.34177577E+00 0.24344083E+04</pdfrwt>
<totfact> 0.68479374E-01</totfact>
</mgrwt>
</event>
<event>
 6    1  0.2436515E-005  0.1273622E+04  0.7818608E-02  0.9050749E-01
          2   -1    0    0  501    0  0.00000000000E+00  0.00000000000E+00  0.19688705937E+04  0.19688705937E+04  0.00000000000E+00 0.  1.
         -2   -1    0    0    0  501 -0.00000000000E+00 -0.00000000000E+00 -0.20596992069E+03  0.20596992069E+03  0.00000000000E+00 0. -1.
         23    2    1    2    0    0  0.15998770446E+02 -0.49107122755E+03  0.20238648126E+03  0.53880522937E+03  0.89128425399E+02 0.  0.
         11    1    3    3    0    0  0.27468192931E+02 -0.53525675956E+02  0.38536363222E+02  0.71446139852E+02  0.00000000000E+00 0. -1.
        -11    1    3    3    0    0 -0.11469422485E+02 -0.43754555159E+03  0.16385011804E+03  0.46735908952E+03  0.00000000000E+00 0.  1.
         22    1    1    2    0    0 -0.15998770446E+02  0.49107122755E+03  0.15605141918E+04  0.16360352851E+04  0.00000000000E+00 0.  1.
<mgrwt>
<rscale>  0 0.12736218E+04</rscale>
<asrwt>0</asrwt>
<pdfrwt beam="1">  1        2 0.30290316E+00 0.12736218E+04</pdfrwt>
<pdfrwt beam="2">  1       -2 0.31687681E-01 0.12736218E+04</pdfrwt>
<totfact> 0.63230339E+01</totfact>
</mgrwt>
</event>
<event>
 6    1  0.2436515E-005  0.4814529E+04  0.7818608E-02  0.7857773E-01
         -2   -1    0    0    0  501 -0.00000000000E+00  0.00000000000E+00  0.33518976413E+04  0.33518976413E+04  0.00000000000E+00 0. -1.
          2   -1    0    0  501    0  0.00000000000E+00 -0.00000000000E+00 -0.17288481134E+04  0.17288481134E+04  0.00000000000E+00 0.  1.
         23    2    1    2    0    0 -0.10921443127E+04  0.98172262696E+03  0.28236425015E+04  0.31839110218E+04  0.88169736661E+02 0.  0.
         11    1    3    3    0    0 -0.39258117632E+03  0.40954089749E+03  0.10713373129E+04  0.12122736344E+04  0.00000000000E+00 0.  1.
        -11    1    3    3    0    0 -0.69956313634E+03  0.57218172947E+03  0.17523051886E+04  0.19716373873E+04  0.00000000000E+00 0. -1.
         22    1    1    2    0    0  0.10921443127E+04 -0.98172262696E+03 -0.12005929736E+04  0.18968347329E+04  0.00000000000E+00 0.  1.
<mgrwt>
<rscale>  0 0.48145288E+04</rscale>
<asrwt>0</asrwt>
<pdfrwt beam="1">  1        2 0.26597663E+00 0.48145288E+04</pdfrwt>
<pdfrwt beam="2">  1       -2 0.51567656E+00 0.48145288E+04</pdfrwt>
<totfact> 0.93133984E-03</totfact>
</mgrwt>
</event>
<event>
 6    1  0.2436515E-005  0.2222963E+04  0.7818608E-02  0.8508931E-01
          1   -1    0    0  501    0  0.00000000000E+00  0.00000000000E+00  0.18260891866E+04  0.18260891866E+04  0.00000000000E+00 0.  1.
         -1   -1    0    0    0  501 -0.00000000000E+00 -0.00000000000E+00 -0.67652266688E+03  0.67652266688E+03  0.00000000000E+00 0. -1.
         23    2    1    2    0    0  0.20735872820E+03  0.10389064321E+04  0.20411558486E+03  0.10826816837E+04  0.90621407199E+02 0.  0.
         13    1    3    3    0    0  0.19420963414E+03  0.97244561941E+03  0.16758038713E+03  0.10057092278E+04  0.00000000000E+00 0.  1.
        -13    1    3    3    0    0  0.13149094059E+02  0.66460812682E+02  0.36535197730E+02  0.76972455918E+02  0.00000000000E+00 0. -1.
         22    1    1    2    0    0 -0.20735872820E+03 -0.10389064321E+04  0.94545093485E+03  0.14199301698E+04  0.00000000000E+00 0.  1.
<mgrwt>
<rscale>  0 0.22229626E+04</rscale>
<asrwt>0</asrwt>
<pdfrwt beam="1">  1        1 0.28093680E+00 0.22229626E+04</pdfrwt>
<pdfrwt beam="2">  1       -1 0.10408041E+00 0.22229626E+04</pdfrwt>
<totfact> 0.30919445E+00</totfact>
</mgrwt>
</event>
<event>
 6    1  0.2436515E-005  0.2640024E+04  0.7818608E-02  0.8354732E-01
          2   -1    0    0  501    0  0.00000000000E+00  0.00000000000E+00  0.11901514265E+04  0.11901514265E+04  0.00000000000E+00 0.  1.
         -2   -1    0    0    0  501 -0.00000000000E+00 -0.00000000000E+00 -0.14640420418E+04  0.14640420418E+04  0.00000000000E+00 0. -1.
         23    2    1    2    0    0  0.78898571964E+03  0.92695179330E+03 -0.64662656694E+03  0.13811380168E+04  0.87625404919E+02 0.  0.
         13    1    3    3    0    0  0.13375308625E+03  0.21151372448E+03 -0.13542471783E+03  0.28454841051E+03  0.00000000000E+00 0. -1.
        -13    1    3    3    0    0  0.65523263338E+03  0.71543806882E+03 -0.51120184911E+03  0.10965896063E+04  0.00000000000E+00 0.  1.
         22    1    1    2    0    0 -0.78898571964E+03 -0.92695179330E+03  0.37273595169E+03  0.12730554515E+04  0.00000000000E+00 0.  1.
<mgrwt>
<rscale>  0 0.26400240E+04</rscale>
<asrwt>0</asrwt>
<pdfrwt beam="1">  1        2 0.18310022E+00 0.26400240E+04</pdfrwt>
<pdfrwt beam="2">  1       -2 0.22523724E+00 0.26400240E+04</pdfrwt>
<totfact> 0.15503190E+00</totfact>
</mgrwt>
</event>
<event>
 6    1  0.2436515E-005  0.2634053E+04  0.7818608E-02  0.8356725E-01
          2   -1    0    0  501    0  0.00000000000E+00  0.00000000000E+00  0.16197760487E+04  0.16197760487E+04  0.00000000000E+00 0.  1.
         -2   -1    0    0    0  501 -0.00000000000E+00 -0.00000000000E+00 -0.10708636623E+04  0.10708636623E+04  0.00000000000E+00 0. -1.
         23    2    1    2    0    0 -0.35402156042E+03 -0.16750673305E+03  0.15575649710E+04  0.16086185434E+04  0.90858177458E+02 0.  0.
         13    1    3    3    0    0 -0.25748741913E+03 -0.10419504640E+03  0.12397327481E+04  0.12704698601E+04  0.00000000000E+00 0. -1.
        -13    1    3    3    0    0 -0.96534141283E+02 -0.63311686654E+02  0.31783222281E+03  0.33814868321E+03  0.00000000000E+00 0.  1.
         22    1    1    2    0    0  0.35402156042E+03  0.16750673305E+03 -0.10086525846E+04  0.10820211677E+04  0.00000000000E+00 0. -1.
<mgrwt>
<rscale>  0 0.26340534E+04</rscale>
<asrwt>0</asrwt>
<pdfrwt beam="1">  1        2 0.24919631E+00 0.26340534E+04</pdfrwt>
<pdfrwt beam="2">  1       -2 0.16474826E+00 0.26340534E+04</pdfrwt>
<totfact> 0.22298444E+00</totfact>
</mgrwt>
</event>
<event>
 6    1  0.2436515E-005  0.2313872E+04  0.7818608E-02  0.8472472E-01
         -1   -1    0    0    0  501 -0.00000000000E+00  0.00000000000E+00  0.49518404846E+03  0.49518404846E+03  0.00000000000E+00 0. -1.
          1   -1    0    0  501    0  0.00000000000E+00 -0.00000000000E+00 -0.27030375617E+04  0.27030375617E+04  0.00000000000E+00 0.  1.
         23    2    1    2    0    0  0.58720034566E+03  0.91081263388E+03 -0.16588306111E+04  0.19833923847E+04  0.87991222577E+02 0.  0.
         13    1    3    3    0    0  0.84941287972E+02  0.89416641425E+02 -0.16084469965E+03  0.20268541036E+03  0.00000000000E+00 0.  1.
        -13    1    3    3    0    0  0.50225905769E+03  0.82139599246E+03 -0.14979859115E+04  0.17807069743E+04  0.00000000000E+00 0. -1.
         22    1    1    2    0    0 -0.58720034566E+03 -0.91081263388E+03 -0.54902290209E+03  0.12148292254E+04  0.00000000000E+00 0. -1.
<mgrwt>
<rscale>  0 0.23138722E+04</rscale>
<asrwt>0</asrwt>
<pdfrwt beam="1">  1        1 0.41585193E+00 0.23138722E+04</pdfrwt>
<pdfrwt beam="2">  1       -1 0.76182163E-01 0.23138722E+04</pdfrwt>
<totfact> 0.15254289E+00</totfact>
</mgrwt>
</event>
<event>
 6    1  0.2436515E-005  0.2088225E+04  0.7818608E-02  0.8566448E-01
          2   -1    0    0  501    0  0.00000000000E+00  0.00000000000E+00  0.16454641592E+04  0.16454641592E+04  0.00000000000E+00 0.  1.
         -2   -1    0    0    0  501 -0.00000000000E+00 -0.00000000000E+00 -0.66253112490E+03  0.66253112490E+03  0.00000000000E+00 0. -1.
         23    2    1    2    0    0  0.13845659955E+03  0.12785871477E+03  0.16254345530E+04  0.16384235684E+04  0.82922991463E+02 0.  0.
         11    1    3    3    0    0  0.53688776357E+02  0.60549437746E+02  0.10342933886E+04  0.10374543521E+04  0.00000000000E+00 0. -1.
        -11    1    3    3    0    0  0.84767823197E+02  0.67309277023E+02  0.59114116441E+03  0.60096921625E+03  0.00000000000E+00 0.  1.
         22    1    1    2    0    0 -0.13845659955E+03 -0.12785871477E+03 -0.64250151871E+03  0.66957171568E+03  0.00000000000E+00 0. -1.
<mgrwt>
<rscale>  0 0.20882253E+04</rscale>
<asrwt>0</asrwt>
<pdfrwt beam="1">  1        2 0.25314833E+00 0.20882253E+04</pdfrwt>
<pdfrwt beam="2">  1       -2 0.10192787E+00 0.20882253E+04</pdfrwt>
<totfact> 0.76581971E+00</totfact>
</mgrwt>
</event>
<event>
 6    1  0.2436515E-005  0.2783180E+04  0.7818608E-02  0.8308509E-01
          2   -1    0    0  501    0  0.00000000000E+00  0.00000000000E+00  0.22843909791E+04  0.22843909791E+04  0.00000000000E+00 0.  1.
         -2   -1    0    0    0  501 -0.00000000000E+00 -0.00000000000E+00 -0.84771954166E+03  0.84771954166E+03  0.00000000000E+00 0. -1.
         23    2    1    2    0    0 -0.53700940661E+03 -0.10539095748E+04 -0.10260696749E+03  0.11908525517E+04  0.92179799319E+02 0.  0.
         11    1    3    3    0    0 -0.76679239887E+02 -0.91023701631E+02 -0.15854111921E+02  0.12006820126E+03  0.00000000000E+00 0.  1.
        -11    1    3    3    0    0 -0.46033016672E+03 -0.96288587317E+03 -0.86752855571E+02  0.10707843504E+04  0.00000000000E+00 0. -1.
         22    1    1    2    0    0  0.53700940661E+03  0.10539095748E+04  0.15392784049E+04  0.19412579691E+04  0.00000000000E+00 0. -1.
<mgrwt>
<rscale>  0 0.27831801E+04</rscale>
<asrwt>0</asrwt>
<pdfrwt beam="1">  1        2 0.35144476E+00 0.27831801E+04</pdfrwt>
<pdfrwt beam="2">  1       -2 0.13041839E+00 0.27831801E+04</pdfrwt>
<totfact> 0.17366032E+00</totfact>
</mgrwt>
</event>
<event>
 6    1  0.2436515E-005  0.1438592E+04  0.7818608E-02  0.8926348E-01
          2   -1    0    0  501    0  0.00000000000E+00  0.00000000000E+00  0.15163946526E+04  0.15163946526E+04  0.00000000000E+00 0.  1.
         -2   -1    0    0    0  501 -0.00000000000E+00 -0.00000000000E+00 -0.34119543685E+03  0.34119543685E+03  0.00000000000E+00 0. -1.
         23    2    1    2    0    0  0.51194429694E+03 -0.35115791446E+02  0.12355858863E+04  0.13409019515E+04  0.89585038556E+02 0.  0.
         11    1    3    3    0    0  0.33458752053E+03 -0.53386839175E+02  0.88361811822E+03  0.94635085583E+03  0.00000000000E+00 0. -1.
        -11    1    3    3    0    0  0.17735677641E+03  0.18271047730E+02  0.35196776808E+03  0.39455109567E+03  0.00000000000E+00 0.  1.
         22    1    1    2    0    0 -0.51194429694E+03  0.35115791446E+02 -0.60386670503E+02  0.51668813800E+03  0.00000000000E+00 0. -1.
<mgrwt>
<rscale>  0 0.14385923E+04</rscale>
<asrwt>0</asrwt>
<pdfrwt beam="1">  1        2 0.23329148E+00 0.14385923E+04</pdfrwt>
<pdfrwt beam="2">  1       -2 0.52491606E-01 0.14385923E+04</pdfrwt>
<totfact> 0.41296061E+01</totfact>
</mgrwt>
</event>
<event>
 6    1  0.2436515E-005  0.3524857E+04  0.7818608E-02  0.8107924E-01
          2   -1    0    0  501    0  0.00000000000E+00  0.00000000000E+00  0.13023504106E+04  0.13023504106E+04  0.00000000000E+00 0.  1.
         -2   -1    0    0    0  501 -0.00000000000E+00 -0.00000000000E+00 -0.23850376542E+04  0.23850376542E+04  0.00000000000E+00 0. -1.
         23    2    1    2    0    0  0.16183353666E+04  0.53198471137E+03 -0.10089059811E+04  0.19822602788E+04  0.97197955322E+02 0.  0.
         13    1    3    3    0    0  0.92287370689E+03  0.32002889379E+03 -0.63091865658E+03  0.11628296190E+04  0.00000000000E+00 0.  1.
        -13    1    3    3    0    0  0.69546165967E+03  0.21195581758E+03 -0.37798732454E+03  0.81943065978E+03  0.00000000000E+00 0. -1.
         22    1    1    2    0    0 -0.16183353666E+04 -0.53198471137E+03 -0.73781262563E+02  0.17051277860E+04  0.00000000000E+00 0.  1.
<mgrwt>
<rscale>  0 0.35248573E+04</rscale>
<asrwt>0</asrwt>
<pdfrwt beam="1">  1        2 0.20036160E+00 0.35248573E+04</pdfrwt>
<pdfrwt beam="2">  1       -2 0.36692887E+00 0.35248573E+04</pdfrwt>
<totfact> 0.16406133E-01</totfact>
</mgrwt>
</event>
<event>
 6    1  0.2436515E-005  0.3408000E+04  0.7818608E-02  0.8135946E-01
         -2   -1    0    0    0  501 -0.00000000000E+00  0.00000000000E+00  0.12060113694E+04  0.12060113694E+04  0.00000000000E+00 0.  1.
          2   -1    0    0  501    0  0.00000000000E+00 -0.00000000000E+00 -0.24076188133E+04  0.24076188133E+04  0.00000000000E+00 0. -1.
         23    2    1    2    0    0  0.15014044831E+04 -0.74168809203E+03 -0.27348832269E+03  0.16990227162E+04  0.86980916310E+02 0.  0.
         13    1    3    3    0    0  0.59032580012E+03 -0.33868961315E+03 -0.11766341722E+03  0.69068073963E+03  0.00000000000E+00 0.  1.
        -13    1    3    3    0    0  0.91107868297E+03 -0.40299847888E+03 -0.15582490547E+03  0.10083419766E+04  0.00000000000E+00 0. -1.
         22    1    1    2    0    0 -0.15014044831E+04  0.74168809203E+03 -0.92811912125E+03  0.19146074665E+04  0.00000000000E+00 0. -1.
<mgrwt>
<rscale>  0 0.34079998E+04</rscale>
<asrwt>0</asrwt>
<pdfrwt beam="1">  1        2 0.37040289E+00 0.34079998E+04</pdfrwt>
<pdfrwt beam="2">  1       -2 0.18554021E+00 0.34079998E+04</pdfrwt>
<totfact> 0.54129789E-01</totfact>
</mgrwt>
</event>
<event>
 6    1  0.2436515E-005  0.2825832E+04  0.7818608E-02  0.8295293E-01
         -2   -1    0    0    0  501 -0.00000000000E+00  0.00000000000E+00  0.60917660812E+03  0.60917660812E+03  0.00000000000E+00 0. -1.
          2   -1    0    0  501    0  0.00000000000E+00 -0.00000000000E+00 -0.32770976104E+04  0.32770976104E+04  0.00000000000E+00 0.  1.
         23    2    1    2    0    0  0.39893894268E+03 -0.43259125795E+03  0.42927424040E+03  0.73367119123E+03  0.87804139575E+02 0.  0.
         11    1    3    3    0    0  0.35738150848E+03 -0.42017059521E+03  0.39772413300E+03  0.68003629142E+03  0.00000000000E+00 0. -1.
        -11    1    3    3    0    0  0.41557434197E+02 -0.12420662739E+02  0.31550107406E+02  0.53634899806E+02  0.00000000000E+00 0.  1.
         22    1    1    2    0    0 -0.39893894268E+03  0.43259125795E+03 -0.30971952427E+04  0.31526030273E+04  0.00000000000E+00 0.  1.
<mgrwt>
<rscale>  0 0.28258317E+04</rscale>
<asrwt>0</asrwt>
<pdfrwt beam="1">  1        2 0.50416887E+00 0.28258317E+04</pdfrwt>
<pdfrwt beam="2">  1       -2 0.93719477E-01 0.28258317E+04</pdfrwt>
<totfact> 0.96331707E-01</totfact>
</mgrwt>
</event>
<event>
 6    1  0.2436515E-005  0.2823658E+04  0.7818608E-02  0.8295961E-01
         -2   -1    0    0    0  501 -0.00000000000E+00  0.00000000000E+00  0.14414404281E+04  0.14414404281E+04  0.00000000000E+00 0. -1.
          2   -1    0    0  501    0  0.00000000000E+00 -0.00000000000E+00 -0.13828262807E+04  0.13828262807E+04  0.00000000000E+00 0.  1.
         23    2    1    2    0    0 -0.49338242038E+03  0.85580836206E+03  0.10363601811E+04  0.14343669025E+04  0.86786063896E+02 0.  0.
         13    1    3    3    0    0 -0.31674864206E+03  0.62643619048E+03  0.74622310113E+03  0.10245003268E+04  0.00000000000E+00 0. -1.
        -13    1    3    3    0    0 -0.17663377832E+03  0.22937217158E+03  0.29013707992E+03  0.40986657571E+03  0.00000000000E+00 0.  1.
         22    1    1    2    0    0  0.49338242038E+03 -0.85580836206E+03 -0.97774603367E+03  0.13898998063E+04  0.00000000000E+00 0.  1.
<mgrwt>
<rscale>  0 0.28236584E+04</rscale>
<asrwt>0</asrwt>
<pdfrwt beam="1">  1        2 0.21274250E+00 0.28236584E+04</pdfrwt>
<pdfrwt beam="2">  1       -2 0.22176007E+00 0.28236584E+04</pdfrwt>
<totfact> 0.12384800E+00</totfact>
</mgrwt>
</event>
<event>
 6    1  0.2436515E-005  0.3779235E+04  0.7818608E-02  0.8050626E-01
         -2   -1    0    0    0  501 -0.00000000000E+00  0.00000000000E+00  0.18893629010E+04  0.18893629010E+04  0.00000000000E+00 0. -1.
          2   -1    0    0  501    0  0.00000000000E+00 -0.00000000000E+00 -0.18898724501E+04  0.18898724501E+04  0.00000000000E+00 0.  1.
         23    2    1    2    0    0  0.25806157184E+03 -0.28805436922E+03  0.18482655820E+04  0.18904419321E+04  0.90077426721E+02 0.  0.
         11    1    3    3    0    0  0.20462647856E+03 -0.16833531808E+03  0.11710165963E+04  0.12006201081E+04  0.00000000000E+00 0. -1.
        -11    1    3    3    0    0  0.53435093285E+02 -0.11971905115E+03  0.67724898564E+03  0.68982182406E+03  0.00000000000E+00 0.  1.
         22    1    1    2    0    0 -0.25806157184E+03  0.28805436922E+03 -0.18487751310E+04  0.18887934190E+04  0.00000000000E+00 0.  1.
<mgrwt>
<rscale>  0 0.37792353E+04</rscale>
<asrwt>0</asrwt>
<pdfrwt beam="1">  1        2 0.29074961E+00 0.37792353E+04</pdfrwt>
<pdfrwt beam="2">  1       -2 0.29067121E+00 0.37792353E+04</pdfrwt>
<totfact> 0.22394290E-01</totfact>
</mgrwt>
</event>
<event>
 6    1  0.2436515E-005  0.2112755E+04  0.7818608E-02  0.8555645E-01
         -2   -1    0    0    0  501 -0.00000000000E+00  0.00000000000E+00  0.46898988650E+03  0.46898988650E+03  0.00000000000E+00 0. -1.
          2   -1    0    0  501    0  0.00000000000E+00 -0.00000000000E+00 -0.23794400122E+04  0.23794400122E+04  0.00000000000E+00 0.  1.
         23    2    1    2    0    0 -0.35873170442E+03  0.96855660291E+03 -0.67193051840E+03  0.12357547465E+04  0.93855437751E+02 0.  0.
         13    1    3    3    0    0 -0.23741716027E+03  0.66037880423E+03 -0.40392048481E+03  0.80970292769E+03  0.00000000000E+00 0. -1.
        -13    1    3    3    0    0 -0.12131454415E+03  0.30817779869E+03 -0.26801003359E+03  0.42605181883E+03  0.00000000000E+00 0.  1.
         22    1    1    2    0    0  0.35873170442E+03 -0.96855660291E+03 -0.12385196073E+04  0.16126751522E+04  0.00000000000E+00 0.  1.
<mgrwt>
<rscale>  0 0.21127549E+04</rscale>
<asrwt>0</asrwt>
<pdfrwt beam="1">  1        2 0.36606768E+00 0.21127549E+04</pdfrwt>
<pdfrwt beam="2">  1       -2 0.72152292E-01 0.21127549E+04</pdfrwt>
<totfact> 0.65416112E+00</totfact>
</mgrwt>
</event>
<event>
 6    1  0.2436515E-005  0.5362458E+04  0.7818608E-02  0.7774904E-01
         -2   -1    0    0    0  501 -0.00000000000E+00  0.00000000000E+00  0.15030855694E+04  0.15030855694E+04  0.00000000000E+00 0. -1.
          2   -1    0    0  501    0  0.00000000000E+00 -0.00000000000E+00 -0.47828199697E+04  0.47828199697E+04  0.00000000000E+00 0.  1.
         23    2    1    2    0    0 -0.97556189646E+03 -0.24837154496E+04 -0.19372647311E+04  0.32988018815E+04  0.92389211341E+02 0.  0.
         13    1    3    3    0    0 -0.44388487054E+03 -0.12496093243E+04 -0.98075627996E+03  0.16493756766E+04  0.00000000000E+00 0.  1.
        -13    1    3    3    0    0 -0.53167702592E+03 -0.12341061253E+04 -0.95650845117E+03  0.16494262050E+04  0.00000000000E+00 0. -1.
         22    1    1    2    0    0  0.97556189646E+03  0.24837154496E+04 -0.13424696692E+04  0.29871036576E+04  0.00000000000E+00 0.  1.
<mgrwt>
<rscale>  0 0.53624575E+04</rscale>
<asrwt>0</asrwt>
<pdfrwt beam="1">  1        2 0.73581846E+00 0.53624575E+04</pdfrwt>
<pdfrwt beam="2">  1       -2 0.23124393E+00 0.53624575E+04</pdfrwt>
<totfact> 0.36430655E-03</totfact>
</mgrwt>
</event>
<event>
 6    1  0.2436515E-005  0.1445498E+04  0.7818608E-02  0.8921527E-01
          2   -1    0    0  501    0  0.00000000000E+00  0.00000000000E+00  0.30154256046E+04  0.30154256046E+04  0.00000000000E+00 0.  1.
         -2   -1    0    0    0  501 -0.00000000000E+00 -0.00000000000E+00 -0.17323140622E+03  0.17323140622E+03  0.00000000000E+00 0. -1.
         23    2    1    2    0    0 -0.17009466548E+03  0.48973018930E+03  0.25285630601E+04  0.25827425413E+04  0.90332896146E+02 0.  0.
         11    1    3    3    0    0 -0.11348679218E+03  0.31162303413E+03  0.18186882706E+04  0.18486793105E+04  0.00000000000E+00 0.  1.
        -11    1    3    3    0    0 -0.56607873309E+02  0.17810715517E+03  0.70987478942E+03  0.73406323073E+03  0.00000000000E+00 0. -1.
         22    1    1    2    0    0  0.17009466548E+03 -0.48973018930E+03  0.31363113834E+03  0.60591446960E+03  0.00000000000E+00 0. -1.
<mgrwt>
<rscale>  0 0.14454984E+04</rscale>
<asrwt>0</asrwt>
<pdfrwt beam="1">  1        2 0.46391159E+00 0.14454984E+04</pdfrwt>
<pdfrwt beam="2">  1       -2 0.26650988E-01 0.14454984E+04</pdfrwt>
<totfact> 0.21267000E+01</totfact>
</mgrwt>
</event>
<event>
 6    1  0.2436515E-005  0.1566732E+03  0.7818608E-02  0.1192505E+00
          1   -1    0    0  501    0  0.00000000000E+00  0.00000000000E+00  0.26404792509E+02  0.26404792509E+02  0.00000000000E+00 0.  1.
         -1   -1    0    0    0  501 -0.00000000000E+00 -0.00000000000E+00 -0.23240555780E+03  0.23240555780E+03  0.00000000000E+00 0. -1.
         23    2    1    2    0    0 -0.98350086003E+01  0.44155093944E+02 -0.17883243207E+03  0.20604181759E+03  0.91792113614E+02 0.  0.
         11    1    3    3    0    0  0.29035449531E+02  0.32604741799E+02 -0.33142166506E+02  0.54813590632E+02  0.00000000000E+00 0. -1.
        -11    1    3    3    0    0 -0.38870458131E+02  0.11550352146E+02 -0.14569026556E+03  0.15122822696E+03  0.00000000000E+00 0.  1.
         22    1    1    2    0    0  0.98350086003E+01 -0.44155093944E+02 -0.27168333229E+02  0.52768532724E+02  0.00000000000E+00 0.  1.
<mgrwt>
<rscale>  0 0.15667317E+03</rscale>
<asrwt>0</asrwt>
<pdfrwt beam="1">  1        1 0.40622757E-02 0.15667317E+03</pdfrwt>
<pdfrwt beam="2">  1       -1 0.35754702E-01 0.15667317E+03</pdfrwt>
<totfact> 0.15846460E+04</totfact>
</mgrwt>
</event>
<event>
 6    1  0.2436515E-005  0.2144498E+04  0.7818608E-02  0.8541891E-01
         -2   -1    0    0    0  501 -0.00000000000E+00  0.00000000000E+00  0.73301429030E+03  0.73301429030E+03  0.00000000000E+00 0. -1.
          2   -1    0    0  501    0  0.00000000000E+00 -0.00000000000E+00 -0.15684801415E+04  0.15684801415E+04  0.00000000000E+00 0.  1.
         23    2    1    2    0    0  0.25210745468E+03  0.10216999071E+04 -0.20884033356E+03  0.10767134684E+04  0.90932608100E+02 0.  0.
         13    1    3    3    0    0  0.17230230820E+03  0.62985905478E+03 -0.17113999537E+03  0.67505511799E+03  0.00000000000E+00 0.  1.
        -13    1    3    3    0    0  0.79805146475E+02  0.39184085235E+03 -0.37700338196E+02  0.40165835043E+03  0.00000000000E+00 0. -1.
         22    1    1    2    0    0 -0.25210745468E+03 -0.10216999071E+04 -0.62662551766E+03  0.12247809634E+04  0.00000000000E+00 0.  1.
<mgrwt>
<rscale>  0 0.21444984E+04</rscale>
<asrwt>0</asrwt>
<pdfrwt beam="1">  1        2 0.24130464E+00 0.21444984E+04</pdfrwt>
<pdfrwt beam="2">  1       -2 0.11277143E+00 0.21444984E+04</pdfrwt>
<totfact> 0.65969741E+00</totfact>
</mgrwt>
</event>
<event>
 6    1  0.2436515E-005  0.1428228E+04  0.7818608E-02  0.8933635E-01
          2   -1    0    0  501    0  0.00000000000E+00  0.00000000000E+00  0.30992001906E+04  0.30992001906E+04  0.00000000000E+00 0.  1.
         -2   -1    0    0    0  501 -0.00000000000E+00 -0.00000000000E+00 -0.16454531990E+03  0.16454531990E+03  0.00000000000E+00 0. -1.
         23    2    1    2    0    0 -0.45005516263E+03  0.54006112314E+03  0.12337294796E+04  0.14232665369E+04  0.96868674573E+02 0.  0.
         11    1    3    3    0    0 -0.25238719691E+03  0.23942168435E+03  0.65943483449E+03  0.74557115090E+03  0.00000000000E+00 0.  1.
        -11    1    3    3    0    0 -0.19766796572E+03  0.30063943879E+03  0.57429464507E+03  0.67769538598E+03  0.00000000000E+00 0. -1.
         22    1    1    2    0    0  0.45005516263E+03 -0.54006112314E+03  0.17009253912E+04  0.18404789736E+04  0.00000000000E+00 0.  1.
<mgrwt>
<rscale>  0 0.14282281E+04</rscale>
<asrwt>0</asrwt>
<pdfrwt beam="1">  1        2 0.47679999E+00 0.14282281E+04</pdfrwt>
<pdfrwt beam="2">  1       -2 0.25314667E-01 0.14282281E+04</pdfrwt>
<totfact> 0.20727241E+01</totfact>
</mgrwt>
</event>
<event>
 6    1  0.2436515E-005  0.1037158E+04  0.7818608E-02  0.9268704E-01
         -2   -1    0    0    0  501 -0.00000000000E+00  0.00000000000E+00  0.14168698861E+03  0.14168698861E+03  0.00000000000E+00 0. -1.
          2   -1    0    0  501    0  0.00000000000E+00 -0.00000000000E+00 -0.18980145069E+04  0.18980145069E+04  0.00000000000E+00 0.  1.
         23    2    1    2    0    0  0.23233893436E+03  0.13493431388E+03 -0.17480563684E+04  0.17708947594E+04  0.90435237058E+02 0.  0.
         11    1    3    3    0    0  0.42360052018E+02  0.60990505577E+02 -0.32944707958E+03  0.33771229474E+03  0.00000000000E+00 0.  1.
        -11    1    3    3    0    0  0.18997888234E+03  0.73943808304E+02 -0.14186092889E+04  0.14331824646E+04  0.00000000000E+00 0. -1.
         22    1    1    2    0    0 -0.23233893436E+03 -0.13493431388E+03 -0.82711498790E+01  0.26880673615E+03  0.00000000000E+00 0. -1.
<mgrwt>
<rscale>  0 0.10371576E+04</rscale>
<asrwt>0</asrwt>
<pdfrwt beam="1">  1        2 0.29200225E+00 0.10371576E+04</pdfrwt>
<pdfrwt beam="2">  1       -2 0.21797997E-01 0.10371576E+04</pdfrwt>
<totfact> 0.13949140E+02</totfact>
</mgrwt>
</event>
<event>
 6    1  0.2436515E-005  0.2969689E+04  0.7818608E-02  0.8252440E-01
          2   -1    0    0  501    0  0.00000000000E+00  0.00000000000E+00  0.23339098367E+04  0.23339098367E+04  0.00000000000E+00 0.  1.
         -2   -1    0    0    0  501 -0.00000000000E+00 -0.00000000000E+00 -0.94466533523E+03  0.94466533523E+03  0.00000000000E+00 0. -1.
         23    2    1    2    0    0 -0.11319659765E+04  0.11286849139E+03 -0.35585918871E+03  0.11954349563E+04  0.91338405913E+02 0.  0.
         11    1    3    3    0    0 -0.18192909734E+03 -0.15169881317E+02 -0.52692470497E+02  0.19001267906E+03  0.00000000000E+00 0. -1.
        -11    1    3    3    0    0 -0.95003687915E+03  0.12803837271E+03 -0.30316671821E+03  0.10054222773E+04  0.00000000000E+00 0.  1.
         22    1    1    2    0    0  0.11319659765E+04 -0.11286849139E+03  0.17451036902E+04  0.20831402156E+04  0.00000000000E+00 0.  1.
<mgrwt>
<rscale>  0 0.29696894E+04</rscale>
<asrwt>0</asrwt>
<pdfrwt beam="1">  1        2 0.35906305E+00 0.29696894E+04</pdfrwt>
<pdfrwt beam="2">  1       -2 0.14533313E+00 0.29696894E+04</pdfrwt>
<totfact> 0.12120033E+00</totfact>
</mgrwt>
</event>
<event>
 6    1  0.2436515E-005  0.2328175E+04  0.7818608E-02  0.8466894E-01
         -2   -1    0    0    0  501 -0.00000000000E+00  0.00000000000E+00  0.20247280142E+04  0.20247280142E+04  0.00000000000E+00 0. -1.
          2   -1    0    0  501    0  0.00000000000E+00 -0.00000000000E+00 -0.66927512232E+03  0.66927512232E+03  0.00000000000E+00 0.  1.
         23    2    1    2    0    0 -0.24363621884E+03  0.31459593838E+03 -0.58484221068E+03  0.71332792422E+03  0.92016870726E+02 0.  0.
         11    1    3    3    0    0 -0.15234905443E+03  0.16624330042E+03 -0.25562164172E+03  0.34086579916E+03  0.00000000000E+00 0.  1.
        -11    1    3    3    0    0 -0.91287164409E+02  0.14835263796E+03 -0.32922056897E+03  0.37246212506E+03  0.00000000000E+00 0. -1.
         22    1    1    2    0    0  0.24363621884E+03 -0.31459593838E+03  0.19402951026E+04  0.19806752123E+04  0.00000000000E+00 0. -1.
<mgrwt>
<rscale>  0 0.23281753E+04</rscale>
<asrwt>0</asrwt>
<pdfrwt beam="1">  1        2 0.10296540E+00 0.23281753E+04</pdfrwt>
<pdfrwt beam="2">  1       -2 0.31149662E+00 0.23281753E+04</pdfrwt>
<totfact> 0.10600451E+00</totfact>
</mgrwt>
</event>
<event>
 6    1  0.2436515E-005  0.4780878E+03  0.7818608E-02  0.1019662E+00
         -2   -1    0    0    0  501 -0.00000000000E+00  0.00000000000E+00  0.22362823785E+03  0.22362823785E+03  0.00000000000E+00 0. -1.
          2   -1    0    0  501    0  0.00000000000E+00 -0.00000000000E+00 -0.25552228328E+03  0.25552228328E+03  0.00000000000E+00 0.  1.
         23    2    1    2    0    0 -0.14617809049E+02 -0.21338938265E+03 -0.10167524993E+03  0.25416579838E+03  0.92269646427E+02 0.  0.
         13    1    3    3    0    0 -0.29753313378E+02 -0.18520976907E+03 -0.51264890690E+02  0.19446338276E+03  0.00000000000E+00 0. -1.
        -13    1    3    3    0    0  0.15135504329E+02 -0.28179613574E+02 -0.50410359242E+02  0.59702415625E+02  0.00000000000E+00 0.  1.
         22    1    1    2    0    0  0.14617809049E+02  0.21338938265E+03  0.69781204505E+02  0.22498472275E+03  0.00000000000E+00 0. -1.
<mgrwt>
<rscale>  0 0.47808785E+03</rscale>
<asrwt>0</asrwt>
<pdfrwt beam="1">  1        2 0.39311121E-01 0.47808785E+03</pdfrwt>
<pdfrwt beam="2">  1       -2 0.34404344E-01 0.47808785E+03</pdfrwt>
<totfact> 0.10400986E+03</totfact>
</mgrwt>
</event>
<event>
 6    1  0.2436515E-005  0.9684397E+03  0.7818608E-02  0.9343853E-01
         -1   -1    0    0    0  501 -0.00000000000E+00  0.00000000000E+00  0.11705477909E+04  0.11705477909E+04  0.00000000000E+00 0. -1.
          1   -1    0    0  501    0  0.00000000000E+00 -0.00000000000E+00 -0.20030697482E+03  0.20030697482E+03  0.00000000000E+00 0.  1.
         23    2    1    2    0    0  0.39105244899E+03 -0.14107938396E+02  0.96210077438E+02  0.41322708031E+03  0.91537910830E+02 0.  0.
         11    1    3    3    0    0  0.13153444161E+03  0.33842784725E+02  0.53045562796E+02  0.14580972238E+03  0.00000000000E+00 0.  1.
        -11    1    3    3    0    0  0.25951800738E+03 -0.47950723121E+02  0.43164514642E+02  0.26741735793E+03  0.00000000000E+00 0. -1.
         22    1    1    2    0    0 -0.39105244899E+03  0.14107938396E+02  0.87403073865E+03  0.95762768543E+03  0.00000000000E+00 0. -1.
<mgrwt>
<rscale>  0 0.96843975E+03</rscale>
<asrwt>0</asrwt>
<pdfrwt beam="1">  1        1 0.30816458E-01 0.96843975E+03</pdfrwt>
<pdfrwt beam="2">  1       -1 0.18008427E+00 0.96843975E+03</pdfrwt>
<totfact> 0.31034078E+01</totfact>
</mgrwt>
</event>
<event>
 6    1  0.2436515E-005  0.2094187E+04  0.7818608E-02  0.8563808E-01
         -2   -1    0    0    0  501 -0.00000000000E+00  0.00000000000E+00  0.19026729090E+04  0.19026729090E+04  0.00000000000E+00 0. -1.
          2   -1    0    0  501    0  0.00000000000E+00 -0.00000000000E+00 -0.57624436913E+03  0.57624436913E+03  0.00000000000E+00 0.  1.
         23    2    1    2    0    0  0.52651679358E+03  0.23425669942E+03 -0.36766514299E+03  0.68949012358E+03  0.90126788431E+02 0.  0.
         11    1    3    3    0    0  0.22549321406E+03  0.14943457873E+03 -0.16747380185E+03  0.31815932677E+03  0.00000000000E+00 0. -1.
        -11    1    3    3    0    0  0.30102357952E+03  0.84822120689E+02 -0.20019134114E+03  0.37133079680E+03  0.00000000000E+00 0.  1.
         22    1    1    2    0    0 -0.52651679358E+03 -0.23425669942E+03  0.16940936828E+04  0.17894271545E+04  0.00000000000E+00 0. -1.
<mgrwt>
<rscale>  0 0.20941868E+04</rscale>
<asrwt>0</asrwt>
<pdfrwt beam="1">  1        2 0.88652980E-01 0.20941868E+04</pdfrwt>
<pdfrwt beam="2">  1       -2 0.29271891E+00 0.20941868E+04</pdfrwt>
<totfact> 0.16917876E+00</totfact>
</mgrwt>
</event>
<event>
 6    1  0.2436515E-005  0.8456063E+03  0.7818608E-02  0.9496253E-01
         -2   -1    0    0    0  501 -0.00000000000E+00  0.00000000000E+00  0.71271883918E+02  0.71271883918E+02  0.00000000000E+00 0. -1.
          2   -1    0    0  501    0  0.00000000000E+00 -0.00000000000E+00 -0.25081772055E+04  0.25081772055E+04  0.00000000000E+00 0.  1.
         23    2    1    2    0    0  0.11053479489E+02  0.41747152491E+03 -0.12612688531E+04  0.13318410743E+04  0.92719327534E+02 0.  0.
         11    1    3    3    0    0  0.40929158831E+02  0.98346740204E+02 -0.34968259850E+03  0.36554780405E+03  0.00000000000E+00 0.  1.
        -11    1    3    3    0    0 -0.29875679342E+02  0.31912478471E+03 -0.91158625462E+03  0.96629327020E+03  0.00000000000E+00 0. -1.
         22    1    1    2    0    0 -0.11053479489E+02 -0.41747152491E+03 -0.11756364685E+04  0.12476080152E+04  0.00000000000E+00 0. -1.
<mgrwt>
<rscale>  0 0.84560633E+03</rscale>
<asrwt>0</asrwt>
<pdfrwt beam="1">  1        2 0.38587337E+00 0.84560633E+03</pdfrwt>
<pdfrwt beam="2">  1       -2 0.10964907E-01 0.84560633E+03</pdfrwt>
<totfact> 0.20915651E+02</totfact>
</mgrwt>
</event>
<event>
 6    1  0.2436515E-005  0.2540262E+04  0.7818608E-02  0.8388781E-01
         -2   -1    0    0    0  501 -0.00000000000E+00  0.00000000000E+00  0.63000855460E+03  0.63000855460E+03  0.00000000000E+00 0. -1.
          2   -1    0    0  501    0  0.00000000000E+00 -0.00000000000E+00 -0.25606524127E+04  0.25606524127E+04  0.00000000000E+00 0.  1.
         23    2    1    2    0    0 -0.64918160862E+03  0.27080136220E+03  0.35935024763E+03  0.79507270072E+03  0.90762658697E+02 0.  0.
         13    1    3    3    0    0 -0.29822410428E+03  0.77589143452E+02  0.17032160889E+03  0.35208967894E+03  0.00000000000E+00 0. -1.
        -13    1    3    3    0    0 -0.35095750433E+03  0.19321221875E+03  0.18902863874E+03  0.44298302178E+03  0.00000000000E+00 0.  1.
         22    1    1    2    0    0  0.64918160862E+03 -0.27080136220E+03 -0.22899941057E+04  0.23955882665E+04  0.00000000000E+00 0.  1.
<mgrwt>
<rscale>  0 0.25402621E+04</rscale>
<asrwt>0</asrwt>
<pdfrwt beam="1">  1        2 0.39394653E+00 0.25402621E+04</pdfrwt>
<pdfrwt beam="2">  1       -2 0.96924391E-01 0.25402621E+04</pdfrwt>
<totfact> 0.25361793E+00</totfact>
</mgrwt>
</event>
<event>
 6    1  0.2436515E-005  0.3004282E+04  0.7818608E-02  0.8242509E-01
         -2   -1    0    0    0  501 -0.00000000000E+00  0.00000000000E+00  0.17504664740E+04  0.17504664740E+04  0.00000000000E+00 0. -1.
          2   -1    0    0  501    0  0.00000000000E+00 -0.00000000000E+00 -0.12890434312E+04  0.12890434312E+04  0.00000000000E+00 0.  1.
         23    2    1    2    0    0  0.73953419269E+03  0.10121379911E+04 -0.60328127211E+03  0.13948429439E+04  0.10151063903E+03 0.  0.
         11    1    3    3    0    0  0.50109211865E+03  0.61676845526E+03 -0.35133211858E+03  0.86886759424E+03  0.00000000000E+00 0. -1.
        -11    1    3    3    0    0  0.23844207404E+03  0.39536953580E+03 -0.25194915353E+03  0.52597534969E+03  0.00000000000E+00 0.  1.
         22    1    1    2    0    0 -0.73953419269E+03 -0.10121379911E+04  0.10647043149E+04  0.16446669612E+04  0.00000000000E+00 0. -1.
<mgrwt>
<rscale>  0 0.30042818E+04</rscale>
<asrwt>0</asrwt>
<pdfrwt beam="1">  1        2 0.19831438E+00 0.30042818E+04</pdfrwt>
<pdfrwt beam="2">  1       -2 0.26930253E+00 0.30042818E+04</pdfrwt>
<totfact> 0.70265712E-01</totfact>
</mgrwt>
</event>
<event>
 6    1  0.2818250E-005  0.5070376E+04  0.7818608E-02  0.7817742E-01
          1   -1    0    0  501    0  0.00000000000E+00  0.00000000000E+00  0.34185313697E+04  0.34185313697E+04  0.00000000000E+00 0.  1.
         -1   -1    0    0    0  501 -0.00000000000E+00 -0.00000000000E+00 -0.18800991127E+04  0.18800991127E+04  0.00000000000E+00 0. -1.
         23    2    1    2    0    0 -0.64827440215E+03 -0.14823310319E+04 -0.12690908641E+04  0.20582985450E+04  0.91849281909E+02 0.  0.
         11    1    3    3    0    0 -0.47098451087E+03 -0.11208197435E+04 -0.99776963291E+03  0.15727706595E+04  0.00000000000E+00 0. -1.
        -11    1    3    3    0    0 -0.17728989128E+03 -0.36151128838E+03 -0.27132123121E+03  0.48552788559E+03  0.00000000000E+00 0.  1.
         22    1    1    2    0    0  0.64827440215E+03  0.14823310319E+04  0.28075231211E+04  0.32403319373E+04  0.00000000000E+00 0.  1.
<mgrwt>
<rscale>  0 0.50703758E+04</rscale>
<asrwt>0</asrwt>
<pdfrwt beam="1">  1        1 0.52592790E+00 0.50703758E+04</pdfrwt>
<pdfrwt beam="2">  1       -1 0.28924602E+00 0.50703758E+04</pdfrwt>
<totfact> 0.80505995E-03</totfact>
</mgrwt>
</event>
<event>
 6    1  0.2436515E-005  0.1111357E+04  0.7818608E-02  0.9194193E-01
          1   -1    0    0  501    0  0.00000000000E+00  0.00000000000E+00  0.17512364022E+04  0.17512364022E+04  0.00000000000E+00 0.  1.
         -1   -1    0    0    0  501 -0.00000000000E+00 -0.00000000000E+00 -0.17632027392E+03  0.17632027392E+03  0.00000000000E+00 0. -1.
         23    2    1    2    0    0  0.32438431060E+03 -0.36639183944E+03  0.12351743808E+04  0.13318280332E+04  0.92962347851E+02 0.  0.
         13    1    3    3    0    0  0.20277566134E+03 -0.15947226814E+03  0.65480908948E+03  0.70379280815E+03  0.00000000000E+00 0. -1.
        -13    1    3    3    0    0  0.12160864926E+03 -0.20691957130E+03  0.58036529134E+03  0.62803522509E+03  0.00000000000E+00 0.  1.
         22    1    1    2    0    0 -0.32438431060E+03  0.36639183944E+03  0.33974174744E+03  0.59572864286E+03  0.00000000000E+00 0. -1.
<mgrwt>
<rscale>  0 0.11113568E+04</rscale>
<asrwt>0</asrwt>
<pdfrwt beam="1">  1        1 0.26942097E+00 0.11113568E+04</pdfrwt>
<pdfrwt beam="2">  1       -1 0.27126197E-01 0.11113568E+04</pdfrwt>
<totfact> 0.53322246E+01</totfact>
</mgrwt>
</event>
<event>
 6    1  0.2436515E-005  0.3814273E+04  0.7818608E-02  0.8043099E-01
         -2   -1    0    0    0  501 -0.00000000000E+00  0.00000000000E+00  0.11780196840E+04  0.11780196840E+04  0.00000000000E+00 0. -1.
          2   -1    0    0  501    0  0.00000000000E+00 -0.00000000000E+00 -0.30875290673E+04  0.30875290673E+04  0.00000000000E+00 0.  1.
         23    2    1    2    0    0  0.19540133994E+03 -0.17744089729E+04 -0.17023640352E+04  0.24684349313E+04  0.91754102032E+02 0.  0.
         13    1    3    3    0    0 -0.84616148116E+01 -0.47592228414E+02 -0.54231069709E+02  0.72647285238E+02  0.00000000000E+00 0. -1.
        -13    1    3    3    0    0  0.20386295475E+03 -0.17268167444E+04 -0.16481329655E+04  0.23957876461E+04  0.00000000000E+00 0.  1.
         22    1    1    2    0    0 -0.19540133994E+03  0.17744089729E+04 -0.20714534813E+03  0.17971138200E+04  0.00000000000E+00 0. -1.
<mgrwt>
<rscale>  0 0.38142732E+04</rscale>
<asrwt>0</asrwt>
<pdfrwt beam="1">  1        2 0.47500447E+00 0.38142732E+04</pdfrwt>
<pdfrwt beam="2">  1       -2 0.18123380E+00 0.38142732E+04</pdfrwt>
<totfact> 0.21808467E-01</totfact>
</mgrwt>
</event>
<event>
 6    1  0.2525569E-005  0.3566021E+04  0.7818608E-02  0.8098320E-01
         -2   -1    0    0    0  501 -0.00000000000E+00  0.00000000000E+00  0.13867549904E+04  0.13867549904E+04  0.00000000000E+00 0. -1.
          2   -1    0    0  501    0  0.00000000000E+00 -0.00000000000E+00 -0.22924930619E+04  0.22924930619E+04  0.00000000000E+00 0.  1.
         23    2    1    2    0    0 -0.13138441192E+04 -0.11472285795E+04 -0.77448558123E+02  0.17483458536E+04  0.91625113803E+02 0.  0.
         13    1    3    3    0    0 -0.71638726428E+03 -0.56518456105E+03 -0.45737997834E+02  0.91363902331E+03  0.00000000000E+00 0. -1.
        -13    1    3    3    0    0 -0.59745685494E+03 -0.58204401844E+03 -0.31710560289E+02  0.83470683030E+03  0.00000000000E+00 0.  1.
         22    1    1    2    0    0  0.13138441192E+04  0.11472285795E+04 -0.82828951337E+03  0.19309021988E+04  0.00000000000E+00 0.  1.
<mgrwt>
<rscale>  0 0.35660209E+04</rscale>
<asrwt>0</asrwt>
<pdfrwt beam="1">  1        2 0.35269124E+00 0.35660209E+04</pdfrwt>
<pdfrwt beam="2">  1       -2 0.21334692E+00 0.35660209E+04</pdfrwt>
<totfact> 0.40776783E-01</totfact>
</mgrwt>
</event>
<event>
 6    1  0.2436515E-005  0.2911970E+04  0.7818608E-02  0.8269325E-01
         -2   -1    0    0    0  501 -0.00000000000E+00  0.00000000000E+00  0.62307541900E+03  0.62307541900E+03  0.00000000000E+00 0. -1.
          2   -1    0    0  501    0  0.00000000000E+00 -0.00000000000E+00 -0.34023034863E+04  0.34023034863E+04  0.00000000000E+00 0.  1.
         23    2    1    2    0    0  0.13140025333E+04  0.24783802943E+03 -0.21825898083E+04  0.25611372727E+04  0.87746864258E+02 0.  0.
         11    1    3    3    0    0  0.11450820684E+04  0.18892169145E+03 -0.19161312238E+04  0.22401926738E+04  0.00000000000E+00 0. -1.
        -11    1    3    3    0    0  0.16892046491E+03  0.58916337987E+02 -0.26645858443E+03  0.32094459890E+03  0.00000000000E+00 0.  1.
         22    1    1    2    0    0 -0.13140025333E+04 -0.24783802943E+03 -0.59663825906E+03  0.14642416326E+04  0.00000000000E+00 0. -1.
<mgrwt>
<rscale>  0 0.29119696E+04</rscale>
<asrwt>0</asrwt>
<pdfrwt beam="1">  1        2 0.52343131E+00 0.29119696E+04</pdfrwt>
<pdfrwt beam="2">  1       -2 0.95857756E-01 0.29119696E+04</pdfrwt>
<totfact> 0.74704853E-01</totfact>
</mgrwt>
</event>
<event>
 6    1  0.2436515E-005  0.2599635E+04  0.7818608E-02  0.8368325E-01
         -2   -1    0    0    0  501 -0.00000000000E+00  0.00000000000E+00  0.51044931057E+03  0.51044931057E+03  0.00000000000E+00 0. -1.
          2   -1    0    0  501    0  0.00000000000E+00 -0.00000000000E+00 -0.33098782732E+04  0.33098782732E+04  0.00000000000E+00 0.  1.
         23    2    1    2    0    0  0.75618717409E+03  0.95628290782E+03 -0.20572851653E+04  0.23930667604E+04  0.89723052727E+02 0.  0.
         13    1    3    3    0    0  0.41072809925E+03  0.48415463541E+03 -0.99393623521E+03  0.11794119391E+04  0.00000000000E+00 0.  1.
        -13    1    3    3    0    0  0.34545907484E+03  0.47212827242E+03 -0.10633489301E+04  0.12136548213E+04  0.00000000000E+00 0. -1.
         22    1    1    2    0    0 -0.75618717409E+03 -0.95628290782E+03 -0.74214379729E+03  0.14272608234E+04  0.00000000000E+00 0. -1.
<mgrwt>
<rscale>  0 0.25996347E+04</rscale>
<asrwt>0</asrwt>
<pdfrwt beam="1">  1        2 0.50921205E+00 0.25996347E+04</pdfrwt>
<pdfrwt beam="2">  1       -2 0.78530662E-01 0.25996347E+04</pdfrwt>
<totfact> 0.13989197E+00</totfact>
</mgrwt>
</event>
<event>
 6    1  0.2436515E-005  0.9082012E+03  0.7818608E-02  0.9415387E-01
         -1   -1    0    0    0  501 -0.00000000000E+00  0.00000000000E+00  0.18357251271E+03  0.18357251271E+03  0.00000000000E+00 0. -1.
          1   -1    0    0  501    0  0.00000000000E+00 -0.00000000000E+00 -0.11233018674E+04  0.11233018674E+04  0.00000000000E+00 0.  1.
         23    2    1    2    0    0 -0.36587521754E+03  0.26117801649E+03 -0.47389466831E+03  0.65951004208E+03  0.91097243911E+02 0.  0.
         11    1    3    3    0    0 -0.11035899477E+03  0.13293900039E+03 -0.17787959362E+03  0.24797789292E+03  0.00000000000E+00 0.  1.
        -11    1    3    3    0    0 -0.25551622277E+03  0.12823901610E+03 -0.29601507469E+03  0.41153214916E+03  0.00000000000E+00 0. -1.
         22    1    1    2    0    0  0.36587521754E+03 -0.26117801649E+03 -0.46583468637E+03  0.64736433801E+03  0.00000000000E+00 0. -1.
<mgrwt>
<rscale>  0 0.90820118E+03</rscale>
<asrwt>0</asrwt>
<pdfrwt beam="1">  1        1 0.17281567E+00 0.90820118E+03</pdfrwt>
<pdfrwt beam="2">  1       -1 0.28241925E-01 0.90820118E+03</pdfrwt>
<totfact> 0.13894946E+02</totfact>
</mgrwt>
</event>
<event>
 6    1  0.2436515E-005  0.4700070E+04  0.7818608E-02  0.7876517E-01
         -2   -1    0    0    0  501 -0.00000000000E+00  0.00000000000E+00  0.13743098796E+04  0.13743098796E+04  0.00000000000E+00 0. -1.
          2   -1    0    0  501    0  0.00000000000E+00 -0.00000000000E+00 -0.40185006249E+04  0.40185006249E+04  0.00000000000E+00 0.  1.
         23    2    1    2    0    0  0.33802963001E+03 -0.11668034395E+04 -0.36295353056E+04  0.38286499629E+04  0.96642155656E+02 0.  0.
         13    1    3    3    0    0  0.11527241203E+03 -0.55829161673E+03 -0.16414050710E+04  0.17375810385E+04  0.00000000000E+00 0.  1.
        -13    1    3    3    0    0  0.22275721797E+03 -0.60851182278E+03 -0.19881302347E+04  0.20910689244E+04  0.00000000000E+00 0. -1.
         22    1    1    2    0    0 -0.33802963001E+03  0.11668034395E+04  0.98534456039E+03  0.15641605416E+04  0.00000000000E+00 0. -1.
<mgrwt>
<rscale>  0 0.47000703E+04</rscale>
<asrwt>0</asrwt>
<pdfrwt beam="1">  1        2 0.61823086E+00 0.47000703E+04</pdfrwt>
<pdfrwt beam="2">  1       -2 0.21143229E+00 0.47000703E+04</pdfrwt>
<totfact> 0.27496421E-02</totfact>
</mgrwt>
</event>
<event>
 6    1  0.2436515E-005  0.1442942E+04  0.7818608E-02  0.8923308E-01
         -1   -1    0    0    0  501 -0.00000000000E+00  0.00000000000E+00  0.47907909147E+03  0.47907909147E+03  0.00000000000E+00 0. -1.
          1   -1    0    0  501    0  0.00000000000E+00 -0.00000000000E+00 -0.10865021318E+04  0.10865021318E+04  0.00000000000E+00 0.  1.
         23    2    1    2    0    0 -0.63999157013E+03  0.19863468303E+03 -0.22209508959E+02  0.67590722430E+03  0.85512375954E+02 0.  0.
         11    1    3    3    0    0 -0.47757217094E+03  0.11010558196E+03 -0.49653545680E+01  0.49012556797E+03  0.00000000000E+00 0.  1.
        -11    1    3    3    0    0 -0.16241939919E+03  0.88529101067E+02 -0.17244154391E+02  0.18578165633E+03  0.00000000000E+00 0. -1.
         22    1    1    2    0    0  0.63999157013E+03 -0.19863468303E+03 -0.58521353139E+03  0.88967399897E+03  0.00000000000E+00 0. -1.
<mgrwt>
<rscale>  0 0.14429421E+04</rscale>
<asrwt>0</asrwt>
<pdfrwt beam="1">  1        1 0.16715417E+00 0.14429421E+04</pdfrwt>
<pdfrwt beam="2">  1       -1 0.73704476E-01 0.14429421E+04</pdfrwt>
<totfact> 0.23391961E+01</totfact>
</mgrwt>
</event>
<event>
 6    1  0.2436515E-005  0.2299311E+04  0.7818608E-02  0.8478193E-01
         -2   -1    0    0    0  501 -0.00000000000E+00  0.00000000000E+00  0.33032843488E+04  0.33032843488E+04  0.00000000000E+00 0. -1.
          2   -1    0    0  501    0  0.00000000000E+00 -0.00000000000E+00 -0.40011938360E+03  0.40011938360E+03  0.00000000000E+00 0.  1.
         23    2    1    2    0    0  0.30396728349E+03  0.39987135898E+03  0.31161633888E+04  0.31578200618E+04  0.95184367778E+02 0.  0.
         13    1    3    3    0    0  0.22257418859E+03  0.24029885169E+03  0.18051209144E+04  0.18345965015E+04  0.00000000000E+00 0. -1.
        -13    1    3    3    0    0  0.81393094898E+02  0.15957250730E+03  0.13110424743E+04  0.13232235603E+04  0.00000000000E+00 0.  1.
         22    1    1    2    0    0 -0.30396728349E+03 -0.39987135898E+03 -0.21299842360E+03  0.54558367060E+03  0.00000000000E+00 0.  1.
<mgrwt>
<rscale>  0 0.22993113E+04</rscale>
<asrwt>0</asrwt>
<pdfrwt beam="1">  1        2 0.61556831E-01 0.22993113E+04</pdfrwt>
<pdfrwt beam="2">  1       -2 0.50819757E+00 0.22993113E+04</pdfrwt>
<totfact> 0.10533681E-01</totfact>
</mgrwt>
</event>
<event>
 6    1  0.2436515E-005  0.2352775E+04  0.7818608E-02  0.8457398E-01
          2   -1    0    0  501    0  0.00000000000E+00  0.00000000000E+00  0.31704709098E+04  0.31704709098E+04  0.00000000000E+00 0.  1.
         -2   -1    0    0    0  501 -0.00000000000E+00 -0.00000000000E+00 -0.43649281266E+03  0.43649281266E+03  0.00000000000E+00 0. -1.
         23    2    1    2    0    0 -0.37551056764E+03  0.53628366154E+03  0.28641744913E+04  0.29394613232E+04  0.91263366246E+02 0.  0.
         11    1    3    3    0    0 -0.29851547626E+03  0.45987316722E+03  0.22541919234E+04  0.23199086290E+04  0.00000000000E+00 0. -1.
        -11    1    3    3    0    0 -0.76995091371E+02  0.76410494320E+02  0.60998256784E+03  0.61955269413E+03  0.00000000000E+00 0.  1.
         22    1    1    2    0    0  0.37551056764E+03 -0.53628366154E+03 -0.13019639410E+03  0.66750239930E+03  0.00000000000E+00 0. -1.
<mgrwt>
<rscale>  0 0.23527752E+04</rscale>
<asrwt>0</asrwt>
<pdfrwt beam="1">  1        2 0.48776474E+00 0.23527752E+04</pdfrwt>
<pdfrwt beam="2">  1       -2 0.67152742E-01 0.23527752E+04</pdfrwt>
<totfact> 0.24924285E+00</totfact>
</mgrwt>
</event>
<event>
 6    1  0.2436515E-005  0.5961163E+03  0.7818608E-02  0.9913496E-01
         -2   -1    0    0    0  501 -0.00000000000E+00  0.00000000000E+00  0.11610652501E+03  0.11610652501E+03  0.00000000000E+00 0. -1.
          2   -1    0    0  501    0  0.00000000000E+00 -0.00000000000E+00 -0.76514795574E+03  0.76514795574E+03  0.00000000000E+00 0.  1.
         23    2    1    2    0    0  0.17785245678E+03  0.21329397796E+03 -0.20336559003E+03  0.35613280685E+03  0.91362987507E+02 0.  0.
         13    1    3    3    0    0  0.11298263074E+03  0.80280422429E+02 -0.13366202820E+03  0.19255014634E+03  0.00000000000E+00 0.  1.
        -13    1    3    3    0    0  0.64869826048E+02  0.13301355553E+03 -0.69703561832E+02  0.16358266051E+03  0.00000000000E+00 0. -1.
         22    1    1    2    0    0 -0.17785245678E+03 -0.21329397796E+03 -0.44567584070E+03  0.52512167390E+03  0.00000000000E+00 0.  1.
<mgrwt>
<rscale>  0 0.59611633E+03</rscale>
<asrwt>0</asrwt>
<pdfrwt beam="1">  1        2 0.11771507E+00 0.59611633E+03</pdfrwt>
<pdfrwt beam="2">  1       -2 0.17862542E-01 0.59611633E+03</pdfrwt>
<totfact> 0.95417745E+02</totfact>
</mgrwt>
</event>
<event>
 6    1  0.2436515E-005  0.7862220E+03  0.7818608E-02  0.9580177E-01
          2   -1    0    0  501    0  0.00000000000E+00  0.00000000000E+00  0.95889450955E+03  0.95889450955E+03  0.00000000000E+00 0.  1.
         -2   -1    0    0    0  501 -0.00000000000E+00 -0.00000000000E+00 -0.16116085900E+03  0.16116085900E+03  0.00000000000E+00 0. -1.
         23    2    1    2    0    0 -0.10673654513E+02 -0.20999484435E+03 -0.60289225653E+02  0.23664435569E+03  0.90299495000E+02 0.  0.
         13    1    3    3    0    0 -0.41506735557E+02 -0.48644607263E+02 -0.91436058082E+01  0.64596535817E+02  0.00000000000E+00 0. -1.
        -13    1    3    3    0    0  0.30833081044E+02 -0.16135023709E+03 -0.51145619845E+02  0.17204781988E+03  0.00000000000E+00 0.  1.
         22    1    1    2    0    0  0.10673654513E+02  0.20999484435E+03  0.85802287620E+03  0.88341101286E+03  0.00000000000E+00 0.  1.
<mgrwt>
<rscale>  0 0.78622201E+03</rscale>
<asrwt>0</asrwt>
<pdfrwt beam="1">  1        2 0.14752223E+00 0.78622201E+03</pdfrwt>
<pdfrwt beam="2">  1       -2 0.24793979E-01 0.78622201E+03</pdfrwt>
<totfact> 0.39166833E+02</totfact>
</mgrwt>
</event>
<event>
 6    1  0.2436515E-005  0.1545789E+04  0.7818608E-02  0.8854562E-01
         -2   -1    0    0    0  501 -0.00000000000E+00  0.00000000000E+00  0.53323606456E+03  0.53323606456E+03  0.00000000000E+00 0. -1.
          2   -1    0    0  501    0  0.00000000000E+00 -0.00000000000E+00 -0.11202655833E+04  0.11202655833E+04  0.00000000000E+00 0.  1.
         23    2    1    2    0    0 -0.64079829138E+03  0.38038347712E+03 -0.86141305756E+02  0.75561354693E+03  0.90650250086E+02 0.  0.
         11    1    3    3    0    0 -0.53769506369E+03  0.28512544956E+03 -0.50013616326E+02  0.61066673835E+03  0.00000000000E+00 0.  1.
        -11    1    3    3    0    0 -0.10310322769E+03  0.95258027557E+02 -0.36127689429E+02  0.14494680858E+03  0.00000000000E+00 0. -1.
         22    1    1    2    0    0  0.64079829138E+03 -0.38038347712E+03 -0.50088821301E+03  0.89788810096E+03  0.00000000000E+00 0.  1.
<mgrwt>
<rscale>  0 0.15457891E+04</rscale>
<asrwt>0</asrwt>
<pdfrwt beam="1">  1        2 0.17234855E+00 0.15457891E+04</pdfrwt>
<pdfrwt beam="2">  1       -2 0.82036318E-01 0.15457891E+04</pdfrwt>
<totfact> 0.26626369E+01</totfact>
</mgrwt>
</event>
<event>
 6    1  0.2436515E-005  0.1342202E+04  0.7818608E-02  0.8996752E-01
          1   -1    0    0  501    0  0.00000000000E+00  0.00000000000E+00  0.38481300769E+03  0.38481300769E+03  0.00000000000E+00 0. -1.
         -1   -1    0    0    0  501 -0.00000000000E+00 -0.00000000000E+00 -0.11703777335E+04  0.11703777335E+04  0.00000000000E+00 0.  1.
         23    2    1    2    0    0  0.32006465814E+03  0.58517368606E+03 -0.35255315534E+03  0.75997463948E+03  0.91641131925E+02 0.  0.
         11    1    3    3    0    0 -0.41910717883E+01  0.28514161726E+02 -0.11287061351E+02  0.30951902294E+02  0.00000000000E+00 0.  1.
        -11    1    3    3    0    0  0.32425572993E+03  0.55665952433E+03 -0.34126609399E+03  0.72902273718E+03  0.00000000000E+00 0. -1.
         22    1    1    2    0    0 -0.32006465814E+03 -0.58517368606E+03 -0.43301157043E+03  0.79521610168E+03  0.00000000000E+00 0.  1.
<mgrwt>
<rscale>  0 0.13422020E+04</rscale>
<asrwt>0</asrwt>
<pdfrwt beam="1">  1        1 0.59202002E-01 0.13422020E+04</pdfrwt>
<pdfrwt beam="2">  1       -1 0.18005811E+00 0.13422020E+04</pdfrwt>
<totfact> 0.12862226E+01</totfact>
</mgrwt>
</event>
<event>
 6    1  0.2436515E-005  0.4722948E+04  0.7818608E-02  0.7872727E-01
          2   -1    0    0  501    0  0.00000000000E+00  0.00000000000E+00  0.26922048480E+04  0.26922048480E+04  0.00000000000E+00 0.  1.
         -2   -1    0    0    0  501 -0.00000000000E+00 -0.00000000000E+00 -0.20713728160E+04  0.20713728160E+04  0.00000000000E+00 0. -1.
         23    2    1    2    0    0  0.16792569387E+04 -0.16500838947E+04  0.48600079258E+03  0.24054300459E+04  0.84948276462E+02 0.  0.
         13    1    3    3    0    0  0.53899811199E+03 -0.52432818994E+03  0.11508073592E+03  0.76071189768E+03  0.00000000000E+00 0. -1.
        -13    1    3    3    0    0  0.11402588267E+04 -0.11257557048E+04  0.37092005665E+03  0.16447181482E+04  0.00000000000E+00 0.  1.
         22    1    1    2    0    0 -0.16792569387E+04  0.16500838947E+04  0.13483123949E+03  0.23581476181E+04  0.00000000000E+00 0.  1.
<mgrwt>
<rscale>  0 0.47229482E+04</rscale>
<asrwt>0</asrwt>
<pdfrwt beam="1">  1        2 0.41418536E+00 0.47229482E+04</pdfrwt>
<pdfrwt beam="2">  1       -2 0.31867274E+00 0.47229482E+04</pdfrwt>
<totfact> 0.48735152E-02</totfact>
</mgrwt>
</event>
<event>
 6    1  0.2436515E-005  0.2183711E+04  0.7818608E-02  0.8525239E-01
          2   -1    0    0  501    0  0.00000000000E+00  0.00000000000E+00  0.10470302712E+04  0.10470302712E+04  0.00000000000E+00 0.  1.
         -2   -1    0    0    0  501 -0.00000000000E+00 -0.00000000000E+00 -0.11385996005E+04  0.11385996005E+04  0.00000000000E+00 0. -1.
         23    2    1    2    0    0  0.35482063499E+03 -0.58097339914E+03  0.80556053659E+03  0.10594550319E+04  0.10044607036E+03 0.  0.
         13    1    3    3    0    0  0.18926904276E+03 -0.32153712408E+03  0.51703460670E+03  0.63759993509E+03  0.00000000000E+00 0.  1.
        -13    1    3    3    0    0  0.16555159223E+03 -0.25943627506E+03  0.28852592989E+03  0.42185509684E+03  0.00000000000E+00 0. -1.
         22    1    1    2    0    0 -0.35482063499E+03  0.58097339914E+03 -0.89712986583E+03  0.11261748398E+04  0.00000000000E+00 0. -1.
<mgrwt>
<rscale>  0 0.21837108E+04</rscale>
<asrwt>0</asrwt>
<pdfrwt beam="1">  1        2 0.16108158E+00 0.21837108E+04</pdfrwt>
<pdfrwt beam="2">  1       -2 0.17516917E+00 0.21837108E+04</pdfrwt>
<totfact> 0.42155746E+00</totfact>
</mgrwt>
</event>
<event>
 6    1  0.2436515E-005  0.1346170E+04  0.7818608E-02  0.8993733E-01
         -2   -1    0    0    0  501 -0.00000000000E+00  0.00000000000E+00  0.18542390249E+03  0.18542390249E+03  0.00000000000E+00 0. -1.
          2   -1    0    0  501    0  0.00000000000E+00 -0.00000000000E+00 -0.24432831252E+04  0.24432831252E+04  0.00000000000E+00 0.  1.
         23    2    1    2    0    0 -0.19210269627E+03 -0.58616883226E+03 -0.16452536208E+04  0.17593492364E+04  0.89179106249E+02 0.  0.
         11    1    3    3    0    0 -0.17647508664E+03 -0.44062885394E+03 -0.13175142124E+04  0.14004074204E+04  0.00000000000E+00 0. -1.
        -11    1    3    3    0    0 -0.15627609629E+02 -0.14553997831E+03 -0.32773940836E+03  0.35894181598E+03  0.00000000000E+00 0.  1.
         22    1    1    2    0    0  0.19210269627E+03  0.58616883226E+03 -0.61260560196E+03  0.86935779135E+03  0.00000000000E+00 0. -1.
<mgrwt>
<rscale>  0 0.13461695E+04</rscale>
<asrwt>0</asrwt>
<pdfrwt beam="1">  1        2 0.37588969E+00 0.13461695E+04</pdfrwt>
<pdfrwt beam="2">  1       -2 0.28526756E-01 0.13461695E+04</pdfrwt>
<totfact> 0.41461016E+01</totfact>
</mgrwt>
</event>
<event>
 6    1  0.2436515E-005  0.2586132E+04  0.7818608E-02  0.8372927E-01
         -2   -1    0    0    0  501 -0.00000000000E+00  0.00000000000E+00  0.13118982013E+04  0.13118982013E+04  0.00000000000E+00 0. -1.
          2   -1    0    0  501    0  0.00000000000E+00 -0.00000000000E+00 -0.12745039611E+04  0.12745039611E+04  0.00000000000E+00 0.  1.
         23    2    1    2    0    0 -0.17571073007E+03 -0.47230917826E+03  0.12079678730E+04  0.13119639135E+04  0.90070570497E+02 0.  0.
         11    1    3    3    0    0 -0.31000084075E+02 -0.34932169915E+02  0.17102945014E+03  0.17729166512E+03  0.00000000000E+00 0.  1.
        -11    1    3    3    0    0 -0.14471064599E+03 -0.43737700834E+03  0.10369384228E+04  0.11346722484E+04  0.00000000000E+00 0. -1.
         22    1    1    2    0    0  0.17571073007E+03  0.47230917826E+03 -0.11705736327E+04  0.12744382489E+04  0.00000000000E+00 0.  1.
<mgrwt>
<rscale>  0 0.25861318E+04</rscale>
<asrwt>0</asrwt>
<pdfrwt beam="1">  1        2 0.19607753E+00 0.25861318E+04</pdfrwt>
<pdfrwt beam="2">  1       -2 0.20183049E+00 0.25861318E+04</pdfrwt>
<totfact> 0.19602873E+00</totfact>
</mgrwt>
</event>
<event>
 6    1  0.2436515E-005  0.2072502E+04  0.7818608E-02  0.8573454E-01
          1   -1    0    0  501    0  0.00000000000E+00  0.00000000000E+00  0.14442920785E+04  0.14442920785E+04  0.00000000000E+00 0.  1.
         -1   -1    0    0    0  501 -0.00000000000E+00 -0.00000000000E+00 -0.74348991071E+03  0.74348991071E+03  0.00000000000E+00 0. -1.
         23    2    1    2    0    0  0.87842067341E+03  0.53518044516E+03  0.46394915320E+03  0.11322535249E+04  0.93317949061E+02 0.  0.
         11    1    3    3    0    0  0.42897850597E+03  0.22665957766E+03  0.25793860716E+03  0.54948107137E+03  0.00000000000E+00 0.  1.
        -11    1    3    3    0    0  0.44944216744E+03  0.30852086750E+03  0.20601054604E+03  0.58277245356E+03  0.00000000000E+00 0. -1.
         22    1    1    2    0    0 -0.87842067341E+03 -0.53518044516E+03  0.23685301456E+03  0.10555284643E+04  0.00000000000E+00 0. -1.
<mgrwt>
<rscale>  0 0.20725024E+04</rscale>
<asrwt>0</asrwt>
<pdfrwt beam="1">  1        1 0.22219878E+00 0.20725024E+04</pdfrwt>
<pdfrwt beam="2">  1       -1 0.11438306E+00 0.20725024E+04</pdfrwt>
<totfact> 0.45849637E+00</totfact>
</mgrwt>
</event>
<event>
 6    1  0.2436515E-005  0.4682819E+04  0.7818608E-02  0.7879390E-01
          2   -1    0    0  501    0  0.00000000000E+00  0.00000000000E+00  0.21670544988E+04  0.21670544988E+04  0.00000000000E+00 0.  1.
         -2   -1    0    0    0  501 -0.00000000000E+00 -0.00000000000E+00 -0.25297925244E+04  0.25297925244E+04  0.00000000000E+00 0. -1.
         23    2    1    2    0    0 -0.17556982114E+04 -0.14685416772E+04  0.30946384569E+03  0.23112766045E+04  0.84503274632E+02 0.  0.
         13    1    3    3    0    0 -0.88196058737E+03 -0.78133959521E+03  0.18523176082E+03  0.11927517956E+04  0.00000000000E+00 0.  1.
        -13    1    3    3    0    0 -0.87373762400E+03 -0.68720208200E+03  0.12423208487E+03  0.11185248088E+04  0.00000000000E+00 0. -1.
         22    1    1    2    0    0  0.17556982114E+04  0.14685416772E+04 -0.67220187133E+03  0.23855704188E+04  0.00000000000E+00 0. -1.
<mgrwt>
<rscale>  0 0.46828189E+04</rscale>
<asrwt>0</asrwt>
<pdfrwt beam="1">  1        2 0.33339300E+00 0.46828189E+04</pdfrwt>
<pdfrwt beam="2">  1       -2 0.38919885E+00 0.46828189E+04</pdfrwt>
<totfact> 0.35127823E-02</totfact>
</mgrwt>
</event>
<event>
 6    1  0.2436515E-005  0.9904969E+03  0.7818608E-02  0.9319029E-01
         -2   -1    0    0    0  501 -0.00000000000E+00  0.00000000000E+00  0.71135390721E+02  0.71135390721E+02  0.00000000000E+00 0. -1.
          2   -1    0    0  501    0  0.00000000000E+00 -0.00000000000E+00 -0.34479463838E+04  0.34479463838E+04  0.00000000000E+00 0.  1.
         23    2    1    2    0    0 -0.41728584531E+03  0.15531190565E+03 -0.96358901479E+03  0.10651279075E+04  0.88002302699E+02 0.  0.
         13    1    3    3    0    0 -0.27533008986E+03  0.83445569012E+02 -0.70588835975E+03  0.76226517552E+03  0.00000000000E+00 0.  1.
        -13    1    3    3    0    0 -0.14195575545E+03  0.71866336637E+02 -0.25770065503E+03  0.30286273202E+03  0.00000000000E+00 0. -1.
         22    1    1    2    0    0  0.41728584531E+03 -0.15531190565E+03 -0.24132219783E+04  0.24539538670E+04  0.00000000000E+00 0.  1.
<mgrwt>
<rscale>  0 0.99049687E+03</rscale>
<asrwt>0</asrwt>
<pdfrwt beam="1">  1        2 0.53045318E+00 0.99049687E+03</pdfrwt>
<pdfrwt beam="2">  1       -2 0.10943908E-01 0.99049687E+03</pdfrwt>
<totfact> 0.54456548E+01</totfact>
</mgrwt>
</event>
<event>
 6    1  0.2436515E-005  0.4262926E+04  0.7818608E-02  0.7953509E-01
         -2   -1    0    0    0  501 -0.00000000000E+00  0.00000000000E+00  0.22453179728E+04  0.22453179728E+04  0.00000000000E+00 0. -1.
          2   -1    0    0  501    0  0.00000000000E+00 -0.00000000000E+00 -0.20233818225E+04  0.20233818225E+04  0.00000000000E+00 0.  1.
         23    2    1    2    0    0 -0.21298301881E+04 -0.42384200611E+02  0.14056723625E+03  0.21368944687E+04  0.92659440546E+02 0.  0.
         11    1    3    3    0    0 -0.16065186555E+04  0.67753334831E+01  0.11558808089E+03  0.16106857857E+04  0.00000000000E+00 0.  1.
        -11    1    3    3    0    0 -0.52331153252E+03 -0.49159534094E+02  0.24979155354E+02  0.52620868300E+03  0.00000000000E+00 0. -1.
         22    1    1    2    0    0  0.21298301881E+04  0.42384200611E+02  0.81368913995E+02  0.21318053266E+04  0.00000000000E+00 0.  1.
<mgrwt>
<rscale>  0 0.42629265E+04</rscale>
<asrwt>0</asrwt>
<pdfrwt beam="1">  1        2 0.31128951E+00 0.42629265E+04</pdfrwt>
<pdfrwt beam="2">  1       -2 0.34543354E+00 0.42629265E+04</pdfrwt>
<totfact> 0.83236098E-02</totfact>
</mgrwt>
</event>
<event>
 6    1  0.2436515E-005  0.1363471E+04  0.7818608E-02  0.8980693E-01
          2   -1    0    0  501    0  0.00000000000E+00  0.00000000000E+00  0.21426496180E+04  0.21426496180E+04  0.00000000000E+00 0.  1.
         -2   -1    0    0    0  501 -0.00000000000E+00 -0.00000000000E+00 -0.21691039485E+03  0.21691039485E+03  0.00000000000E+00 0. -1.
         23    2    1    2    0    0 -0.39831869423E+03 -0.12262172344E+03  0.40096901340E+02  0.42840988016E+03  0.90738055352E+02 0.  0.
         11    1    3    3    0    0 -0.25905869920E+03 -0.62378458083E+02  0.65920983243E+02  0.27449600670E+03  0.00000000000E+00 0.  1.
        -11    1    3    3    0    0 -0.13925999503E+03 -0.60243265356E+02 -0.25824081902E+02  0.15391387346E+03  0.00000000000E+00 0. -1.
         22    1    1    2    0    0  0.39831869423E+03  0.12262172344E+03  0.18856423218E+04  0.19311501327E+04  0.00000000000E+00 0.  1.
<mgrwt>
<rscale>  0 0.13634705E+04</rscale>
<asrwt>0</asrwt>
<pdfrwt beam="1">  1        2 0.32963839E+00 0.13634705E+04</pdfrwt>
<pdfrwt beam="2">  1       -2 0.33370831E-01 0.13634705E+04</pdfrwt>
<totfact> 0.45598972E+01</totfact>
</mgrwt>
</event>
<event>
 6    1  0.2436515E-005  0.2887724E+04  0.7818608E-02  0.8276539E-01
         -2   -1    0    0    0  501 -0.00000000000E+00  0.00000000000E+00  0.19233446839E+04  0.19233446839E+04  0.00000000000E+00 0. -1.
          2   -1    0    0  501    0  0.00000000000E+00 -0.00000000000E+00 -0.10839123458E+04  0.10839123458E+04  0.00000000000E+00 0.  1.
         23    2    1    2    0    0 -0.18255168308E+03 -0.59752977807E+03 -0.93363129138E+03  0.11273310773E+04  0.94026681847E+02 0.  0.
         13    1    3    3    0    0 -0.86150681514E+02 -0.32645391711E+03 -0.42297850615E+03  0.54120690737E+03  0.00000000000E+00 0. -1.
        -13    1    3    3    0    0 -0.96401001567E+02 -0.27107586097E+03 -0.51065278522E+03  0.58612416992E+03  0.00000000000E+00 0.  1.
         22    1    1    2    0    0  0.18255168308E+03  0.59752977807E+03  0.17730636295E+04  0.18799259525E+04  0.00000000000E+00 0. -1.
<mgrwt>
<rscale>  0 0.28877237E+04</rscale>
<asrwt>0</asrwt>
<pdfrwt beam="1">  1        2 0.16675575E+00 0.28877237E+04</pdfrwt>
<pdfrwt beam="2">  1       -2 0.29589918E+00 0.28877237E+04</pdfrwt>
<totfact> 0.64850320E-01</totfact>
</mgrwt>
</event>
<event>
 6    1  0.2436515E-005  0.2844350E+04  0.7818608E-02  0.8289630E-01
          2   -1    0    0  501    0  0.00000000000E+00  0.00000000000E+00  0.24733805522E+04  0.24733805522E+04  0.00000000000E+00 0.  1.
         -2   -1    0    0    0  501 -0.00000000000E+00 -0.00000000000E+00 -0.81773999755E+03  0.81773999755E+03  0.00000000000E+00 0. -1.
         23    2    1    2    0    0  0.55759438117E+02 -0.13572015572E+04  0.13107600511E+04  0.18896756726E+04  0.87618800469E+02 0.  0.
         13    1    3    3    0    0  0.32442434019E+02 -0.39525560799E+03  0.43404675849E+03  0.58794225544E+03  0.00000000000E+00 0. -1.
        -13    1    3    3    0    0  0.23317004098E+02 -0.96194594924E+03  0.87671329263E+03  0.13017334172E+04  0.00000000000E+00 0.  1.
         22    1    1    2    0    0 -0.55759438117E+02  0.13572015572E+04  0.34488050353E+03  0.14014448771E+04  0.00000000000E+00 0. -1.
<mgrwt>
<rscale>  0 0.28443503E+04</rscale>
<asrwt>0</asrwt>
<pdfrwt beam="1">  1        2 0.38052008E+00 0.28443503E+04</pdfrwt>
<pdfrwt beam="2">  1       -2 0.12580615E+00 0.28443503E+04</pdfrwt>
<totfact> 0.14750924E+00</totfact>
</mgrwt>
</event>
<event>
 6    1  0.2436515E-005  0.5475510E+04  0.7818608E-02  0.7759068E-01
         -2   -1    0    0    0  501 -0.00000000000E+00  0.00000000000E+00  0.27622581808E+04  0.27622581808E+04  0.00000000000E+00 0. -1.
          2   -1    0    0  501    0  0.00000000000E+00 -0.00000000000E+00 -0.27134694282E+04  0.27134694282E+04  0.00000000000E+00 0.  1.
         23    2    1    2    0    0  0.21664488846E+04 -0.16676606771E+04  0.15392347224E+03  0.27397367075E+04  0.88723659237E+02 0.  0.
         13    1    3    3    0    0  0.17297955863E+04 -0.12865860431E+04  0.12802214690E+03  0.21596032244E+04  0.00000000000E+00 0.  1.
        -13    1    3    3    0    0  0.43665329825E+03 -0.38107463407E+03  0.25901325341E+02  0.58013348314E+03  0.00000000000E+00 0. -1.
         22    1    1    2    0    0 -0.21664488846E+04  0.16676606771E+04 -0.10513471965E+03  0.27359909014E+04  0.00000000000E+00 0.  1.
<mgrwt>
<rscale>  0 0.54755103E+04</rscale>
<asrwt>0</asrwt>
<pdfrwt beam="1">  1        2 0.41745683E+00 0.54755103E+04</pdfrwt>
<pdfrwt beam="2">  1       -2 0.42496280E+00 0.54755103E+04</pdfrwt>
<totfact> 0.93117280E-03</totfact>
</mgrwt>
</event>
<event>
 6    1  0.2907009E-005  0.2612466E+04  0.7818608E-02  0.8363979E-01
          2   -1    0    0  501    0  0.00000000000E+00  0.00000000000E+00  0.12610940329E+04  0.12610940329E+04  0.00000000000E+00 0.  1.
         -2   -1    0    0    0  501 -0.00000000000E+00 -0.00000000000E+00 -0.13529871975E+04  0.13529871975E+04  0.00000000000E+00 0. -1.
         23    2    1    2    0    0 -0.63112355246E+03  0.11166962209E+04 -0.28424908177E+03  0.13170352841E+04  0.91962008154E+02 0.  0.
         13    1    3    3    0    0 -0.22998990343E+03  0.44842649506E+03 -0.15271558569E+03  0.52659636085E+03  0.00000000000E+00 0. -1.
        -13    1    3    3    0    0 -0.40113364902E+03  0.66826972580E+03 -0.13153349609E+03  0.79043892325E+03  0.00000000000E+00 0.  1.
         22    1    1    2    0    0  0.63112355246E+03 -0.11166962209E+04  0.19235591716E+03  0.12970459464E+04  0.00000000000E+00 0.  1.
<mgrwt>
<rscale>  0 0.26124656E+04</rscale>
<asrwt>0</asrwt>
<pdfrwt beam="1">  1        2 0.19401447E+00 0.26124656E+04</pdfrwt>
<pdfrwt beam="2">  1       -2 0.20815188E+00 0.26124656E+04</pdfrwt>
<totfact> 0.18120364E+00</totfact>
</mgrwt>
</event>
<event>
 6    1  0.2436515E-005  0.2100612E+04  0.7818608E-02  0.8560974E-01
         -2   -1    0    0    0  501 -0.00000000000E+00  0.00000000000E+00  0.52739930495E+03  0.52739930495E+03  0.00000000000E+00 0. -1.
          2   -1    0    0  501    0  0.00000000000E+00 -0.00000000000E+00 -0.20916644576E+04  0.20916644576E+04  0.00000000000E+00 0.  1.
         23    2    1    2    0    0  0.35115747740E+02 -0.35995212821E+03  0.44442927344E+03  0.57807087974E+03  0.76484721135E+02 0.  0.
         13    1    3    3    0    0  0.58029755413E+01 -0.21712474336E+03  0.21079811190E+03  0.30267585415E+03  0.00000000000E+00 0.  1.
        -13    1    3    3    0    0  0.29312772199E+02 -0.14282738486E+03  0.23363116153E+03  0.27539502559E+03  0.00000000000E+00 0. -1.
         22    1    1    2    0    0 -0.35115747740E+02  0.35995212821E+03 -0.20086944261E+04  0.20409928828E+04  0.00000000000E+00 0.  1.
<mgrwt>
<rscale>  0 0.21006117E+04</rscale>
<asrwt>0</asrwt>
<pdfrwt beam="1">  1        2 0.32179453E+00 0.21006117E+04</pdfrwt>
<pdfrwt beam="2">  1       -2 0.81138355E-01 0.21006117E+04</pdfrwt>
<totfact> 0.73274961E+00</totfact>
</mgrwt>
</event>
<event>
 6    1  0.2436515E-005  0.3999236E+03  0.7818608E-02  0.1043806E+00
          2   -1    0    0  501    0  0.00000000000E+00  0.00000000000E+00  0.21280481096E+04  0.21280481096E+04  0.00000000000E+00 0.  1.
         -2   -1    0    0    0  501 -0.00000000000E+00 -0.00000000000E+00 -0.18789392547E+02  0.18789392547E+02  0.00000000000E+00 0. -1.
         23    2    1    2    0    0  0.49506340049E+02 -0.13939989664E+03  0.17442913656E+04  0.17530299648E+04  0.93158361400E+02 0.  0.
         13    1    3    3    0    0  0.68183821869E+02 -0.91954258272E+02  0.14354810148E+04  0.14400383200E+04  0.00000000000E+00 0.  1.
        -13    1    3    3    0    0 -0.18677481820E+02 -0.47445638365E+02  0.30881035079E+03  0.31299164475E+03  0.00000000000E+00 0. -1.
         22    1    1    2    0    0 -0.49506340049E+02  0.13939989664E+03  0.36496735143E+03  0.39380753738E+03  0.00000000000E+00 0. -1.
<mgrwt>
<rscale>  0 0.39992365E+03</rscale>
<asrwt>0</asrwt>
<pdfrwt beam="1">  1        2 0.32739183E+00 0.39992365E+03</pdfrwt>
<pdfrwt beam="2">  1       -2 0.28906775E-02 0.39992365E+03</pdfrwt>
<totfact> 0.28286719E+03</totfact>
</mgrwt>
</event>
<event>
 6    1  0.2436515E-005  0.3208655E+04  0.7818608E-02  0.8186535E-01
          2   -1    0    0  501    0  0.00000000000E+00  0.00000000000E+00  0.27355709579E+04  0.27355709579E+04  0.00000000000E+00 0. -1.
         -2   -1    0    0    0  501 -0.00000000000E+00 -0.00000000000E+00 -0.94088856114E+03  0.94088856114E+03  0.00000000000E+00 0.  1.
         23    2    1    2    0    0  0.15701184225E+04 -0.30598203010E+03  0.10168368082E+04  0.18977125940E+04  0.91973536860E+02 0.  0.
         11    1    3    3    0    0  0.13093893185E+04 -0.22026500476E+03  0.83683077655E+03  0.15694912578E+04  0.00000000000E+00 0. -1.
        -11    1    3    3    0    0  0.26072910402E+03 -0.85717025339E+02  0.18000603163E+03  0.32822133621E+03  0.00000000000E+00 0.  1.
         22    1    1    2    0    0 -0.15701184225E+04  0.30598203010E+03  0.77784558859E+03  0.17787469250E+04  0.00000000000E+00 0.  1.
<mgrwt>
<rscale>  0 0.32086554E+04</rscale>
<asrwt>0</asrwt>
<pdfrwt beam="1">  1        2 0.42085707E+00 0.32086554E+04</pdfrwt>
<pdfrwt beam="2">  1       -2 0.14475209E+00 0.32086554E+04</pdfrwt>
<totfact> 0.70006021E-01</totfact>
</mgrwt>
</event>
<event>
 6    1  0.2436515E-005  0.2593907E+04  0.7818608E-02  0.8370274E-01
         -2   -1    0    0    0  501 -0.00000000000E+00  0.00000000000E+00  0.38862557526E+03  0.38862557526E+03  0.00000000000E+00 0. -1.
          2   -1    0    0  501    0  0.00000000000E+00 -0.00000000000E+00 -0.43282996464E+04  0.43282996464E+04  0.00000000000E+00 0.  1.
         23    2    1    2    0    0  0.25953184270E+03  0.82798704033E+03 -0.37211895498E+04  0.38221320599E+04  0.92317393163E+02 0.  0.
         13    1    3    3    0    0  0.22757031210E+03  0.62055611198E+03 -0.27166319762E+04  0.27958840157E+04  0.00000000000E+00 0. -1.
        -13    1    3    3    0    0  0.31961530599E+02  0.20743092834E+03 -0.10045575736E+04  0.10262480442E+04  0.00000000000E+00 0.  1.
         22    1    1    2    0    0 -0.25953184270E+03 -0.82798704033E+03 -0.21848452132E+03  0.89479316179E+03  0.00000000000E+00 0. -1.
<mgrwt>
<rscale>  0 0.25939067E+04</rscale>
<asrwt>0</asrwt>
<pdfrwt beam="1">  1        2 0.66589224E+00 0.25939067E+04</pdfrwt>
<pdfrwt beam="2">  1       -2 0.59788551E-01 0.25939067E+04</pdfrwt>
<totfact> 0.41442346E-01</totfact>
</mgrwt>
</event>
<event>
 6    1  0.2436515E-005  0.1568668E+04  0.7818608E-02  0.8840031E-01
          2   -1    0    0  501    0  0.00000000000E+00  0.00000000000E+00  0.25141125769E+04  0.25141125769E+04  0.00000000000E+00 0.  1.
         -2   -1    0    0    0  501 -0.00000000000E+00 -0.00000000000E+00 -0.24469078090E+03  0.24469078090E+03  0.00000000000E+00 0. -1.
         23    2    1    2    0    0 -0.26929809124E+03 -0.32005347702E+03  0.23002240879E+04  0.23393936878E+04  0.82318174166E+02 0.  0.
         11    1    3    3    0    0 -0.10307842806E+03 -0.65322477903E+02  0.63584281177E+03  0.64744750346E+03  0.00000000000E+00 0. -1.
        -11    1    3    3    0    0 -0.16621966318E+03 -0.25473099912E+03  0.16643812761E+04  0.16919461843E+04  0.00000000000E+00 0.  1.
         22    1    1    2    0    0  0.26929809124E+03  0.32005347702E+03 -0.30802291921E+02  0.41940967000E+03  0.00000000000E+00 0. -1.
<mgrwt>
<rscale>  0 0.15686684E+04</rscale>
<asrwt>0</asrwt>
<pdfrwt beam="1">  1        2 0.38678653E+00 0.15686684E+04</pdfrwt>
<pdfrwt beam="2">  1       -2 0.37644737E-01 0.15686684E+04</pdfrwt>
<totfact> 0.21912440E+01</totfact>
</mgrwt>
</event>
<event>
 6    1  0.2436515E-005  0.2350387E+04  0.7818608E-02  0.8458315E-01
          2   -1    0    0  501    0  0.00000000000E+00  0.00000000000E+00  0.60052286008E+03  0.60052286008E+03  0.00000000000E+00 0.  1.
         -2   -1    0    0    0  501 -0.00000000000E+00 -0.00000000000E+00 -0.22997956607E+04  0.22997956607E+04  0.00000000000E+00 0. -1.
         23    2    1    2    0    0  0.50985259881E+03  0.85441441768E+03 -0.83260893082E+02  0.10025650713E+04  0.90723074539E+02 0.  0.
         13    1    3    3    0    0  0.11643641921E+03  0.18323123718E+03 -0.55520657899E+02  0.22408406782E+03  0.00000000000E+00 0. -1.
        -13    1    3    3    0    0  0.39341617960E+03  0.67118318050E+03 -0.27740235183E+02  0.77848100350E+03  0.00000000000E+00 0.  1.
         22    1    1    2    0    0 -0.50985259881E+03 -0.85441441768E+03 -0.16160119075E+04  0.18977534495E+04  0.00000000000E+00 0. -1.
<mgrwt>
<rscale>  0 0.23503871E+04</rscale>
<asrwt>0</asrwt>
<pdfrwt beam="1">  1        2 0.92388133E-01 0.23503871E+04</pdfrwt>
<pdfrwt beam="2">  1       -2 0.35381471E+00 0.23503871E+04</pdfrwt>
<totfact> 0.65901166E-01</totfact>
</mgrwt>
</event>
<event>
 6    1  0.2436515E-005  0.1452237E+04  0.7818608E-02  0.8916851E-01
          2   -1    0    0  501    0  0.00000000000E+00  0.00000000000E+00  0.18042472466E+04  0.18042472466E+04  0.00000000000E+00 0.  1.
         -2   -1    0    0    0  501 -0.00000000000E+00 -0.00000000000E+00 -0.29222612055E+03  0.29222612055E+03  0.00000000000E+00 0. -1.
         23    2    1    2    0    0 -0.53196978673E+03 -0.47191898365E+03  0.56879004032E+03  0.91520952610E+03  0.91580486829E+02 0.  0.
         13    1    3    3    0    0 -0.43607662798E+03 -0.34563739052E+03  0.47012995098E+03  0.72845741262E+03  0.00000000000E+00 0.  1.
        -13    1    3    3    0    0 -0.95893158754E+02 -0.12628159314E+03  0.98660089348E+02  0.18675211349E+03  0.00000000000E+00 0. -1.
         22    1    1    2    0    0  0.53196978673E+03  0.47191898365E+03  0.94323108577E+03  0.11812638411E+04  0.00000000000E+00 0.  1.
<mgrwt>
<rscale>  0 0.14522371E+04</rscale>
<asrwt>0</asrwt>
<pdfrwt beam="1">  1        2 0.27757649E+00 0.14522371E+04</pdfrwt>
<pdfrwt beam="2">  1       -2 0.44957866E-01 0.14522371E+04</pdfrwt>
<totfact> 0.39043935E+01</totfact>
</mgrwt>
</event>
<event>
 6    1  0.2436515E-005  0.2054511E+04  0.7818608E-02  0.8581550E-01
          2   -1    0    0  501    0  0.00000000000E+00  0.00000000000E+00  0.15875971746E+04  0.15875971746E+04  0.00000000000E+00 0.  1.
         -2   -1    0    0    0  501 -0.00000000000E+00 -0.00000000000E+00 -0.66468646989E+03  0.66468646989E+03  0.00000000000E+00 0. -1.
         23    2    1    2    0    0  0.14907025830E+03 -0.84198675836E+02  0.15704918260E+04  0.15824533171E+04  0.91665512029E+02 0.  0.
         11    1    3    3    0    0  0.12666054330E+03 -0.53057002335E+02  0.85716824518E+03  0.86809869213E+03  0.00000000000E+00 0. -1.
        -11    1    3    3    0    0  0.22409715001E+02 -0.31141673501E+02  0.71332358086E+03  0.71435462494E+03  0.00000000000E+00 0.  1.
         22    1    1    2    0    0 -0.14907025830E+03  0.84198675836E+02 -0.64758112130E+03  0.66983032746E+03  0.00000000000E+00 0. -1.
<mgrwt>
<rscale>  0 0.20545115E+04</rscale>
<asrwt>0</asrwt>
<pdfrwt beam="1">  1        2 0.24424572E+00 0.20545115E+04</pdfrwt>
<pdfrwt beam="2">  1       -2 0.10225946E+00 0.20545115E+04</pdfrwt>
<totfact> 0.82096042E+00</totfact>
</mgrwt>
</event>
<event>
 6    1  0.2436515E-005  0.4360290E+04  0.7818608E-02  0.7935563E-01
         -2   -1    0    0    0  501 -0.00000000000E+00  0.00000000000E+00  0.17172816895E+04  0.17172816895E+04  0.00000000000E+00 0. -1.
          2   -1    0    0  501    0  0.00000000000E+00 -0.00000000000E+00 -0.27677645261E+04  0.27677645261E+04  0.00000000000E+00 0.  1.
         23    2    1    2    0    0  0.51997740664E+03 -0.95715677646E+03  0.14159681429E+04  0.17887698884E+04  0.90588817149E+02 0.  0.
         13    1    3    3    0    0  0.14530883547E+03 -0.30413894219E+03  0.37715110397E+03  0.50582418788E+03  0.00000000000E+00 0. -1.
        -13    1    3    3    0    0  0.37466857118E+03 -0.65301783427E+03  0.10388170389E+04  0.12829457005E+04  0.00000000000E+00 0.  1.
         22    1    1    2    0    0 -0.51997740664E+03  0.95715677646E+03 -0.24664509795E+04  0.26962763272E+04  0.00000000000E+00 0.  1.
<mgrwt>
<rscale>  0 0.43602896E+04</rscale>
<asrwt>0</asrwt>
<pdfrwt beam="1">  1        2 0.42580992E+00 0.43602896E+04</pdfrwt>
<pdfrwt beam="2">  1       -2 0.26419719E+00 0.43602896E+04</pdfrwt>
<totfact> 0.97445220E-02</totfact>
</mgrwt>
</event>
<event>
 6    1  0.2436515E-005  0.4338039E+04  0.7818608E-02  0.7939621E-01
         -2   -1    0    0    0  501 -0.00000000000E+00  0.00000000000E+00  0.18018334752E+04  0.18018334752E+04  0.00000000000E+00 0. -1.
          2   -1    0    0  501    0  0.00000000000E+00 -0.00000000000E+00 -0.26110328432E+04  0.26110328432E+04  0.00000000000E+00 0.  1.
         23    2    1    2    0    0 -0.15933493069E+04  0.13313632697E+04  0.22960776153E+03  0.20911405762E+04  0.94122341341E+02 0.  0.
         13    1    3    3    0    0 -0.68352679147E+03  0.52674403208E+03  0.63723401726E+02  0.86529117753E+03  0.00000000000E+00 0. -1.
        -13    1    3    3    0    0 -0.90982251547E+03  0.80461923767E+03  0.16588435980E+03  0.12258493986E+04  0.00000000000E+00 0.  1.
         22    1    1    2    0    0  0.15933493069E+04 -0.13313632697E+04 -0.10388071296E+04  0.23217257423E+04  0.00000000000E+00 0.  1.
<mgrwt>
<rscale>  0 0.43380394E+04</rscale>
<asrwt>0</asrwt>
<pdfrwt beam="1">  1        2 0.40169736E+00 0.43380394E+04</pdfrwt>
<pdfrwt beam="2">  1       -2 0.27720515E+00 0.43380394E+04</pdfrwt>
<totfact> 0.10080052E-01</totfact>
</mgrwt>
</event>
<event>
 6    1  0.2436515E-005  0.4943229E+04  0.7818608E-02  0.7837325E-01
         -2   -1    0    0    0  501 -0.00000000000E+00  0.00000000000E+00  0.20521730370E+04  0.20521730370E+04  0.00000000000E+00 0. -1.
          2   -1    0    0  501    0  0.00000000000E+00 -0.00000000000E+00 -0.29767849087E+04  0.29767849087E+04  0.00000000000E+00 0.  1.
         23    2    1    2    0    0  0.10967238519E+04 -0.17503542619E+04 -0.18418035189E+04  0.27689172896E+04  0.90108293986E+02 0.  0.
         13    1    3    3    0    0  0.40193756598E+03 -0.66431767600E+03 -0.63653440731E+03  0.10040158531E+04  0.00000000000E+00 0. -1.
        -13    1    3    3    0    0  0.69478628596E+03 -0.10860365859E+04 -0.12052691116E+04  0.17649014365E+04  0.00000000000E+00 0.  1.
         22    1    1    2    0    0 -0.10967238519E+04  0.17503542619E+04  0.91719164722E+03  0.22600406561E+04  0.00000000000E+00 0. -1.
<mgrwt>
<rscale>  0 0.49432288E+04</rscale>
<asrwt>0</asrwt>
<pdfrwt beam="1">  1        2 0.45796691E+00 0.49432288E+04</pdfrwt>
<pdfrwt beam="2">  1       -2 0.31571893E+00 0.49432288E+04</pdfrwt>
<totfact> 0.33488467E-02</totfact>
</mgrwt>
</event>
<event>
 6    1  0.2436515E-005  0.1449702E+04  0.7818608E-02  0.8918607E-01
          2   -1    0    0  501    0  0.00000000000E+00  0.00000000000E+00  0.12167445938E+04  0.12167445938E+04  0.00000000000E+00 0.  1.
         -2   -1    0    0    0  501 -0.00000000000E+00 -0.00000000000E+00 -0.43181539396E+03  0.43181539396E+03  0.00000000000E+00 0. -1.
         23    2    1    2    0    0  0.25408194503E+03 -0.16341965711E+03 -0.35212131957E+03  0.47206200526E+03  0.87117701977E+02 0.  0.
         11    1    3    3    0    0  0.12901482832E+03 -0.49101701508E+02 -0.20788469284E+03  0.24954327988E+03  0.00000000000E+00 0. -1.
        -11    1    3    3    0    0  0.12506711670E+03 -0.11431795560E+03 -0.14423662673E+03  0.22251872538E+03  0.00000000000E+00 0.  1.
         22    1    1    2    0    0 -0.25408194503E+03  0.16341965711E+03  0.11370505195E+04  0.11764979825E+04  0.00000000000E+00 0.  1.
<mgrwt>
<rscale>  0 0.14497021E+04</rscale>
<asrwt>0</asrwt>
<pdfrwt beam="1">  1        2 0.18719148E+00 0.14497021E+04</pdfrwt>
<pdfrwt beam="2">  1       -2 0.66433138E-01 0.14497021E+04</pdfrwt>
<totfact> 0.37389728E+01</totfact>
</mgrwt>
</event>
<event>
 6    1  0.2436515E-005  0.4194641E+04  0.7818608E-02  0.7966392E-01
         -2   -1    0    0    0  501 -0.00000000000E+00  0.00000000000E+00  0.99723879708E+03  0.99723879708E+03  0.00000000000E+00 0. -1.
          2   -1    0    0  501    0  0.00000000000E+00 -0.00000000000E+00 -0.44109328104E+04  0.44109328104E+04  0.00000000000E+00 0.  1.
         23    2    1    2    0    0  0.20234699656E+04  0.45005080495E+03 -0.13040276913E+04  0.24505258513E+04  0.87248492041E+02 0.  0.
         11    1    3    3    0    0  0.10677050015E+04  0.19484031733E+03 -0.66694247681E+03  0.12738795025E+04  0.00000000000E+00 0. -1.
        -11    1    3    3    0    0  0.95576496415E+03  0.25521048762E+03 -0.63708521449E+03  0.11766463488E+04  0.00000000000E+00 0.  1.
         22    1    1    2    0    0 -0.20234699656E+04 -0.45005080495E+03 -0.21096663220E+04  0.29576457562E+04  0.00000000000E+00 0.  1.
<mgrwt>
<rscale>  0 0.41946410E+04</rscale>
<asrwt>0</asrwt>
<pdfrwt beam="1">  1        2 0.67860506E+00 0.41946410E+04</pdfrwt>
<pdfrwt beam="2">  1       -2 0.15342135E+00 0.41946410E+04</pdfrwt>
<totfact> 0.32615938E-02</totfact>
</mgrwt>
</event>
<event>
 6    1  0.2436515E-005  0.1235180E+04  0.7818608E-02  0.9082609E-01
         -1   -1    0    0    0  501 -0.00000000000E+00  0.00000000000E+00  0.11723890168E+03  0.11723890168E+03  0.00000000000E+00 0. -1.
          1   -1    0    0  501    0  0.00000000000E+00 -0.00000000000E+00 -0.32533333479E+04  0.32533333479E+04  0.00000000000E+00 0.  1.
         23    2    1    2    0    0  0.48673425846E+03  0.37369019053E+03 -0.16396814570E+04  0.17532267605E+04  0.93242674499E+02 0.  0.
         11    1    3    3    0    0  0.20031395069E+03  0.10957418603E+03 -0.52812615171E+03  0.57536893661E+03  0.00000000000E+00 0. -1.
        -11    1    3    3    0    0  0.28642030777E+03  0.26411600450E+03 -0.11115553053E+04  0.11778578239E+04  0.00000000000E+00 0.  1.
         22    1    1    2    0    0 -0.48673425846E+03 -0.37369019053E+03 -0.14964129892E+04  0.16173454891E+04  0.00000000000E+00 0.  1.
<mgrwt>
<rscale>  0 0.12351797E+04</rscale>
<asrwt>0</asrwt>
<pdfrwt beam="1">  1        1 0.50051285E+00 0.12351797E+04</pdfrwt>
<pdfrwt beam="2">  1       -1 0.18036753E-01 0.12351797E+04</pdfrwt>
<totfact> 0.94465671E+00</totfact>
</mgrwt>
</event>
<event>
 6    1  0.2436515E-005  0.2006040E+04  0.7818608E-02  0.8603802E-01
          2   -1    0    0  501    0  0.00000000000E+00  0.00000000000E+00  0.21474236510E+04  0.21474236510E+04  0.00000000000E+00 0.  1.
         -2   -1    0    0    0  501 -0.00000000000E+00 -0.00000000000E+00 -0.46849113592E+03  0.46849113592E+03  0.00000000000E+00 0. -1.
         23    2    1    2    0    0 -0.35445657107E+03 -0.47206482471E+03  0.18955869499E+04  0.19870874628E+04  0.82353145949E+02 0.  0.
         13    1    3    3    0    0 -0.14738636393E+03 -0.14871601579E+03  0.58118924713E+03  0.61775410529E+03  0.00000000000E+00 0. -1.
        -13    1    3    3    0    0 -0.20707020714E+03 -0.32334880892E+03  0.13143977027E+04  0.13693333575E+04  0.00000000000E+00 0.  1.
         22    1    1    2    0    0  0.35445657107E+03  0.47206482471E+03 -0.21665443479E+03  0.62882732417E+03  0.00000000000E+00 0. -1.
<mgrwt>
<rscale>  0 0.20060398E+04</rscale>
<asrwt>0</asrwt>
<pdfrwt beam="1">  1        2 0.33037286E+00 0.20060398E+04</pdfrwt>
<pdfrwt beam="2">  1       -2 0.72075560E-01 0.20060398E+04</pdfrwt>
<totfact> 0.89487231E+00</totfact>
</mgrwt>
</event>
<event>
 6    1  0.2436515E-005  0.2384613E+04  0.7818608E-02  0.8445287E-01
         -2   -1    0    0    0  501 -0.00000000000E+00  0.00000000000E+00  0.51877005716E+03  0.51877005716E+03  0.00000000000E+00 0. -1.
          2   -1    0    0  501    0  0.00000000000E+00 -0.00000000000E+00 -0.27403177687E+04  0.27403177687E+04  0.00000000000E+00 0.  1.
         23    2    1    2    0    0  0.63757922341E+03 -0.90691393562E+03 -0.17056093159E+04  0.20363071502E+04  0.91888620293E+02 0.  0.
         11    1    3    3    0    0  0.39599886174E+03 -0.61725348634E+03 -0.11812372404E+04  0.13903734689E+04  0.00000000000E+00 0. -1.
        -11    1    3    3    0    0  0.24158036167E+03 -0.28966044928E+03 -0.52437207551E+03  0.64593368127E+03  0.00000000000E+00 0.  1.
         22    1    1    2    0    0 -0.63757922341E+03  0.90691393562E+03 -0.51593839561E+03  0.12227806757E+04  0.00000000000E+00 0. -1.
<mgrwt>
<rscale>  0 0.23846130E+04</rscale>
<asrwt>0</asrwt>
<pdfrwt beam="1">  1        2 0.42158735E+00 0.23846130E+04</pdfrwt>
<pdfrwt beam="2">  1       -2 0.79810777E-01 0.23846130E+04</pdfrwt>
<totfact> 0.31434998E+00</totfact>
</mgrwt>
</event>
<event>
 6    1  0.2436515E-005  0.2741170E+04  0.7818608E-02  0.8321769E-01
          2   -1    0    0  501    0  0.00000000000E+00  0.00000000000E+00  0.23526883597E+04  0.23526883597E+04  0.00000000000E+00 0.  1.
         -2   -1    0    0    0  501 -0.00000000000E+00 -0.00000000000E+00 -0.79844967939E+03  0.79844967939E+03  0.00000000000E+00 0. -1.
         23    2    1    2    0    0  0.12882242020E+04 -0.18688664187E+03  0.28991567554E+03  0.13364863172E+04  0.87728931798E+02 0.  0.
         11    1    3    3    0    0  0.79504584202E+03 -0.15081089170E+03  0.15524089219E+03  0.82397909595E+03  0.00000000000E+00 0.  1.
        -11    1    3    3    0    0  0.49317835999E+03 -0.36075750179E+02  0.13467478335E+03  0.51250722121E+03  0.00000000000E+00 0. -1.
         22    1    1    2    0    0 -0.12882242020E+04  0.18688664187E+03  0.12643230048E+04  0.18146517220E+04  0.00000000000E+00 0.  1.
<mgrwt>
<rscale>  0 0.27411700E+04</rscale>
<asrwt>0</asrwt>
<pdfrwt beam="1">  1        2 0.36195205E+00 0.27411700E+04</pdfrwt>
<pdfrwt beam="2">  1       -2 0.12283841E+00 0.27411700E+04</pdfrwt>
<totfact> 0.18528413E+00</totfact>
</mgrwt>
</event>
<event>
 6    1  0.2436515E-005  0.8565528E+03  0.7818608E-02  0.9481584E-01
         -2   -1    0    0    0  501 -0.00000000000E+00  0.00000000000E+00  0.17340108731E+03  0.17340108731E+03  0.00000000000E+00 0. -1.
          2   -1    0    0  501    0  0.00000000000E+00 -0.00000000000E+00 -0.10577826099E+04  0.10577826099E+04  0.00000000000E+00 0.  1.
         23    2    1    2    0    0 -0.21126701537E+03  0.18241919107E+03 -0.90477177886E+03  0.95131537890E+03  0.92078581916E+02 0.  0.
         11    1    3    3    0    0 -0.75867785077E+02  0.16239810324E+02 -0.29205013056E+03  0.30218029554E+03  0.00000000000E+00 0. -1.
        -11    1    3    3    0    0 -0.13539923029E+03  0.16617938074E+03 -0.61272164830E+03  0.64913508336E+03  0.00000000000E+00 0.  1.
         22    1    1    2    0    0  0.21126701537E+03 -0.18241919107E+03  0.20390256253E+02  0.27986831833E+03  0.00000000000E+00 0. -1.
<mgrwt>
<rscale>  0 0.85655275E+03</rscale>
<asrwt>0</asrwt>
<pdfrwt beam="1">  1        2 0.16273578E+00 0.85655275E+03</pdfrwt>
<pdfrwt beam="2">  1       -2 0.26677091E-01 0.85655275E+03</pdfrwt>
<totfact> 0.29566751E+02</totfact>
</mgrwt>
</event>
<event>
 6    1  0.2436515E-005  0.2026416E+04  0.7818608E-02  0.8594369E-01
         -1   -1    0    0    0  501 -0.00000000000E+00  0.00000000000E+00  0.82314116182E+03  0.82314116182E+03  0.00000000000E+00 0. -1.
          1   -1    0    0  501    0  0.00000000000E+00 -0.00000000000E+00 -0.12471616235E+04  0.12471616235E+04  0.00000000000E+00 0.  1.
         23    2    1    2    0    0  0.52884561366E+02 -0.70355797356E+03 -0.95248153003E+03  0.11887917533E+04  0.90632050821E+02 0.  0.
         11    1    3    3    0    0  0.16739439513E+02 -0.61929151444E+03 -0.82190583813E+03  0.10292382598E+04  0.00000000000E+00 0.  1.
        -11    1    3    3    0    0  0.36145121853E+02 -0.84266459123E+02 -0.13057569190E+03  0.15955349348E+03  0.00000000000E+00 0. -1.
         22    1    1    2    0    0 -0.52884561366E+02  0.70355797356E+03  0.52846106829E+03  0.88151103209E+03  0.00000000000E+00 0. -1.
<mgrwt>
<rscale>  0 0.20264156E+04</rscale>
<asrwt>0</asrwt>
<pdfrwt beam="1">  1        1 0.19187102E+00 0.20264156E+04</pdfrwt>
<pdfrwt beam="2">  1       -1 0.12663710E+00 0.20264156E+04</pdfrwt>
<totfact> 0.49508567E+00</totfact>
</mgrwt>
</event>
<event>
 6    1  0.2436515E-005  0.1062468E+04  0.7818608E-02  0.9242566E-01
         -1   -1    0    0    0  501 -0.00000000000E+00  0.00000000000E+00  0.19804747914E+03  0.19804747914E+03  0.00000000000E+00 0. -1.
          1   -1    0    0  501    0  0.00000000000E+00 -0.00000000000E+00 -0.14249578946E+04  0.14249578946E+04  0.00000000000E+00 0.  1.
         23    2    1    2    0    0  0.11153696774E+03  0.16963606464E+03 -0.13612761154E+04  0.13795489487E+04  0.94158110358E+02 0.  0.
         13    1    3    3    0    0  0.67865016592E+02  0.72064103440E+02 -0.38834385818E+03  0.40076158457E+03  0.00000000000E+00 0. -1.
        -13    1    3    3    0    0  0.43671951152E+02  0.97571961205E+02 -0.97293225725E+03  0.97878736410E+03  0.00000000000E+00 0.  1.
         22    1    1    2    0    0 -0.11153696774E+03 -0.16963606464E+03  0.13436569994E+03  0.24345642510E+03  0.00000000000E+00 0. -1.
<mgrwt>
<rscale>  0 0.10624675E+04</rscale>
<asrwt>0</asrwt>
<pdfrwt beam="1">  1        1 0.21922428E+00 0.10624675E+04</pdfrwt>
<pdfrwt beam="2">  1       -1 0.30468844E-01 0.10624675E+04</pdfrwt>
<totfact> 0.73149736E+01</totfact>
</mgrwt>
</event>
<event>
 6    1  0.2436515E-005  0.1890520E+04  0.7818608E-02  0.8659590E-01
          2   -1    0    0  501    0  0.00000000000E+00  0.00000000000E+00  0.13187657799E+04  0.13187657799E+04  0.00000000000E+00 0.  1.
         -2   -1    0    0    0  501 -0.00000000000E+00 -0.00000000000E+00 -0.67753967116E+03  0.67753967116E+03  0.00000000000E+00 0. -1.
         23    2    1    2    0    0  0.10561048142E+03 -0.93132340985E+03  0.43033626143E+03  0.10355810394E+04  0.93391240183E+02 0.  0.
         13    1    3    3    0    0  0.12660531649E+02 -0.41249100092E+03  0.15434302315E+03  0.44060286392E+03  0.00000000000E+00 0. -1.
        -13    1    3    3    0    0  0.92949949774E+02 -0.51883240893E+03  0.27599323828E+03  0.59497817548E+03  0.00000000000E+00 0.  1.
         22    1    1    2    0    0 -0.10561048142E+03  0.93132340985E+03  0.21088984735E+03  0.96072441170E+03  0.00000000000E+00 0. -1.
<mgrwt>
<rscale>  0 0.18905196E+04</rscale>
<asrwt>0</asrwt>
<pdfrwt beam="1">  1        2 0.20288704E+00 0.18905196E+04</pdfrwt>
<pdfrwt beam="2">  1       -2 0.10423687E+00 0.18905196E+04</pdfrwt>
<totfact> 0.11304600E+01</totfact>
</mgrwt>
</event>
<event>
 6    1  0.2436515E-005  0.5226278E+04  0.7818608E-02  0.7794519E-01
          2   -1    0    0  501    0  0.00000000000E+00  0.00000000000E+00  0.42389456741E+04  0.42389456741E+04  0.00000000000E+00 0.  1.
         -2   -1    0    0    0  501 -0.00000000000E+00 -0.00000000000E+00 -0.16108947658E+04  0.16108947658E+04  0.00000000000E+00 0. -1.
         23    2    1    2    0    0 -0.10768629421E+04  0.16232396060E+04 -0.63384124215E+03  0.20505666915E+04  0.92349453985E+02 0.  0.
         11    1    3    3    0    0 -0.34982415262E+03  0.58796624442E+03 -0.25264720807E+03  0.72932287369E+03  0.00000000000E+00 0.  1.
        -11    1    3    3    0    0 -0.72703878946E+03  0.10352733616E+04 -0.38119403408E+03  0.13212438178E+04  0.00000000000E+00 0. -1.
         22    1    1    2    0    0  0.10768629421E+04 -0.16232396060E+04  0.32618921504E+04  0.37992737484E+04  0.00000000000E+00 0.  1.
<mgrwt>
<rscale>  0 0.52262780E+04</rscale>
<asrwt>0</asrwt>
<pdfrwt beam="1">  1        2 0.65214548E+00 0.52262780E+04</pdfrwt>
<pdfrwt beam="2">  1       -2 0.24782997E+00 0.52262780E+04</pdfrwt>
<totfact> 0.10117048E-02</totfact>
</mgrwt>
</event>
<event>
 6    1  0.2436515E-005  0.2567592E+04  0.7818608E-02  0.8379294E-01
         -2   -1    0    0    0  501 -0.00000000000E+00  0.00000000000E+00  0.12727511069E+04  0.12727511069E+04  0.00000000000E+00 0. -1.
          2   -1    0    0  501    0  0.00000000000E+00 -0.00000000000E+00 -0.12949364620E+04  0.12949364620E+04  0.00000000000E+00 0.  1.
         23    2    1    2    0    0  0.11540403515E+04  0.41165087423E+03 -0.38875544915E+03  0.12887664576E+04  0.92317970663E+02 0.  0.
         13    1    3    3    0    0  0.55129349612E+03  0.22202462255E+03 -0.14705795679E+03  0.61224626951E+03  0.00000000000E+00 0. -1.
        -13    1    3    3    0    0  0.60274685540E+03  0.18962625168E+03 -0.24169749236E+03  0.67652018805E+03  0.00000000000E+00 0.  1.
         22    1    1    2    0    0 -0.11540403515E+04 -0.41165087423E+03  0.36657009398E+03  0.12789211113E+04  0.00000000000E+00 0. -1.
<mgrwt>
<rscale>  0 0.25675917E+04</rscale>
<asrwt>0</asrwt>
<pdfrwt beam="1">  1        2 0.19922099E+00 0.25675917E+04</pdfrwt>
<pdfrwt beam="2">  1       -2 0.19580786E+00 0.25675917E+04</pdfrwt>
<totfact> 0.20927323E+00</totfact>
</mgrwt>
</event>
<event>
 6    1  0.2436515E-005  0.3666870E+04  0.7818608E-02  0.8075344E-01
          2   -1    0    0  501    0  0.00000000000E+00  0.00000000000E+00  0.30870471918E+04  0.30870471918E+04  0.00000000000E+00 0.  1.
         -2   -1    0    0    0  501 -0.00000000000E+00 -0.00000000000E+00 -0.10888996245E+04  0.10888996245E+04  0.00000000000E+00 0. -1.
         23    2    1    2    0    0 -0.17846881340E+04 -0.32433430917E+03  0.70514988608E+03  0.19483589992E+04  0.92530795832E+02 0.  0.
         13    1    3    3    0    0 -0.23605688046E+03 -0.36607150707E+02  0.12645503731E+03  0.27028468465E+03  0.00000000000E+00 0.  1.
        -13    1    3    3    0    0 -0.15486312535E+04 -0.28772715846E+03  0.57869484877E+03  0.16780743145E+04  0.00000000000E+00 0. -1.
         22    1    1    2    0    0  0.17846881340E+04  0.32433430917E+03  0.12929976812E+04  0.22275878172E+04  0.00000000000E+00 0.  1.
<mgrwt>
<rscale>  0 0.36668703E+04</rscale>
<asrwt>0</asrwt>
<pdfrwt beam="1">  1        2 0.47493033E+00 0.36668703E+04</pdfrwt>
<pdfrwt beam="2">  1       -2 0.16752302E+00 0.36668703E+04</pdfrwt>
<totfact> 0.27578999E-01</totfact>
</mgrwt>
</event>
<event>
 6    1  0.2436515E-005  0.2738928E+04  0.7818608E-02  0.8322484E-01
         -2   -1    0    0    0  501 -0.00000000000E+00  0.00000000000E+00  0.15148124240E+04  0.15148124240E+04  0.00000000000E+00 0. -1.
          2   -1    0    0  501    0  0.00000000000E+00 -0.00000000000E+00 -0.12380617809E+04  0.12380617809E+04  0.00000000000E+00 0.  1.
         23    2    1    2    0    0 -0.15886856954E+02 -0.84661028107E+03 -0.94129870465E+03  0.12694169005E+04  0.91513144645E+02 0.  0.
         13    1    3    3    0    0 -0.31523511423E+02 -0.61980794732E+03 -0.73972264763E+03  0.96558024977E+03  0.00000000000E+00 0. -1.
        -13    1    3    3    0    0  0.15636654469E+02 -0.22680233375E+03 -0.20157605702E+03  0.30383665072E+03  0.00000000000E+00 0.  1.
         22    1    1    2    0    0  0.15886856954E+02  0.84661028107E+03  0.12180493477E+04  0.14834573043E+04  0.00000000000E+00 0. -1.
<mgrwt>
<rscale>  0 0.27389278E+04</rscale>
<asrwt>0</asrwt>
<pdfrwt beam="1">  1        2 0.19047104E+00 0.27389278E+04</pdfrwt>
<pdfrwt beam="2">  1       -2 0.23304807E+00 0.27389278E+04</pdfrwt>
<totfact> 0.12864660E+00</totfact>
</mgrwt>
</event>
<event>
 6    1  0.2436515E-005  0.1296896E+04  0.7818608E-02  0.9032030E-01
          2   -1    0    0  501    0  0.00000000000E+00  0.00000000000E+00  0.20088865098E+04  0.20088865098E+04  0.00000000000E+00 0.  1.
         -2   -1    0    0    0  501 -0.00000000000E+00 -0.00000000000E+00 -0.20931231454E+03  0.20931231454E+03  0.00000000000E+00 0. -1.
         23    2    1    2    0    0 -0.58775529373E+03  0.11155152554E+03  0.49041378855E+03  0.77882361311E+03  0.90335531087E+02 0.  0.
         13    1    3    3    0    0 -0.24919025775E+03  0.53430305467E+02  0.15268031524E+03  0.29708897785E+03  0.00000000000E+00 0.  1.
        -13    1    3    3    0    0 -0.33856503599E+03  0.58121220075E+02  0.33773347331E+03  0.48173463526E+03  0.00000000000E+00 0. -1.
         22    1    1    2    0    0  0.58775529373E+03 -0.11155152554E+03  0.13091604067E+04  0.14393752112E+04  0.00000000000E+00 0.  1.
<mgrwt>
<rscale>  0 0.12968958E+04</rscale>
<asrwt>0</asrwt>
<pdfrwt beam="1">  1        2 0.30905945E+00 0.12968958E+04</pdfrwt>
<pdfrwt beam="2">  1       -2 0.32201896E-01 0.12968958E+04</pdfrwt>
<totfact> 0.58188458E+01</totfact>
</mgrwt>
</event>
<event>
 6    1  0.2436515E-005  0.1375149E+04  0.7818608E-02  0.8972006E-01
         -2   -1    0    0    0  501 -0.00000000000E+00  0.00000000000E+00  0.14195226721E+03  0.14195226721E+03  0.00000000000E+00 0. -1.
          2   -1    0    0  501    0  0.00000000000E+00 -0.00000000000E+00 -0.33304039868E+04  0.33304039868E+04  0.00000000000E+00 0.  1.
         23    2    1    2    0    0  0.49905061871E+03  0.35560276262E+03 -0.83035845373E+03  0.10359431742E+04  0.90433698111E+02 0.  0.
         13    1    3    3    0    0  0.41488972298E+03  0.28544289969E+03 -0.73326690398E+03  0.88954566139E+03  0.00000000000E+00 0.  1.
        -13    1    3    3    0    0  0.84160895730E+02  0.70159862934E+02 -0.97091549747E+02  0.14639751285E+03  0.00000000000E+00 0. -1.
         22    1    1    2    0    0 -0.49905061871E+03 -0.35560276262E+03 -0.23580932659E+04  0.24364130798E+04  0.00000000000E+00 0.  1.
<mgrwt>
<rscale>  0 0.13751486E+04</rscale>
<asrwt>0</asrwt>
<pdfrwt beam="1">  1        2 0.51236983E+00 0.13751486E+04</pdfrwt>
<pdfrwt beam="2">  1       -2 0.21838811E-01 0.13751486E+04</pdfrwt>
<totfact> 0.19242131E+01</totfact>
</mgrwt>
</event>
<event>
 6    1  0.2436515E-005  0.4222184E+04  0.7818608E-02  0.7961166E-01
         -2   -1    0    0    0  501 -0.00000000000E+00  0.00000000000E+00  0.19785599012E+04  0.19785599012E+04  0.00000000000E+00 0. -1.
          2   -1    0    0  501    0  0.00000000000E+00 -0.00000000000E+00 -0.22525012434E+04  0.22525012434E+04  0.00000000000E+00 0.  1.
         23    2    1    2    0    0 -0.11326201623E+04 -0.69008542990E+03  0.15074952461E+04  0.20101238086E+04  0.94918260266E+02 0.  0.
         13    1    3    3    0    0 -0.43939469155E+03 -0.28517367066E+03  0.66238693655E+03  0.84448100696E+03  0.00000000000E+00 0.  1.
        -13    1    3    3    0    0 -0.69322547074E+03 -0.40491175924E+03  0.84510830955E+03  0.11656428016E+04  0.00000000000E+00 0. -1.
         22    1    1    2    0    0  0.11326201623E+04  0.69008542990E+03 -0.17814365883E+04  0.22209373361E+04  0.00000000000E+00 0.  1.
<mgrwt>
<rscale>  0 0.42221836E+04</rscale>
<asrwt>0</asrwt>
<pdfrwt beam="1">  1        2 0.34653865E+00 0.42221836E+04</pdfrwt>
<pdfrwt beam="2">  1       -2 0.30439383E+00 0.42221836E+04</pdfrwt>
<totfact> 0.11165331E-01</totfact>
</mgrwt>
</event>
<event>
 6    1  0.2436515E-005  0.1652386E+04  0.7818608E-02  0.8788996E-01
         -2   -1    0    0    0  501 -0.00000000000E+00  0.00000000000E+00  0.87756747559E+03  0.87756747559E+03  0.00000000000E+00 0.  1.
          2   -1    0    0  501    0  0.00000000000E+00 -0.00000000000E+00 -0.77782578757E+03  0.77782578757E+03  0.00000000000E+00 0. -1.
         23    2    1    2    0    0 -0.25820965849E+03  0.47792841093E+03 -0.57042097736E+03  0.79271963323E+03  0.89087214477E+02 0.  0.
         13    1    3    3    0    0 -0.16630952982E+03  0.38671226793E+03 -0.44002402197E+03  0.60895515252E+03  0.00000000000E+00 0.  1.
        -13    1    3    3    0    0 -0.91900128673E+02  0.91216143004E+02 -0.13039695539E+03  0.18376448071E+03  0.00000000000E+00 0. -1.
         22    1    1    2    0    0  0.25820965849E+03 -0.47792841093E+03  0.67016266538E+03  0.86267362994E+03  0.00000000000E+00 0.  1.
<mgrwt>
<rscale>  0 0.16523857E+04</rscale>
<asrwt>0</asrwt>
<pdfrwt beam="1">  1        2 0.11966551E+00 0.16523857E+04</pdfrwt>
<pdfrwt beam="2">  1       -2 0.13501038E+00 0.16523857E+04</pdfrwt>
<totfact> 0.13465449E+01</totfact>
</mgrwt>
</event>
<event>
 6    1  0.2436515E-005  0.5168452E+04  0.7818608E-02  0.7803035E-01
          2   -1    0    0  501    0  0.00000000000E+00  0.00000000000E+00  0.20841874098E+04  0.20841874098E+04  0.00000000000E+00 0.  1.
         -2   -1    0    0    0  501 -0.00000000000E+00 -0.00000000000E+00 -0.32042340675E+04  0.32042340675E+04  0.00000000000E+00 0. -1.
         23    2    1    2    0    0  0.24703389841E+04  0.75001028114E+03 -0.65231214143E+03  0.26647092797E+04  0.10037079693E+03 0.  0.
         13    1    3    3    0    0  0.10691388398E+04  0.27795895774E+03 -0.30142206494E+03  0.11450651956E+04  0.00000000000E+00 0. -1.
        -13    1    3    3    0    0  0.14012001443E+04  0.47205132340E+03 -0.35089007649E+03  0.15196440841E+04  0.00000000000E+00 0.  1.
         22    1    1    2    0    0 -0.24703389841E+04 -0.75001028114E+03 -0.46773451626E+03  0.26237121976E+04  0.00000000000E+00 0. -1.
<mgrwt>
<rscale>  0 0.51684521E+04</rscale>
<asrwt>0</asrwt>
<pdfrwt beam="1">  1        2 0.32064422E+00 0.51684521E+04</pdfrwt>
<pdfrwt beam="2">  1       -2 0.49295909E+00 0.51684521E+04</pdfrwt>
<totfact> 0.79191994E-03</totfact>
</mgrwt>
</event>
<event>
 6    1  0.2436515E-005  0.2457685E+04  0.7818608E-02  0.8418217E-01
         -2   -1    0    0    0  501 -0.00000000000E+00  0.00000000000E+00  0.54695652316E+03  0.54695652316E+03  0.00000000000E+00 0. -1.
          2   -1    0    0  501    0  0.00000000000E+00 -0.00000000000E+00 -0.27608296838E+04  0.27608296838E+04  0.00000000000E+00 0.  1.
         23    2    1    2    0    0 -0.98866140641E+03  0.72575562850E+03 -0.11624898441E+04  0.16923669155E+04  0.92469077595E+02 0.  0.
         11    1    3    3    0    0 -0.42871713176E+03  0.26324983280E+03 -0.50142160480E+03  0.71029745832E+03  0.00000000000E+00 0. -1.
        -11    1    3    3    0    0 -0.55994427465E+03  0.46250579570E+03 -0.66106823925E+03  0.98206945717E+03  0.00000000000E+00 0.  1.
         22    1    1    2    0    0  0.98866140641E+03 -0.72575562850E+03 -0.10513833166E+04  0.16154192915E+04  0.00000000000E+00 0.  1.
<mgrwt>
<rscale>  0 0.24576849E+04</rscale>
<asrwt>0</asrwt>
<pdfrwt beam="1">  1        2 0.42474303E+00 0.24576849E+04</pdfrwt>
<pdfrwt beam="2">  1       -2 0.84147157E-01 0.24576849E+04</pdfrwt>
<totfact> 0.26943312E+00</totfact>
</mgrwt>
</event>
<event>
 6    1  0.2436515E-005  0.3079734E+04  0.7818608E-02  0.8221322E-01
         -2   -1    0    0    0  501 -0.00000000000E+00  0.00000000000E+00  0.35072720492E+04  0.35072720492E+04  0.00000000000E+00 0. -1.
          2   -1    0    0  501    0  0.00000000000E+00 -0.00000000000E+00 -0.67607811267E+03  0.67607811267E+03  0.00000000000E+00 0.  1.
         23    2    1    2    0    0  0.14533495817E+03 -0.93302108087E+02  0.34934629212E+04  0.34989323499E+04  0.91743523710E+02 0.  0.
         13    1    3    3    0    0  0.14779929316E+03 -0.70345379650E+02  0.25856906334E+04  0.25908664873E+04  0.00000000000E+00 0.  1.
        -13    1    3    3    0    0 -0.24643349920E+01 -0.22956728437E+02  0.90777228781E+03  0.90806586261E+03  0.00000000000E+00 0. -1.
         22    1    1    2    0    0 -0.14533495817E+03  0.93302108087E+02 -0.66226898460E+03  0.68441781201E+03  0.00000000000E+00 0.  1.
<mgrwt>
<rscale>  0 0.30797337E+04</rscale>
<asrwt>0</asrwt>
<pdfrwt beam="1">  1        2 0.10401202E+00 0.30797337E+04</pdfrwt>
<pdfrwt beam="2">  1       -2 0.53958030E+00 0.30797337E+04</pdfrwt>
<totfact> 0.35066821E-02</totfact>
</mgrwt>
</event>
<event>
 6    1  0.2436515E-005  0.1684116E+04  0.7818608E-02  0.8770476E-01
          2   -1    0    0  501    0  0.00000000000E+00  0.00000000000E+00  0.30528948914E+04  0.30528948914E+04  0.00000000000E+00 0.  1.
         -2   -1    0    0    0  501 -0.00000000000E+00 -0.00000000000E+00 -0.23225879176E+03  0.23225879176E+03  0.00000000000E+00 0. -1.
         23    2    1    2    0    0 -0.63246041558E+03  0.19239125057E+03  0.40509593423E+03  0.78078652533E+03  0.92218824671E+02 0.  0.
         13    1    3    3    0    0 -0.26477923402E+03  0.56244358510E+02  0.21150059593E+03  0.34351706321E+03  0.00000000000E+00 0.  1.
        -13    1    3    3    0    0 -0.36768118156E+03  0.13614689206E+03  0.19359533830E+03  0.43726946212E+03  0.00000000000E+00 0. -1.
         22    1    1    2    0    0  0.63246041558E+03 -0.19239125057E+03  0.24155401654E+04  0.25043671578E+04  0.00000000000E+00 0.  1.
<mgrwt>
<rscale>  0 0.16841160E+04</rscale>
<asrwt>0</asrwt>
<pdfrwt beam="1">  1        2 0.46967611E+00 0.16841160E+04</pdfrwt>
<pdfrwt beam="2">  1       -2 0.35732124E-01 0.16841160E+04</pdfrwt>
<totfact> 0.11372438E+01</totfact>
</mgrwt>
</event>
<event>
 6    1  0.2436515E-005  0.1428625E+04  0.7818608E-02  0.8933355E-01
          2   -1    0    0  501    0  0.00000000000E+00  0.00000000000E+00  0.13264262828E+04  0.13264262828E+04  0.00000000000E+00 0.  1.
         -2   -1    0    0    0  501 -0.00000000000E+00 -0.00000000000E+00 -0.38467472926E+03  0.38467472926E+03  0.00000000000E+00 0. -1.
         23    2    1    2    0    0  0.15826131611E+03  0.21340311506E+03 -0.31775888746E+03  0.42387372650E+03  0.90059379108E+02 0.  0.
         11    1    3    3    0    0  0.48932315827E+02  0.86733425006E+02 -0.18568482099E+03  0.21070337276E+03  0.00000000000E+00 0. -1.
        -11    1    3    3    0    0  0.10932900028E+03  0.12666969006E+03 -0.13207406647E+03  0.21317035374E+03  0.00000000000E+00 0.  1.
         22    1    1    2    0    0 -0.15826131611E+03 -0.21340311506E+03  0.12595104410E+04  0.12872272856E+04  0.00000000000E+00 0.  1.
<mgrwt>
<rscale>  0 0.14286255E+04</rscale>
<asrwt>0</asrwt>
<pdfrwt beam="1">  1        2 0.20406558E+00 0.14286255E+04</pdfrwt>
<pdfrwt beam="2">  1       -2 0.59180728E-01 0.14286255E+04</pdfrwt>
<totfact> 0.41318881E+01</totfact>
</mgrwt>
</event>
<event>
 6    1  0.2436515E-005  0.1943152E+04  0.7818608E-02  0.8633670E-01
          2   -1    0    0  501    0  0.00000000000E+00  0.00000000000E+00  0.20934932258E+04  0.20934932258E+04  0.00000000000E+00 0.  1.
         -2   -1    0    0    0  501 -0.00000000000E+00 -0.00000000000E+00 -0.45090162130E+03  0.45090162130E+03  0.00000000000E+00 0. -1.
         23    2    1    2    0    0 -0.91727879162E+03 -0.15096090872E+03  0.11835559695E+04  0.15076194173E+04  0.89005601995E+02 0.  0.
         13    1    3    3    0    0 -0.32676797535E+03 -0.59796521284E+02  0.35619123774E+03  0.48705762649E+03  0.00000000000E+00 0. -1.
        -13    1    3    3    0    0 -0.59051081626E+03 -0.91164387433E+02  0.82736473172E+03  0.10205617909E+04  0.00000000000E+00 0.  1.
         22    1    1    2    0    0  0.91727879162E+03  0.15096090872E+03  0.45903563503E+03  0.10367754298E+04  0.00000000000E+00 0.  1.
<mgrwt>
<rscale>  0 0.19431516E+04</rscale>
<asrwt>0</asrwt>
<pdfrwt beam="1">  1        2 0.32207587E+00 0.19431516E+04</pdfrwt>
<pdfrwt beam="2">  1       -2 0.69369482E-01 0.19431516E+04</pdfrwt>
<totfact> 0.10485280E+01</totfact>
</mgrwt>
</event>
<event>
 6    1  0.2436515E-005  0.2158362E+04  0.7818608E-02  0.8535962E-01
          2   -1    0    0  501    0  0.00000000000E+00  0.00000000000E+00  0.79216005854E+03  0.79216005854E+03  0.00000000000E+00 0.  1.
         -2   -1    0    0    0  501 -0.00000000000E+00 -0.00000000000E+00 -0.14701967628E+04  0.14701967628E+04  0.00000000000E+00 0. -1.
         23    2    1    2    0    0 -0.42979998418E+03 -0.94780140373E+03 -0.48062770006E+02  0.10458360919E+04  0.91692823755E+02 0.  0.
         13    1    3    3    0    0 -0.28721995134E+03 -0.70280266780E+03 -0.58998367198E+01  0.75925074803E+03  0.00000000000E+00 0. -1.
        -13    1    3    3    0    0 -0.14258003283E+03 -0.24499873593E+03 -0.42162933286E+02  0.28658534386E+03  0.00000000000E+00 0.  1.
         22    1    1    2    0    0  0.42979998418E+03  0.94780140373E+03 -0.62997393424E+03  0.12165207294E+04  0.00000000000E+00 0. -1.
<mgrwt>
<rscale>  0 0.21583616E+04</rscale>
<asrwt>0</asrwt>
<pdfrwt beam="1">  1        2 0.12187078E+00 0.21583616E+04</pdfrwt>
<pdfrwt beam="2">  1       -2 0.22618411E+00 0.21583616E+04</pdfrwt>
<totfact> 0.28907035E+00</totfact>
</mgrwt>
</event>
<event>
 6    1  0.3020217E-005  0.3891022E+04  0.7818608E-02  0.8026899E-01
         -2   -1    0    0    0  501 -0.00000000000E+00  0.00000000000E+00  0.16553038713E+04  0.16553038713E+04  0.00000000000E+00 0. -1.
          2   -1    0    0  501    0  0.00000000000E+00 -0.00000000000E+00 -0.22865971921E+04  0.22865971921E+04  0.00000000000E+00 0.  1.
         23    2    1    2    0    0  0.12710341542E+04  0.97613407826E+03  0.79967572355E+03  0.17934043876E+04  0.91937340834E+02 0.  0.
         13    1    3    3    0    0  0.34951248488E+03  0.31949635066E+03  0.24799357188E+03  0.53454439186E+03  0.00000000000E+00 0. -1.
        -13    1    3    3    0    0  0.92152166937E+03  0.65663772760E+03  0.55168215167E+03  0.12588599957E+04  0.00000000000E+00 0.  1.
         22    1    1    2    0    0 -0.12710341542E+04 -0.97613407826E+03 -0.14309690443E+04  0.21484966758E+04  0.00000000000E+00 0.  1.
<mgrwt>
<rscale>  0 0.38910221E+04</rscale>
<asrwt>0</asrwt>
<pdfrwt beam="1">  1        2 0.35178418E+00 0.38910221E+04</pdfrwt>
<pdfrwt beam="2">  1       -2 0.25466213E+00 0.38910221E+04</pdfrwt>
<totfact> 0.22090706E-01</totfact>
</mgrwt>
</event>
<event>
 6    1  0.2436515E-005  0.5626293E+04  0.7818608E-02  0.7738546E-01
          1   -1    0    0  501    0  0.00000000000E+00  0.00000000000E+00  0.27347118083E+04  0.27347118083E+04  0.00000000000E+00 0.  1.
         -1   -1    0    0    0  501 -0.00000000000E+00 -0.00000000000E+00 -0.28938305156E+04  0.28938305156E+04  0.00000000000E+00 0. -1.
         23    2    1    2    0    0  0.19395286113E+04 -0.19907351502E+04 -0.50963764059E+03  0.28271745874E+04  0.91585754518E+02 0.  0.
         11    1    3    3    0    0  0.97701445922E+03 -0.10575804249E+04 -0.23831996137E+03  0.14593937141E+04  0.00000000000E+00 0. -1.
        -11    1    3    3    0    0  0.96251415211E+03 -0.93315472528E+03 -0.27131767923E+03  0.13677808733E+04  0.00000000000E+00 0.  1.
         22    1    1    2    0    0 -0.19395286113E+04  0.19907351502E+04  0.35051893336E+03  0.28013677365E+04  0.00000000000E+00 0.  1.
<mgrwt>
<rscale>  0 0.56262927E+04</rscale>
<asrwt>0</asrwt>
<pdfrwt beam="1">  1        1 0.42072489E+00 0.56262927E+04</pdfrwt>
<pdfrwt beam="2">  1       -1 0.44520470E+00 0.56262927E+04</pdfrwt>
<totfact> 0.22330935E-03</totfact>
</mgrwt>
</event>
<event>
 6    1  0.2436515E-005  0.6928191E+04  0.7818608E-02  0.7584887E-01
         -2   -1    0    0    0  501 -0.00000000000E+00  0.00000000000E+00  0.36283229868E+04  0.36283229868E+04  0.00000000000E+00 0. -1.
          2   -1    0    0  501    0  0.00000000000E+00 -0.00000000000E+00 -0.33073011546E+04  0.33073011546E+04  0.00000000000E+00 0.  1.
         23    2    1    2    0    0  0.57744277340E+03  0.24005737641E+03  0.35706651602E+04  0.36263569325E+04  0.98727985762E+02 0.  0.
         13    1    3    3    0    0  0.25182559119E+03  0.12261254965E+03  0.13363131542E+04  0.13653508017E+04  0.00000000000E+00 0.  1.
        -13    1    3    3    0    0  0.32561718221E+03  0.11744482676E+03  0.22343520060E+04  0.22610061308E+04  0.00000000000E+00 0. -1.
         22    1    1    2    0    0 -0.57744277340E+03 -0.24005737641E+03 -0.32496433280E+04  0.33092672089E+04  0.00000000000E+00 0.  1.
<mgrwt>
<rscale>  0 0.69281908E+04</rscale>
<asrwt>0</asrwt>
<pdfrwt beam="1">  1        2 0.50881556E+00 0.69281908E+04</pdfrwt>
<pdfrwt beam="2">  1       -2 0.55820353E+00 0.69281908E+04</pdfrwt>
<totfact> 0.54891412E-04</totfact>
</mgrwt>
</event>
<event>
 6    1  0.2436515E-005  0.1698004E+04  0.7818608E-02  0.8762504E-01
         -1   -1    0    0    0  501 -0.00000000000E+00  0.00000000000E+00  0.15794566635E+04  0.15794566635E+04  0.00000000000E+00 0. -1.
          1   -1    0    0  501    0  0.00000000000E+00 -0.00000000000E+00 -0.45636221318E+03  0.45636221318E+03  0.00000000000E+00 0.  1.
         23    2    1    2    0    0  0.14793097050E+03 -0.65698725100E+03 -0.51858547341E+02  0.68155510374E+03  0.91171434652E+02 0.  0.
         13    1    3    3    0    0  0.79319249231E+02 -0.37957042912E+03 -0.74584621544E+02  0.39487734771E+03  0.00000000000E+00 0.  1.
        -13    1    3    3    0    0  0.68611721268E+02 -0.27741682187E+03  0.22726074203E+02  0.28667775603E+03  0.00000000000E+00 0. -1.
         22    1    1    2    0    0 -0.14793097050E+03  0.65698725100E+03  0.11749529977E+04  0.13542637729E+04  0.00000000000E+00 0. -1.
<mgrwt>
<rscale>  0 0.16980039E+04</rscale>
<asrwt>0</asrwt>
<pdfrwt beam="1">  1        1 0.70209572E-01 0.16980039E+04</pdfrwt>
<pdfrwt beam="2">  1       -1 0.24299333E+00 0.16980039E+04</pdfrwt>
<totfact> 0.37053349E+00</totfact>
</mgrwt>
</event>
<event>
 6    1  0.2436515E-005  0.1644309E+04  0.7818608E-02  0.8793780E-01
          2   -1    0    0  501    0  0.00000000000E+00  0.00000000000E+00  0.13509689648E+04  0.13509689648E+04  0.00000000000E+00 0.  1.
         -2   -1    0    0    0  501 -0.00000000000E+00 -0.00000000000E+00 -0.50033559910E+03  0.50033559910E+03  0.00000000000E+00 0. -1.
         23    2    1    2    0    0  0.67166395523E+03  0.46586783004E+03  0.35700674746E+03  0.89640533254E+03  0.89013474616E+02 0.  0.
         13    1    3    3    0    0  0.15530640170E+03  0.14140119343E+03  0.62226666285E+02  0.21905828884E+03  0.00000000000E+00 0. -1.
        -13    1    3    3    0    0  0.51635755353E+03  0.32446663661E+03  0.29478008117E+03  0.67734704371E+03  0.00000000000E+00 0.  1.
         22    1    1    2    0    0 -0.67166395523E+03 -0.46586783004E+03  0.49362661824E+03  0.95489923136E+03  0.00000000000E+00 0.  1.
<mgrwt>
<rscale>  0 0.16443088E+04</rscale>
<asrwt>0</asrwt>
<pdfrwt beam="1">  1        2 0.20784138E+00 0.16443088E+04</pdfrwt>
<pdfrwt beam="2">  1       -2 0.76974708E-01 0.16443088E+04</pdfrwt>
<totfact> 0.22241299E+01</totfact>
</mgrwt>
</event>
<event>
 6    1  0.2436515E-005  0.3604968E+04  0.7818608E-02  0.8089355E-01
         -2   -1    0    0    0  501 -0.00000000000E+00  0.00000000000E+00  0.13062526118E+04  0.13062526118E+04  0.00000000000E+00 0. -1.
          2   -1    0    0  501    0  0.00000000000E+00 -0.00000000000E+00 -0.24872278220E+04  0.24872278220E+04  0.00000000000E+00 0.  1.
         23    2    1    2    0    0 -0.17669560307E+04  0.30921253329E+03 -0.76523343874E+03  0.19521257081E+04  0.86409252926E+02 0.  0.
         11    1    3    3    0    0 -0.11242687719E+04  0.15770893380E+03 -0.50123099885E+03  0.12410015687E+04  0.00000000000E+00 0. -1.
        -11    1    3    3    0    0 -0.64268725881E+03  0.15150359950E+03 -0.26400243989E+03  0.71112413935E+03  0.00000000000E+00 0.  1.
         22    1    1    2    0    0  0.17669560307E+04 -0.30921253329E+03 -0.41574177148E+03  0.18413547257E+04  0.00000000000E+00 0.  1.
<mgrwt>
<rscale>  0 0.36049676E+04</rscale>
<asrwt>0</asrwt>
<pdfrwt beam="1">  1        2 0.38265043E+00 0.36049676E+04</pdfrwt>
<pdfrwt beam="2">  1       -2 0.20096194E+00 0.36049676E+04</pdfrwt>
<totfact> 0.37811414E-01</totfact>
</mgrwt>
</event>
<event>
 6    1  0.2436515E-005  0.2894422E+04  0.7818608E-02  0.8274539E-01
         -2   -1    0    0    0  501 -0.00000000000E+00  0.00000000000E+00  0.14647042801E+04  0.14647042801E+04  0.00000000000E+00 0. -1.
          2   -1    0    0  501    0  0.00000000000E+00 -0.00000000000E+00 -0.14299268007E+04  0.14299268007E+04  0.00000000000E+00 0.  1.
         23    2    1    2    0    0 -0.13973788573E+04  0.32851346161E+03 -0.15565638380E+03  0.14465793478E+04  0.88171051479E+02 0.  0.
         13    1    3    3    0    0 -0.56121911600E+03  0.87870952041E+02 -0.65660839074E+02  0.57183874140E+03  0.00000000000E+00 0. -1.
        -13    1    3    3    0    0 -0.83615974129E+03  0.24064250957E+03 -0.89995544723E+02  0.87474060637E+03  0.00000000000E+00 0.  1.
         22    1    1    2    0    0  0.13973788573E+04 -0.32851346161E+03  0.19043386318E+03  0.14480517330E+04  0.00000000000E+00 0. -1.
<mgrwt>
<rscale>  0 0.28944222E+04</rscale>
<asrwt>0</asrwt>
<pdfrwt beam="1">  1        2 0.21998874E+00 0.28944222E+04</pdfrwt>
<pdfrwt beam="2">  1       -2 0.22533912E+00 0.28944222E+04</pdfrwt>
<totfact> 0.10986052E+00</totfact>
</mgrwt>
</event>
<event>
 6    1  0.2436515E-005  0.3235639E+04  0.7818608E-02  0.8179468E-01
          2   -1    0    0  501    0  0.00000000000E+00  0.00000000000E+00  0.17796331229E+04  0.17796331229E+04  0.00000000000E+00 0.  1.
         -2   -1    0    0    0  501 -0.00000000000E+00 -0.00000000000E+00 -0.14707186970E+04  0.14707186970E+04  0.00000000000E+00 0. -1.
         23    2    1    2    0    0  0.14132108942E+04  0.14687505656E+03  0.92909439426E+03  0.17000742620E+04  0.91097690028E+02 0.  0.
         13    1    3    3    0    0  0.50401978486E+03  0.95529741748E+02  0.34483277558E+03  0.61811933978E+03  0.00000000000E+00 0.  1.
        -13    1    3    3    0    0  0.90919110932E+03  0.51345314816E+02  0.58426161867E+03  0.10819549222E+04  0.00000000000E+00 0. -1.
         22    1    1    2    0    0 -0.14132108942E+04 -0.14687505656E+03 -0.62017996831E+03  0.15502775580E+04  0.00000000000E+00 0. -1.
<mgrwt>
<rscale>  0 0.32356389E+04</rscale>
<asrwt>0</asrwt>
<pdfrwt beam="1">  1        2 0.27378971E+00 0.32356389E+04</pdfrwt>
<pdfrwt beam="2">  1       -2 0.22626442E+00 0.32356389E+04</pdfrwt>
<totfact> 0.67103868E-01</totfact>
</mgrwt>
</event>
<event>
 6    1  0.3717445E-005  0.4758902E+04  0.7818608E-02  0.7866815E-01
         -2   -1    0    0    0  501 -0.00000000000E+00  0.00000000000E+00  0.18135133742E+04  0.18135133742E+04  0.00000000000E+00 0. -1.
          2   -1    0    0  501    0  0.00000000000E+00 -0.00000000000E+00 -0.31219984781E+04  0.31219984781E+04  0.00000000000E+00 0.  1.
         23    2    1    2    0    0  0.29362138884E+03  0.22354471405E+04 -0.14403701981E+04  0.26770098895E+04  0.90984630672E+02 0.  0.
         13    1    3    3    0    0  0.11688039547E+03  0.11019871853E+04 -0.66487859737E+03  0.12923236176E+04  0.00000000000E+00 0. -1.
        -13    1    3    3    0    0  0.17674099336E+03  0.11334599552E+04 -0.77549160070E+03  0.13846862719E+04  0.00000000000E+00 0.  1.
         22    1    1    2    0    0 -0.29362138884E+03 -0.22354471405E+04  0.13188509424E+03  0.22585019628E+04  0.00000000000E+00 0.  1.
<mgrwt>
<rscale>  0 0.47589016E+04</rscale>
<asrwt>0</asrwt>
<pdfrwt beam="1">  1        2 0.48030745E+00 0.47589016E+04</pdfrwt>
<pdfrwt beam="2">  1       -2 0.27900206E+00 0.47589016E+04</pdfrwt>
<totfact> 0.46132144E-02</totfact>
</mgrwt>
</event>
<event>
 6    1  0.2436515E-005  0.2389358E+04  0.7818608E-02  0.8443499E-01
         -2   -1    0    0    0  501 -0.00000000000E+00  0.00000000000E+00  0.10534941283E+04  0.10534941283E+04  0.00000000000E+00 0. -1.
          2   -1    0    0  501    0  0.00000000000E+00 -0.00000000000E+00 -0.13547843991E+04  0.13547843991E+04  0.00000000000E+00 0.  1.
         23    2    1    2    0    0 -0.10011077550E+04 -0.60184122381E+03 -0.39482995680E+03  0.12364512071E+04  0.92148233453E+02 0.  0.
         13    1    3    3    0    0 -0.80477344696E+03 -0.51984423274E+03 -0.30442876647E+03  0.10052736946E+04  0.00000000000E+00 0. -1.
        -13    1    3    3    0    0 -0.19633430800E+03 -0.81996991064E+02 -0.90401190328E+02  0.23117751243E+03  0.00000000000E+00 0.  1.
         22    1    1    2    0    0  0.10011077550E+04  0.60184122381E+03  0.93539686020E+02  0.11718273203E+04  0.00000000000E+00 0.  1.
<mgrwt>
<rscale>  0 0.23893576E+04</rscale>
<asrwt>0</asrwt>
<pdfrwt beam="1">  1        2 0.20842837E+00 0.23893576E+04</pdfrwt>
<pdfrwt beam="2">  1       -2 0.16207602E+00 0.23893576E+04</pdfrwt>
<totfact> 0.33629514E+00</totfact>
</mgrwt>
</event>
<event>
 6    1  0.2436515E-005  0.2785140E+04  0.7818608E-02  0.8307897E-01
         -2   -1    0    0    0  501 -0.00000000000E+00  0.00000000000E+00  0.14883090640E+04  0.14883090640E+04  0.00000000000E+00 0. -1.
          2   -1    0    0  501    0  0.00000000000E+00 -0.00000000000E+00 -0.13029893932E+04  0.13029893932E+04  0.00000000000E+00 0.  1.
         23    2    1    2    0    0  0.65242396511E+03  0.53271996392E+03  0.12022505266E+04  0.14708455213E+04  0.92372229385E+02 0.  0.
         13    1    3    3    0    0  0.50128815068E+03  0.42992378407E+03  0.99840590727E+03  0.11970541449E+04  0.00000000000E+00 0. -1.
        -13    1    3    3    0    0  0.15113581443E+03  0.10279617985E+03  0.20384461930E+03  0.27379137644E+03  0.00000000000E+00 0.  1.
         22    1    1    2    0    0 -0.65242396511E+03 -0.53271996392E+03 -0.10169308558E+04  0.13204529358E+04  0.00000000000E+00 0.  1.
<mgrwt>
<rscale>  0 0.27851398E+04</rscale>
<asrwt>0</asrwt>
<pdfrwt beam="1">  1        2 0.20045991E+00 0.27851398E+04</pdfrwt>
<pdfrwt beam="2">  1       -2 0.22897063E+00 0.27851398E+04</pdfrwt>
<totfact> 0.12448285E+00</totfact>
</mgrwt>
</event>
<event>
 6    1  0.2436515E-005  0.3194324E+04  0.7818608E-02  0.8190318E-01
         -2   -1    0    0    0  501 -0.00000000000E+00  0.00000000000E+00  0.93072271614E+03  0.93072271614E+03  0.00000000000E+00 0. -1.
          2   -1    0    0  501    0  0.00000000000E+00 -0.00000000000E+00 -0.27408017371E+04  0.27408017371E+04  0.00000000000E+00 0.  1.
         23    2    1    2    0    0  0.50422109304E+03 -0.84931378893E+03 -0.23466503266E+04  0.25474774840E+04  0.85445616928E+02 0.  0.
         11    1    3    3    0    0  0.24121194969E+03 -0.45499218861E+03 -0.11325490093E+04  0.12441335760E+04  0.00000000000E+00 0. -1.
        -11    1    3    3    0    0  0.26300914335E+03 -0.39432160032E+03 -0.12141013173E+04  0.13033439081E+04  0.00000000000E+00 0.  1.
         22    1    1    2    0    0 -0.50422109304E+03  0.84931378893E+03  0.53657130573E+03  0.11240469692E+04  0.00000000000E+00 0. -1.
<mgrwt>
<rscale>  0 0.31943240E+04</rscale>
<asrwt>0</asrwt>
<pdfrwt beam="1">  1        2 0.42166180E+00 0.31943240E+04</pdfrwt>
<pdfrwt beam="2">  1       -2 0.14318811E+00 0.31943240E+04</pdfrwt>
<totfact> 0.71594601E-01</totfact>
</mgrwt>
</event>
<event>
 6    1  0.2436515E-005  0.1847113E+04  0.7818608E-02  0.8681639E-01
         -2   -1    0    0    0  501 -0.00000000000E+00  0.00000000000E+00  0.93407443610E+03  0.93407443610E+03  0.00000000000E+00 0. -1.
          2   -1    0    0  501    0  0.00000000000E+00 -0.00000000000E+00 -0.91315655541E+03  0.91315655541E+03  0.00000000000E+00 0.  1.
         23    2    1    2    0    0  0.15528170678E+03  0.72746375799E+03  0.55351392265E+03  0.93236790254E+03  0.98062813863E+02 0.  0.
         11    1    3    3    0    0  0.66854845574E+02  0.41097908062E+03  0.25396785295E+03  0.48772230359E+03  0.00000000000E+00 0. -1.
        -11    1    3    3    0    0  0.88426861204E+02  0.31648467737E+03  0.29954606970E+03  0.44464559895E+03  0.00000000000E+00 0.  1.
         22    1    1    2    0    0 -0.15528170678E+03 -0.72746375799E+03 -0.53259604196E+03  0.91486308897E+03  0.00000000000E+00 0.  1.
<mgrwt>
<rscale>  0 0.18471126E+04</rscale>
<asrwt>0</asrwt>
<pdfrwt beam="1">  1        2 0.14048562E+00 0.18471126E+04</pdfrwt>
<pdfrwt beam="2">  1       -2 0.14370376E+00 0.18471126E+04</pdfrwt>
<totfact> 0.90631087E+00</totfact>
</mgrwt>
</event>
<event>
 6    1  0.2436515E-005  0.2029132E+04  0.7818608E-02  0.8593120E-01
         -2   -1    0    0    0  501 -0.00000000000E+00  0.00000000000E+00  0.88899871925E+03  0.88899871925E+03  0.00000000000E+00 0. -1.
          2   -1    0    0  501    0  0.00000000000E+00 -0.00000000000E+00 -0.11578688899E+04  0.11578688899E+04  0.00000000000E+00 0.  1.
         23    2    1    2    0    0 -0.92631480451E+03 -0.33450068920E+03 -0.37184539134E+03  0.10566384820E+04  0.90917866388E+02 0.  0.
         13    1    3    3    0    0 -0.35211200092E+03 -0.10519013951E+03 -0.97461285583E+02  0.38019275221E+03  0.00000000000E+00 0.  1.
        -13    1    3    3    0    0 -0.57420280359E+03 -0.22931054969E+03 -0.27438410576E+03  0.67644572978E+03  0.00000000000E+00 0. -1.
         22    1    1    2    0    0  0.92631480451E+03  0.33450068920E+03  0.10297522072E+03  0.99022912713E+03  0.00000000000E+00 0.  1.
<mgrwt>
<rscale>  0 0.20291318E+04</rscale>
<asrwt>0</asrwt>
<pdfrwt beam="1">  1        2 0.17813368E+00 0.20291318E+04</pdfrwt>
<pdfrwt beam="2">  1       -2 0.13676903E+00 0.20291318E+04</pdfrwt>
<totfact> 0.71024399E+00</totfact>
</mgrwt>
</event>
<event>
 6    1  0.2436515E-005  0.4562628E+04  0.7818608E-02  0.7899763E-01
          2   -1    0    0  501    0  0.00000000000E+00  0.00000000000E+00  0.27396029524E+04  0.27396029524E+04  0.00000000000E+00 0.  1.
         -2   -1    0    0    0  501 -0.00000000000E+00 -0.00000000000E+00 -0.18996887269E+04  0.18996887269E+04  0.00000000000E+00 0. -1.
         23    2    1    2    0    0  0.10389801692E+04 -0.19763567901E+04  0.89123436249E+03  0.24058862727E+04  0.92326130998E+02 0.  0.
         11    1    3    3    0    0  0.22668587676E+03 -0.38883274981E+03  0.14617220214E+03  0.47322690829E+03  0.00000000000E+00 0. -1.
        -11    1    3    3    0    0  0.81229429244E+03 -0.15875240403E+04  0.74506216035E+03  0.19326593644E+04  0.00000000000E+00 0.  1.
         22    1    1    2    0    0 -0.10389801692E+04  0.19763567901E+04 -0.51320136951E+02  0.22334054066E+04  0.00000000000E+00 0. -1.
<mgrwt>
<rscale>  0 0.45626277E+04</rscale>
<asrwt>0</asrwt>
<pdfrwt beam="1">  1        2 0.42147738E+00 0.45626277E+04</pdfrwt>
<pdfrwt beam="2">  1       -2 0.29225980E+00 0.45626277E+04</pdfrwt>
<totfact> 0.67182991E-02</totfact>
</mgrwt>
</event>
<event>
 6    1  0.2436515E-005  0.2788573E+04  0.7818608E-02  0.8306825E-01
          2   -1    0    0  501    0  0.00000000000E+00  0.00000000000E+00  0.19230973090E+04  0.19230973090E+04  0.00000000000E+00 0.  1.
         -2   -1    0    0    0  501 -0.00000000000E+00 -0.00000000000E+00 -0.10108873726E+04  0.10108873726E+04  0.00000000000E+00 0. -1.
         23    2    1    2    0    0 -0.93641432213E+03  0.55092784586E+03 -0.46081786194E+03  0.11830995886E+04  0.83535984177E+02 0.  0.
         13    1    3    3    0    0 -0.54626145206E+03  0.36840897195E+03 -0.28408435176E+03  0.71751701272E+03  0.00000000000E+00 0. -1.
        -13    1    3    3    0    0 -0.39015287006E+03  0.18251887391E+03 -0.17673351018E+03  0.46558257589E+03  0.00000000000E+00 0.  1.
         22    1    1    2    0    0  0.93641432213E+03 -0.55092784586E+03  0.13730277983E+04  0.17508850930E+04  0.00000000000E+00 0.  1.
<mgrwt>
<rscale>  0 0.27885730E+04</rscale>
<asrwt>0</asrwt>
<pdfrwt beam="1">  1        2 0.29586112E+00 0.27885730E+04</pdfrwt>
<pdfrwt beam="2">  1       -2 0.15552113E+00 0.27885730E+04</pdfrwt>
<totfact> 0.17470917E+00</totfact>
</mgrwt>
</event>
<event>
 6    1  0.2436515E-005  0.3470843E+04  0.7818608E-02  0.8120735E-01
         -2   -1    0    0    0  501 -0.00000000000E+00  0.00000000000E+00  0.14428430527E+04  0.14428430527E+04  0.00000000000E+00 0. -1.
          2   -1    0    0  501    0  0.00000000000E+00 -0.00000000000E+00 -0.20873285790E+04  0.20873285790E+04  0.00000000000E+00 0.  1.
         23    2    1    2    0    0 -0.13332001746E+04 -0.37223573517E+03  0.74015295208E+03  0.15723141640E+04  0.91451023575E+02 0.  0.
         13    1    3    3    0    0 -0.70681435716E+03 -0.24466123762E+03  0.40025869527E+03  0.84832345236E+03  0.00000000000E+00 0.  1.
        -13    1    3    3    0    0 -0.62638581741E+03 -0.12757449755E+03  0.33989425681E+03  0.72399071161E+03  0.00000000000E+00 0. -1.
         22    1    1    2    0    0  0.13332001746E+04  0.37223573517E+03 -0.13846384784E+04  0.19578574677E+04  0.00000000000E+00 0.  1.
<mgrwt>
<rscale>  0 0.34708429E+04</rscale>
<asrwt>0</asrwt>
<pdfrwt beam="1">  1        2 0.32112747E+00 0.34708429E+04</pdfrwt>
<pdfrwt beam="2">  1       -2 0.22197586E+00 0.34708429E+04</pdfrwt>
<totfact> 0.47242951E-01</totfact>
</mgrwt>
</event>
<event>
 6    1  0.2436515E-005  0.2325012E+04  0.7818608E-02  0.8468124E-01
          2   -1    0    0  501    0  0.00000000000E+00  0.00000000000E+00  0.13100435669E+04  0.13100435669E+04  0.00000000000E+00 0.  1.
         -2   -1    0    0    0  501 -0.00000000000E+00 -0.00000000000E+00 -0.10315837771E+04  0.10315837771E+04  0.00000000000E+00 0. -1.
         23    2    1    2    0    0  0.75282791192E+03  0.53374108017E+03  0.84847562361E+03  0.12569396210E+04  0.91416198958E+02 0.  0.
         13    1    3    3    0    0  0.32521436571E+03  0.28575210808E+03  0.40607529195E+03  0.59356195437E+03  0.00000000000E+00 0. -1.
        -13    1    3    3    0    0  0.42761354621E+03  0.24798897209E+03  0.44240033165E+03  0.66337766666E+03  0.00000000000E+00 0.  1.
         22    1    1    2    0    0 -0.75282791192E+03 -0.53374108017E+03 -0.57001583383E+03  0.10846877230E+04  0.00000000000E+00 0. -1.
<mgrwt>
<rscale>  0 0.23250116E+04</rscale>
<asrwt>0</asrwt>
<pdfrwt beam="1">  1        2 0.20154516E+00 0.23250116E+04</pdfrwt>
<pdfrwt beam="2">  1       -2 0.15870520E+00 0.23250116E+04</pdfrwt>
<totfact> 0.38006389E+00</totfact>
</mgrwt>
</event>
<event>
 6    1  0.2436515E-005  0.1399938E+04  0.7818608E-02  0.8953864E-01
          2   -1    0    0  501    0  0.00000000000E+00  0.00000000000E+00  0.10822298971E+04  0.10822298971E+04  0.00000000000E+00 0.  1.
         -2   -1    0    0    0  501 -0.00000000000E+00 -0.00000000000E+00 -0.45272864576E+03  0.45272864576E+03  0.00000000000E+00 0. -1.
         23    2    1    2    0    0  0.29452518964E+03  0.19204295559E+03  0.97538726250E+03  0.10417418392E+04  0.10109482460E+03 0.  0.
         11    1    3    3    0    0  0.15708663087E+03  0.54882999018E+02  0.36328204927E+03  0.39957752753E+03  0.00000000000E+00 0. -1.
        -11    1    3    3    0    0  0.13743855877E+03  0.13715995657E+03  0.61210521323E+03  0.64216431167E+03  0.00000000000E+00 0.  1.
         22    1    1    2    0    0 -0.29452518964E+03 -0.19204295559E+03 -0.34588601113E+03  0.49321670371E+03  0.00000000000E+00 0. -1.
<mgrwt>
<rscale>  0 0.13999378E+04</rscale>
<asrwt>0</asrwt>
<pdfrwt beam="1">  1        2 0.16649691E+00 0.13999378E+04</pdfrwt>
<pdfrwt beam="2">  1       -2 0.69650561E-01 0.13999378E+04</pdfrwt>
<totfact> 0.40882168E+01</totfact>
</mgrwt>
</event>
<event>
 6    1  0.2436515E-005  0.2738304E+04  0.7818608E-02  0.8322682E-01
         -2   -1    0    0    0  501 -0.00000000000E+00  0.00000000000E+00  0.13335337263E+04  0.13335337263E+04  0.00000000000E+00 0. -1.
          2   -1    0    0  501    0  0.00000000000E+00 -0.00000000000E+00 -0.14057221372E+04  0.14057221372E+04  0.00000000000E+00 0.  1.
         23    2    1    2    0    0 -0.69130957705E+03  0.28047888831E+03 -0.11828019527E+04  0.14013321820E+04  0.90189173120E+02 0.  0.
         13    1    3    3    0    0 -0.43711278008E+03  0.17426752737E+03 -0.66278528193E+03  0.81284751556E+03  0.00000000000E+00 0.  1.
        -13    1    3    3    0    0 -0.25419679696E+03  0.10621136095E+03 -0.52001667079E+03  0.58848466648E+03  0.00000000000E+00 0. -1.
         22    1    1    2    0    0  0.69130957705E+03 -0.28047888831E+03  0.11106135419E+04  0.13379236815E+04  0.00000000000E+00 0. -1.
<mgrwt>
<rscale>  0 0.27383045E+04</rscale>
<asrwt>0</asrwt>
<pdfrwt beam="1">  1        2 0.21626494E+00 0.27383045E+04</pdfrwt>
<pdfrwt beam="2">  1       -2 0.20515903E+00 0.27383045E+04</pdfrwt>
<totfact> 0.15458662E+00</totfact>
</mgrwt>
</event>
<event>
 6    1  0.2436515E-005  0.3641110E+04  0.7818608E-02  0.8081139E-01
          2   -1    0    0  501    0  0.00000000000E+00  0.00000000000E+00  0.41434508304E+04  0.41434508304E+04  0.00000000000E+00 0.  1.
         -2   -1    0    0    0  501 -0.00000000000E+00 -0.00000000000E+00 -0.79991796940E+03  0.79991796940E+03  0.00000000000E+00 0. -1.
         23    2    1    2    0    0 -0.70643171641E+03  0.12833183495E+04  0.31372985621E+04  0.34640161231E+04  0.10398883411E+03 0.  0.
         13    1    3    3    0    0 -0.39020202965E+03  0.78035649595E+03  0.19543586536E+04  0.21402643836E+04  0.00000000000E+00 0.  1.
        -13    1    3    3    0    0 -0.31622968675E+03  0.50296185351E+03  0.11829399085E+04  0.13237517396E+04  0.00000000000E+00 0. -1.
         22    1    1    2    0    0  0.70643171641E+03 -0.12833183495E+04  0.20623429893E+03  0.14793526767E+04  0.00000000000E+00 0. -1.
<mgrwt>
<rscale>  0 0.36411101E+04</rscale>
<asrwt>0</asrwt>
<pdfrwt beam="1">  1        2 0.63745396E+00 0.36411101E+04</pdfrwt>
<pdfrwt beam="2">  1       -2 0.12306431E+00 0.36411101E+04</pdfrwt>
<totfact> 0.10495726E-01</totfact>
</mgrwt>
</event>
<event>
 6    1  0.2436515E-005  0.1168770E+04  0.7818608E-02  0.9140640E-01
          2   -1    0    0  501    0  0.00000000000E+00  0.00000000000E+00  0.35610796384E+03  0.35610796384E+03  0.00000000000E+00 0.  1.
         -2   -1    0    0    0  501 -0.00000000000E+00 -0.00000000000E+00 -0.95899573395E+03  0.95899573395E+03  0.00000000000E+00 0. -1.
         23    2    1    2    0    0 -0.30427491087E+03  0.42330171908E+03 -0.59139400021E+03  0.79366369788E+03  0.91584032876E+02 0.  0.
         11    1    3    3    0    0 -0.17443177753E+03  0.29074701790E+03 -0.33027262580E+03  0.47332893508E+03  0.00000000000E+00 0. -1.
        -11    1    3    3    0    0 -0.12984313335E+03  0.13255470117E+03 -0.26112137441E+03  0.32033476280E+03  0.00000000000E+00 0.  1.
         22    1    1    2    0    0  0.30427491087E+03 -0.42330171908E+03 -0.11493769895E+02  0.52143999991E+03  0.00000000000E+00 0.  1.
<mgrwt>
<rscale>  0 0.11687703E+04</rscale>
<asrwt>0</asrwt>
<pdfrwt beam="1">  1        2 0.54785841E-01 0.11687703E+04</pdfrwt>
<pdfrwt beam="2">  1       -2 0.14753780E+00 0.11687703E+04</pdfrwt>
<totfact> 0.28022093E+01</totfact>
</mgrwt>
</event>
<event>
 6    1  0.2436515E-005  0.1374447E+04  0.7818608E-02  0.8972526E-01
          2   -1    0    0  501    0  0.00000000000E+00  0.00000000000E+00  0.86661575709E+03  0.86661575709E+03  0.00000000000E+00 0.  1.
         -2   -1    0    0    0  501 -0.00000000000E+00 -0.00000000000E+00 -0.54496576074E+03  0.54496576074E+03  0.00000000000E+00 0. -1.
         23    2    1    2    0    0 -0.20932492413E+03 -0.64216967559E+03  0.49945843465E+02  0.68355544494E+03  0.92491312656E+02 0.  0.
         11    1    3    3    0    0 -0.75798636437E+02 -0.31273905751E+03 -0.15287209980E+02  0.32215656158E+03  0.00000000000E+00 0.  1.
        -11    1    3    3    0    0 -0.13352628770E+03 -0.32943061808E+03  0.65233053445E+02  0.36139888337E+03  0.00000000000E+00 0. -1.
         22    1    1    2    0    0  0.20932492413E+03  0.64216967559E+03  0.27170415288E+03  0.72802607289E+03  0.00000000000E+00 0.  1.
<mgrwt>
<rscale>  0 0.13744467E+04</rscale>
<asrwt>0</asrwt>
<pdfrwt beam="1">  1        2 0.13332550E+00 0.13744467E+04</pdfrwt>
<pdfrwt beam="2">  1       -2 0.83840886E-01 0.13744467E+04</pdfrwt>
<totfact> 0.37476338E+01</totfact>
</mgrwt>
</event>
<event>
 6    1  0.2436515E-005  0.1580146E+04  0.7818608E-02  0.8832839E-01
          2   -1    0    0  501    0  0.00000000000E+00  0.00000000000E+00  0.94492272213E+03  0.94492272213E+03  0.00000000000E+00 0.  1.
         -2   -1    0    0    0  501 -0.00000000000E+00 -0.00000000000E+00 -0.66059931383E+03  0.66059931383E+03  0.00000000000E+00 0. -1.
         23    2    1    2    0    0  0.78683854703E+03  0.20066434438E+01  0.11440028614E+03  0.80054204046E+03  0.93065607896E+02 0.  0.
         11    1    3    3    0    0  0.65320294457E+03  0.24740162766E+02  0.67700264346E+02  0.65716777785E+03  0.00000000000E+00 0. -1.
        -11    1    3    3    0    0  0.13363560245E+03 -0.22733519322E+02  0.46700021792E+02  0.14337426261E+03  0.00000000000E+00 0.  1.
         22    1    1    2    0    0 -0.78683854703E+03 -0.20066434438E+01  0.16992312216E+03  0.80497999550E+03  0.00000000000E+00 0.  1.
<mgrwt>
<rscale>  0 0.15801459E+04</rscale>
<asrwt>0</asrwt>
<pdfrwt beam="1">  1        2 0.14537273E+00 0.15801459E+04</pdfrwt>
<pdfrwt beam="2">  1       -2 0.10163066E+00 0.15801459E+04</pdfrwt>
<totfact> 0.20888291E+01</totfact>
</mgrwt>
</event>
<event>
 6    1  0.2436515E-005  0.2493788E+04  0.7818608E-02  0.8405202E-01
          2   -1    0    0  501    0  0.00000000000E+00  0.00000000000E+00  0.60737294745E+03  0.60737294745E+03  0.00000000000E+00 0.  1.
         -2   -1    0    0    0  501 -0.00000000000E+00 -0.00000000000E+00 -0.25597857698E+04  0.25597857698E+04  0.00000000000E+00 0. -1.
         23    2    1    2    0    0 -0.41327173183E+03 -0.11742042105E+04 -0.10171094192E+04  0.16101290103E+04  0.91950023872E+02 0.  0.
         13    1    3    3    0    0 -0.19048159074E+03 -0.67244468775E+03 -0.55208994430E+03  0.89065616323E+03  0.00000000000E+00 0. -1.
        -13    1    3    3    0    0 -0.22279014109E+03 -0.50175952276E+03 -0.46501947495E+03  0.71947284711E+03  0.00000000000E+00 0.  1.
         22    1    1    2    0    0  0.41327173183E+03  0.11742042105E+04 -0.93530340309E+03  0.15570297069E+04  0.00000000000E+00 0.  1.
<mgrwt>
<rscale>  0 0.24937880E+04</rscale>
<asrwt>0</asrwt>
<pdfrwt beam="1">  1        2 0.93441993E-01 0.24937880E+04</pdfrwt>
<pdfrwt beam="2">  1       -2 0.39381319E+00 0.24937880E+04</pdfrwt>
<totfact> 0.35535526E-01</totfact>
</mgrwt>
</event>
<event>
 6    1  0.2436515E-005  0.5688842E+03  0.7818608E-02  0.9972151E-01
         -2   -1    0    0    0  501 -0.00000000000E+00  0.00000000000E+00  0.16287466724E+03  0.16287466724E+03  0.00000000000E+00 0. -1.
          2   -1    0    0  501    0  0.00000000000E+00 -0.00000000000E+00 -0.49674588308E+03  0.49674588308E+03  0.00000000000E+00 0.  1.
         23    2    1    2    0    0 -0.37136888207E+02 -0.18955552523E+03 -0.40169314102E+03  0.45490059734E+03  0.90921550262E+02 0.  0.
         11    1    3    3    0    0 -0.36693729209E+02 -0.76306806602E+02 -0.91425054721E+02  0.12461018870E+03  0.00000000000E+00 0.  1.
        -11    1    3    3    0    0 -0.44315899871E+00 -0.11324871863E+03 -0.31026808630E+03  0.33029040864E+03  0.00000000000E+00 0. -1.
         22    1    1    2    0    0  0.37136888207E+02  0.18955552523E+03  0.67821925178E+02  0.20471995298E+03  0.00000000000E+00 0. -1.
<mgrwt>
<rscale>  0 0.56888424E+03</rscale>
<asrwt>0</asrwt>
<pdfrwt beam="1">  1        2 0.76422443E-01 0.56888424E+03</pdfrwt>
<pdfrwt beam="2">  1       -2 0.25057641E-01 0.56888424E+03</pdfrwt>
<totfact> 0.88909105E+02</totfact>
</mgrwt>
</event>
<event>
 6    1  0.2436515E-005  0.1171543E+04  0.7818608E-02  0.9138136E-01
         -2   -1    0    0    0  501 -0.00000000000E+00  0.00000000000E+00  0.10307836591E+03  0.10307836591E+03  0.00000000000E+00 0. -1.
          2   -1    0    0  501    0  0.00000000000E+00 -0.00000000000E+00 -0.33288108770E+04  0.33288108770E+04  0.00000000000E+00 0.  1.
         23    2    1    2    0    0  0.93521129948E+02 -0.40962106302E+03 -0.28031519250E+04  0.28359782020E+04  0.92606858144E+02 0.  0.
         13    1    3    3    0    0  0.75458740839E+02 -0.17079756839E+03 -0.14230820550E+04  0.14352798912E+04  0.00000000000E+00 0. -1.
        -13    1    3    3    0    0  0.18062389108E+02 -0.23882349463E+03 -0.13800698701E+04  0.14006983108E+04  0.00000000000E+00 0.  1.
         22    1    1    2    0    0 -0.93521129948E+02  0.40962106302E+03 -0.42258058605E+03  0.59591104095E+03  0.00000000000E+00 0. -1.
<mgrwt>
<rscale>  0 0.11715432E+04</rscale>
<asrwt>0</asrwt>
<pdfrwt beam="1">  1        2 0.51212472E+00 0.11715432E+04</pdfrwt>
<pdfrwt beam="2">  1       -2 0.15858211E-01 0.11715432E+04</pdfrwt>
<totfact> 0.34428531E+01</totfact>
</mgrwt>
</event>
<event>
 6    1  0.2436515E-005  0.1530352E+04  0.7818608E-02  0.8864517E-01
          2   -1    0    0  501    0  0.00000000000E+00  0.00000000000E+00  0.15750051977E+04  0.15750051977E+04  0.00000000000E+00 0.  1.
         -2   -1    0    0    0  501 -0.00000000000E+00 -0.00000000000E+00 -0.37174097556E+03  0.37174097556E+03  0.00000000000E+00 0. -1.
         23    2    1    2    0    0 -0.62402722499E+03 -0.35145263961E+02  0.11592838166E+04  0.13201845696E+04  0.91121694703E+02 0.  0.
         11    1    3    3    0    0 -0.27532760454E+03  0.28511534314E+02  0.48626014983E+03  0.55952402158E+03  0.00000000000E+00 0.  1.
        -11    1    3    3    0    0 -0.34869962045E+03 -0.63656798275E+02  0.67302366679E+03  0.76066054803E+03  0.00000000000E+00 0. -1.
         22    1    1    2    0    0  0.62402722499E+03  0.35145263961E+02  0.43980405526E+02  0.62656160366E+03  0.00000000000E+00 0.  1.
<mgrwt>
<rscale>  0 0.15303516E+04</rscale>
<asrwt>0</asrwt>
<pdfrwt beam="1">  1        2 0.24230849E+00 0.15303516E+04</pdfrwt>
<pdfrwt beam="2">  1       -2 0.57190920E-01 0.15303516E+04</pdfrwt>
<totfact> 0.31807746E+01</totfact>
</mgrwt>
</event>
<event>
 6    1  0.2436515E-005  0.2428317E+04  0.7818608E-02  0.8428977E-01
          2   -1    0    0  501    0  0.00000000000E+00  0.00000000000E+00  0.12975351378E+04  0.12975351378E+04  0.00000000000E+00 0.  1.
         -2   -1    0    0    0  501 -0.00000000000E+00 -0.00000000000E+00 -0.11361399126E+04  0.11361399126E+04  0.00000000000E+00 0. -1.
         23    2    1    2    0    0  0.85933919238E+03 -0.74179621821E+03  0.50747197898E+03  0.12468749003E+04  0.91889774597E+02 0.  0.
         13    1    3    3    0    0  0.42093319448E+03 -0.33856990431E+03  0.19556892181E+03  0.57450982367E+03  0.00000000000E+00 0. -1.
        -13    1    3    3    0    0  0.43840599790E+03 -0.40322631390E+03  0.31190305716E+03  0.67236507664E+03  0.00000000000E+00 0.  1.
         22    1    1    2    0    0 -0.85933919238E+03  0.74179621821E+03 -0.34607675379E+03  0.11868001502E+04  0.00000000000E+00 0. -1.
<mgrwt>
<rscale>  0 0.24283175E+04</rscale>
<asrwt>0</asrwt>
<pdfrwt beam="1">  1        2 0.19962079E+00 0.24283175E+04</pdfrwt>
<pdfrwt beam="2">  1       -2 0.17479076E+00 0.24283175E+04</pdfrwt>
<totfact> 0.29338079E+00</totfact>
</mgrwt>
</event>
<event>
 6    1  0.2436515E-005  0.1484713E+04  0.7818608E-02  0.8894683E-01
          2   -1    0    0  501    0  0.00000000000E+00  0.00000000000E+00  0.15311487273E+04  0.15311487273E+04  0.00000000000E+00 0.  1.
         -2   -1    0    0    0  501 -0.00000000000E+00 -0.00000000000E+00 -0.35992149743E+03  0.35992149743E+03  0.00000000000E+00 0. -1.
         23    2    1    2    0    0  0.47537913079E+03 -0.31938381071E+03  0.11837922979E+04  0.13182271245E+04  0.91472458010E+02 0.  0.
         13    1    3    3    0    0  0.80733824316E+02 -0.65578584696E+02  0.14568790323E+03  0.17900688899E+03  0.00000000000E+00 0. -1.
        -13    1    3    3    0    0  0.39464530647E+03 -0.25380522601E+03  0.10381043947E+04  0.11392202355E+04  0.00000000000E+00 0.  1.
         22    1    1    2    0    0 -0.47537913079E+03  0.31938381071E+03 -0.12565068071E+02  0.57284310022E+03  0.00000000000E+00 0.  1.
<mgrwt>
<rscale>  0 0.14847132E+04</rscale>
<asrwt>0</asrwt>
<pdfrwt beam="1">  1        2 0.23556134E+00 0.14847132E+04</pdfrwt>
<pdfrwt beam="2">  1       -2 0.55372539E-01 0.14847132E+04</pdfrwt>
<totfact> 0.36142000E+01</totfact>
</mgrwt>
</event>
<event>
 6    1  0.2874035E-005  0.3744885E+04  0.7818608E-02  0.8058087E-01
          2   -1    0    0  501    0  0.00000000000E+00  0.00000000000E+00  0.17355507379E+04  0.17355507379E+04  0.00000000000E+00 0.  1.
         -2   -1    0    0    0  501 -0.00000000000E+00 -0.00000000000E+00 -0.20201311961E+04  0.20201311961E+04  0.00000000000E+00 0. -1.
         23    2    1    2    0    0  0.11895505618E+04  0.10816506674E+04 -0.11025742540E+04  0.19517660393E+04  0.93391547785E+02 0.  0.
         13    1    3    3    0    0  0.55163748453E+03  0.56125917703E+03 -0.55729214419E+03  0.96430820390E+03  0.00000000000E+00 0. -1.
        -13    1    3    3    0    0  0.63791307725E+03  0.52039149037E+03 -0.54528210983E+03  0.98745783539E+03  0.00000000000E+00 0.  1.
         22    1    1    2    0    0 -0.11895505618E+04 -0.10816506674E+04  0.81799379584E+03  0.18039158948E+04  0.00000000000E+00 0.  1.
<mgrwt>
<rscale>  0 0.37448846E+04</rscale>
<asrwt>0</asrwt>
<pdfrwt beam="1">  1        2 0.26700781E+00 0.37448846E+04</pdfrwt>
<pdfrwt beam="2">  1       -2 0.31078941E+00 0.37448846E+04</pdfrwt>
<totfact> 0.20593182E-01</totfact>
</mgrwt>
</event>
<event>
 6    1  0.2436515E-005  0.1382612E+04  0.7818608E-02  0.8966502E-01
         -2   -1    0    0    0  501 -0.00000000000E+00  0.00000000000E+00  0.13588820842E+03  0.13588820842E+03  0.00000000000E+00 0. -1.
          2   -1    0    0  501    0  0.00000000000E+00 -0.00000000000E+00 -0.35168904306E+04  0.35168904306E+04  0.00000000000E+00 0.  1.
         23    2    1    2    0    0  0.51942386581E+03  0.42496161341E+03 -0.21021661347E+04  0.22085434560E+04  0.90378171975E+02 0.  0.
         11    1    3    3    0    0  0.33375306109E+03  0.28610995959E+03 -0.12344863299E+04  0.13104222653E+04  0.00000000000E+00 0. -1.
        -11    1    3    3    0    0  0.18567080472E+03  0.13885165382E+03 -0.86767980478E+03  0.89812119066E+03  0.00000000000E+00 0.  1.
         22    1    1    2    0    0 -0.51942386581E+03 -0.42496161341E+03 -0.12788360876E+04  0.14442351831E+04  0.00000000000E+00 0. -1.
<mgrwt>
<rscale>  0 0.13826119E+04</rscale>
<asrwt>0</asrwt>
<pdfrwt beam="1">  1        2 0.54106003E+00 0.13826119E+04</pdfrwt>
<pdfrwt beam="2">  1       -2 0.20905879E-01 0.13826119E+04</pdfrwt>
<totfact> 0.15518533E+01</totfact>
</mgrwt>
</event>
<event>
 6    1  0.2436515E-005  0.1367601E+04  0.7818608E-02  0.8977610E-01
          2   -1    0    0  501    0  0.00000000000E+00  0.00000000000E+00  0.11666779248E+04  0.11666779248E+04  0.00000000000E+00 0.  1.
         -2   -1    0    0    0  501 -0.00000000000E+00 -0.00000000000E+00 -0.40078177426E+03  0.40078177426E+03  0.00000000000E+00 0. -1.
         23    2    1    2    0    0  0.43936310724E+03  0.43249223925E+03  0.53562006187E+02  0.62538252057E+03  0.90249274319E+02 0.  0.
         11    1    3    3    0    0  0.41172492671E+03  0.42972578816E+03  0.54237622027E+02  0.59759801533E+03  0.00000000000E+00 0.  1.
        -11    1    3    3    0    0  0.27638180532E+02  0.27664510880E+01 -0.67561583982E+00  0.27784505241E+02  0.00000000000E+00 0. -1.
         22    1    1    2    0    0 -0.43936310724E+03 -0.43249223925E+03  0.71233414435E+03  0.94207717848E+03  0.00000000000E+00 0. -1.
<mgrwt>
<rscale>  0 0.13676012E+04</rscale>
<asrwt>0</asrwt>
<pdfrwt beam="1">  1        2 0.17948891E+00 0.13676012E+04</pdfrwt>
<pdfrwt beam="2">  1       -2 0.61658735E-01 0.13676012E+04</pdfrwt>
<totfact> 0.47299286E+01</totfact>
</mgrwt>
</event>
<event>
 6    1  0.2436515E-005  0.3244233E+04  0.7818608E-02  0.8177232E-01
          2   -1    0    0  501    0  0.00000000000E+00  0.00000000000E+00  0.18822473171E+04  0.18822473171E+04  0.00000000000E+00 0.  1.
         -2   -1    0    0    0  501 -0.00000000000E+00 -0.00000000000E+00 -0.13979364445E+04  0.13979364445E+04  0.00000000000E+00 0. -1.
         23    2    1    2    0    0 -0.89271328353E+03  0.54723344576E+03 -0.10085592272E+04  0.14567083476E+04  0.91684483529E+02 0.  0.
         11    1    3    3    0    0 -0.71843828136E+03  0.42188627740E+03 -0.75362312803E+03  0.11234275296E+04  0.00000000000E+00 0.  1.
        -11    1    3    3    0    0 -0.17427500217E+03  0.12534716836E+03 -0.25493609917E+03  0.33328081802E+03  0.00000000000E+00 0. -1.
         22    1    1    2    0    0  0.89271328353E+03 -0.54723344576E+03  0.14928700998E+04  0.18234754140E+04  0.00000000000E+00 0.  1.
<mgrwt>
<rscale>  0 0.32442331E+04</rscale>
<asrwt>0</asrwt>
<pdfrwt beam="1">  1        2 0.28957651E+00 0.32442331E+04</pdfrwt>
<pdfrwt beam="2">  1       -2 0.21506714E+00 0.32442331E+04</pdfrwt>
<totfact> 0.69248188E-01</totfact>
</mgrwt>
</event>
<event>
 6    1  0.2436515E-005  0.2933643E+04  0.7818608E-02  0.8262937E-01
         -2   -1    0    0    0  501 -0.00000000000E+00  0.00000000000E+00  0.10936060208E+04  0.10936060208E+04  0.00000000000E+00 0.  1.
          2   -1    0    0  501    0  0.00000000000E+00 -0.00000000000E+00 -0.19674049557E+04  0.19674049557E+04  0.00000000000E+00 0. -1.
         23    2    1    2    0    0 -0.78433194846E+03  0.90023480969E+03 -0.13238793693E+04  0.17850126555E+04  0.89522497747E+02 0.  0.
         13    1    3    3    0    0 -0.28178414424E+03  0.26545355457E+03 -0.40253394002E+03  0.55848139311E+03  0.00000000000E+00 0. -1.
        -13    1    3    3    0    0 -0.50254780422E+03  0.63478125512E+03 -0.92134542932E+03  0.12265312623E+04  0.00000000000E+00 0.  1.
         22    1    1    2    0    0  0.78433194846E+03 -0.90023480969E+03  0.45008043440E+03  0.12759983211E+04  0.00000000000E+00 0. -1.
<mgrwt>
<rscale>  0 0.29336434E+04</rscale>
<asrwt>0</asrwt>
<pdfrwt beam="1">  1        2 0.30267768E+00 0.29336434E+04</pdfrwt>
<pdfrwt beam="2">  1       -2 0.16824708E+00 0.29336434E+04</pdfrwt>
<totfact> 0.13153702E+00</totfact>
</mgrwt>
</event>
<event>
 6    1  0.2436515E-005  0.2997854E+04  0.7818608E-02  0.8244344E-01
          2   -1    0    0  501    0  0.00000000000E+00  0.00000000000E+00  0.14539074433E+04  0.14539074433E+04  0.00000000000E+00 0.  1.
         -2   -1    0    0    0  501 -0.00000000000E+00 -0.00000000000E+00 -0.15453408775E+04  0.15453408775E+04  0.00000000000E+00 0. -1.
         23    2    1    2    0    0  0.10749597534E+04  0.51396763485E+03 -0.95338143476E+03  0.15286513139E+04  0.90207972845E+02 0.  0.
         13    1    3    3    0    0  0.58328407923E+03  0.32427164978E+03 -0.50943936210E+03  0.83958375615E+03  0.00000000000E+00 0.  1.
        -13    1    3    3    0    0  0.49167567413E+03  0.18969598507E+03 -0.44394207266E+03  0.68906755776E+03  0.00000000000E+00 0. -1.
         22    1    1    2    0    0 -0.10749597534E+04 -0.51396763485E+03  0.86194800053E+03  0.14705970069E+04  0.00000000000E+00 0.  1.
<mgrwt>
<rscale>  0 0.29978543E+04</rscale>
<asrwt>0</asrwt>
<pdfrwt beam="1">  1        2 0.22367807E+00 0.29978543E+04</pdfrwt>
<pdfrwt beam="2">  1       -2 0.23774475E+00 0.29978543E+04</pdfrwt>
<totfact> 0.88299790E-01</totfact>
</mgrwt>
</event>
<event>
 6    1  0.2436515E-005  0.1795891E+04  0.7818608E-02  0.8708487E-01
          2   -1    0    0  501    0  0.00000000000E+00  0.00000000000E+00  0.97327274147E+03  0.97327274147E+03  0.00000000000E+00 0.  1.
         -2   -1    0    0    0  501 -0.00000000000E+00 -0.00000000000E+00 -0.82844858277E+03  0.82844858277E+03  0.00000000000E+00 0. -1.
         23    2    1    2    0    0  0.73064581232E+03  0.39438116807E+03 -0.26434258319E+03  0.87608790250E+03  0.90957148325E+02 0.  0.
         13    1    3    3    0    0  0.49656228261E+03  0.31494690345E+03 -0.18200574332E+03  0.61554182888E+03  0.00000000000E+00 0. -1.
        -13    1    3    3    0    0  0.23408352971E+03  0.79434264616E+02 -0.82336839872E+02  0.26054607362E+03  0.00000000000E+00 0.  1.
         22    1    1    2    0    0 -0.73064581232E+03 -0.39438116807E+03  0.40916674189E+03  0.92563342175E+03  0.00000000000E+00 0.  1.
<mgrwt>
<rscale>  0 0.17958913E+04</rscale>
<asrwt>0</asrwt>
<pdfrwt beam="1">  1        2 0.14973427E+00 0.17958913E+04</pdfrwt>
<pdfrwt beam="2">  1       -2 0.12745363E+00 0.17958913E+04</pdfrwt>
<totfact> 0.11302500E+01</totfact>
</mgrwt>
</event>
<event>
 6    1  0.2436515E-005  0.2683222E+04  0.7818608E-02  0.8340469E-01
         -1   -1    0    0    0  501 -0.00000000000E+00  0.00000000000E+00  0.80951949150E+03  0.80951949150E+03  0.00000000000E+00 0. -1.
          1   -1    0    0  501    0  0.00000000000E+00 -0.00000000000E+00 -0.22234432308E+04  0.22234432308E+04  0.00000000000E+00 0.  1.
         23    2    1    2    0    0 -0.25087990908E+03  0.62309533726E+03  0.60274056329E+03  0.90737493596E+03  0.94045519211E+02 0.  0.
         11    1    3    3    0    0 -0.52185532742E+02  0.20958070087E+03  0.23704578515E+03  0.32068380730E+03  0.00000000000E+00 0. -1.
        -11    1    3    3    0    0 -0.19869437634E+03  0.41351463640E+03  0.36569477814E+03  0.58669112867E+03  0.00000000000E+00 0.  1.
         22    1    1    2    0    0  0.25087990908E+03 -0.62309533726E+03 -0.20166643026E+04  0.21255877864E+04  0.00000000000E+00 0.  1.
<mgrwt>
<rscale>  0 0.26832224E+04</rscale>
<asrwt>0</asrwt>
<pdfrwt beam="1">  1        1 0.34206818E+00 0.26832224E+04</pdfrwt>
<pdfrwt beam="2">  1       -1 0.12454146E+00 0.26832224E+04</pdfrwt>
<totfact> 0.10366400E+00</totfact>
</mgrwt>
</event>
<event>
 6    1  0.2436515E-005  0.2596443E+04  0.7818608E-02  0.8369411E-01
          2   -1    0    0  501    0  0.00000000000E+00  0.00000000000E+00  0.16680926148E+04  0.16680926148E+04  0.00000000000E+00 0.  1.
         -2   -1    0    0    0  501 -0.00000000000E+00 -0.00000000000E+00 -0.10103627347E+04  0.10103627347E+04  0.00000000000E+00 0. -1.
         23    2    1    2    0    0 -0.31226137096E+03 -0.64954935724E+03 -0.78256525128E+03  0.10679052581E+04  0.92691620397E+02 0.  0.
         11    1    3    3    0    0 -0.88001910690E+02 -0.26067833887E+03 -0.25413221226E+03  0.37454067062E+03  0.00000000000E+00 0. -1.
        -11    1    3    3    0    0 -0.22425946027E+03 -0.38887101837E+03 -0.52843303903E+03  0.69336458749E+03  0.00000000000E+00 0.  1.
         22    1    1    2    0    0  0.31226137096E+03  0.64954935724E+03  0.14402951314E+04  0.16105500913E+04  0.00000000000E+00 0.  1.
<mgrwt>
<rscale>  0 0.25964427E+04</rscale>
<asrwt>0</asrwt>
<pdfrwt beam="1">  1        2 0.25662963E+00 0.25964427E+04</pdfrwt>
<pdfrwt beam="2">  1       -2 0.15544042E+00 0.25964427E+04</pdfrwt>
<totfact> 0.24631886E+00</totfact>
</mgrwt>
</event>
<event>
 6    1  0.2436515E-005  0.1614502E+04  0.7818608E-02  0.8811688E-01
         -2   -1    0    0    0  501 -0.00000000000E+00  0.00000000000E+00  0.17338116422E+03  0.17338116422E+03  0.00000000000E+00 0. -1.
          2   -1    0    0  501    0  0.00000000000E+00 -0.00000000000E+00 -0.37585046188E+04  0.37585046188E+04  0.00000000000E+00 0.  1.
         23    2    1    2    0    0  0.15469789629E+03 -0.71618090190E+03 -0.98832072160E+03  0.12336954715E+04  0.91543127666E+02 0.  0.
         11    1    3    3    0    0  0.13491904057E+03 -0.57368241426E+03 -0.73192847916E+03  0.93969886589E+03  0.00000000000E+00 0. -1.
        -11    1    3    3    0    0  0.19778855717E+02 -0.14249848764E+03 -0.25639224243E+03  0.29399660558E+03  0.00000000000E+00 0.  1.
         22    1    1    2    0    0 -0.15469789629E+03  0.71618090190E+03 -0.25968027330E+04  0.26981903116E+04  0.00000000000E+00 0.  1.
<mgrwt>
<rscale>  0 0.16145017E+04</rscale>
<asrwt>0</asrwt>
<pdfrwt beam="1">  1        2 0.57823147E+00 0.16145017E+04</pdfrwt>
<pdfrwt beam="2">  1       -2 0.26674026E-01 0.16145017E+04</pdfrwt>
<totfact> 0.65462105E+00</totfact>
</mgrwt>
</event>
<event>
 6    1  0.2436515E-005  0.2333350E+04  0.7818608E-02  0.8464887E-01
         -4   -1    0    0    0  501 -0.00000000000E+00  0.00000000000E+00  0.23065522365E+04  0.23065522365E+04  0.00000000000E+00 0. -1.
          4   -1    0    0  501    0  0.00000000000E+00 -0.00000000000E+00 -0.59011456661E+03  0.59011456661E+03  0.00000000000E+00 0.  1.
         23    2    1    2    0    0  0.87036548164E+03 -0.58689415855E+03  0.23229819859E+03  0.10787969521E+04  0.88654305228E+02 0.  0.
         13    1    3    3    0    0  0.73180811750E+03 -0.45318116877E+03  0.18231727383E+03  0.87986128504E+03  0.00000000000E+00 0.  1.
        -13    1    3    3    0    0  0.13855736414E+03 -0.13371298978E+03  0.49980924759E+02  0.19893566707E+03  0.00000000000E+00 0. -1.
         22    1    1    2    0    0 -0.87036548164E+03  0.58689415855E+03  0.14841394713E+04  0.18178698511E+04  0.00000000000E+00 0. -1.
<mgrwt>
<rscale>  0 0.23333496E+04</rscale>
<asrwt>0</asrwt>
<pdfrwt beam="1">  1        4 0.90786857E-01 0.23333496E+04</pdfrwt>
<pdfrwt beam="2">  1       -4 0.35485419E+00 0.23333496E+04</pdfrwt>
<totfact> 0.25836469E-02</totfact>
</mgrwt>
</event>
<event>
 6    1  0.2436515E-005  0.4233831E+04  0.7818608E-02  0.7958968E-01
         -2   -1    0    0    0  501 -0.00000000000E+00  0.00000000000E+00  0.16861221346E+04  0.16861221346E+04  0.00000000000E+00 0. -1.
          2   -1    0    0  501    0  0.00000000000E+00 -0.00000000000E+00 -0.26577742350E+04  0.26577742350E+04  0.00000000000E+00 0.  1.
         23    2    1    2    0    0  0.86803105864E+03  0.74426947461E+03 -0.23127228971E+04  0.25815440066E+04  0.90924635998E+02 0.  0.
         11    1    3    3    0    0  0.73316482800E+03  0.66522730390E+03 -0.20279131225E+04  0.22566545290E+04  0.00000000000E+00 0.  1.
        -11    1    3    3    0    0  0.13486623064E+03  0.79042170707E+02 -0.28480977460E+03  0.32488947755E+03  0.00000000000E+00 0. -1.
         22    1    1    2    0    0 -0.86803105864E+03 -0.74426947461E+03  0.13410707967E+04  0.17623523630E+04  0.00000000000E+00 0. -1.
<mgrwt>
<rscale>  0 0.42338313E+04</rscale>
<asrwt>0</asrwt>
<pdfrwt beam="1">  1        2 0.40888834E+00 0.42338313E+04</pdfrwt>
<pdfrwt beam="2">  1       -2 0.25940341E+00 0.42338313E+04</pdfrwt>
<totfact> 0.12253519E-01</totfact>
</mgrwt>
</event>
<event>
 6    1  0.2436515E-005  0.3599909E+04  0.7818608E-02  0.8090512E-01
         -2   -1    0    0    0  501 -0.00000000000E+00  0.00000000000E+00  0.15243126458E+04  0.15243126458E+04  0.00000000000E+00 0.  1.
          2   -1    0    0  501    0  0.00000000000E+00 -0.00000000000E+00 -0.21254412211E+04  0.21254412211E+04  0.00000000000E+00 0. -1.
         23    2    1    2    0    0 -0.71214999533E+03 -0.66607423112E+03 -0.18332643235E+04  0.20784579052E+04  0.91195868832E+02 0.  0.
         11    1    3    3    0    0 -0.10633324850E+03 -0.14618360180E+03 -0.31970547848E+03  0.36727101457E+03  0.00000000000E+00 0.  1.
        -11    1    3    3    0    0 -0.60581674683E+03 -0.51989062932E+03 -0.15135588450E+04  0.17111868906E+04  0.00000000000E+00 0. -1.
         22    1    1    2    0    0  0.71214999533E+03  0.66607423112E+03  0.12321357482E+04  0.15712959617E+04  0.00000000000E+00 0.  1.
<mgrwt>
<rscale>  0 0.35999094E+04</rscale>
<asrwt>0</asrwt>
<pdfrwt beam="1">  1        2 0.32699096E+00 0.35999094E+04</pdfrwt>
<pdfrwt beam="2">  1       -2 0.23450964E+00 0.35999094E+04</pdfrwt>
<totfact> 0.37138564E-01</totfact>
</mgrwt>
</event>
<event>
 6    1  0.2436515E-005  0.3795881E+04  0.7818608E-02  0.8047039E-01
         -2   -1    0    0    0  501 -0.00000000000E+00  0.00000000000E+00  0.12531370957E+04  0.12531370957E+04  0.00000000000E+00 0. -1.
          2   -1    0    0  501    0  0.00000000000E+00 -0.00000000000E+00 -0.28745288482E+04  0.28745288482E+04  0.00000000000E+00 0.  1.
         23    2    1    2    0    0  0.25161977204E+03  0.80220402145E+03  0.10380002931E+04  0.13385424518E+04  0.86066747625E+02 0.  0.
         13    1    3    3    0    0  0.98651662536E+02  0.32069495944E+03  0.48203390982E+03  0.58731090382E+03  0.00000000000E+00 0. -1.
        -13    1    3    3    0    0  0.15296810950E+03  0.48150906201E+03  0.55596638332E+03  0.75123154799E+03  0.00000000000E+00 0.  1.
         22    1    1    2    0    0 -0.25161977204E+03 -0.80220402145E+03 -0.26593920457E+04  0.27891234921E+04  0.00000000000E+00 0.  1.
<mgrwt>
<rscale>  0 0.37958813E+04</rscale>
<asrwt>0</asrwt>
<pdfrwt beam="1">  1        2 0.44223520E+00 0.37958813E+04</pdfrwt>
<pdfrwt beam="2">  1       -2 0.19279032E+00 0.37958813E+04</pdfrwt>
<totfact> 0.24792514E-01</totfact>
</mgrwt>
</event>
<event>
 6    1  0.2436515E-005  0.3448541E+04  0.7818608E-02  0.8126094E-01
         -2   -1    0    0    0  501 -0.00000000000E+00  0.00000000000E+00  0.17299808482E+04  0.17299808482E+04  0.00000000000E+00 0. -1.
          2   -1    0    0  501    0  0.00000000000E+00 -0.00000000000E+00 -0.17185791166E+04  0.17185791166E+04  0.00000000000E+00 0.  1.
         23    2    1    2    0    0  0.12777828183E+03 -0.88426972947E+03  0.14782737924E+04  0.17310111629E+04  0.11334018259E+03 0.  0.
         13    1    3    3    0    0  0.70548806852E+02 -0.37388297190E+03  0.73372896173E+03  0.82651303687E+03  0.00000000000E+00 0. -1.
        -13    1    3    3    0    0  0.57229474980E+02 -0.51038675757E+03  0.74454483070E+03  0.90449812605E+03  0.00000000000E+00 0.  1.
         22    1    1    2    0    0 -0.12777828183E+03  0.88426972947E+03 -0.14668720609E+04  0.17175488018E+04  0.00000000000E+00 0.  1.
<mgrwt>
<rscale>  0 0.34485411E+04</rscale>
<asrwt>0</asrwt>
<pdfrwt beam="1">  1        2 0.26439679E+00 0.34485411E+04</pdfrwt>
<pdfrwt beam="2">  1       -2 0.26615090E+00 0.34485411E+04</pdfrwt>
<totfact> 0.40430746E-01</totfact>
</mgrwt>
</event>
<event>
 6    1  0.2436515E-005  0.2161369E+04  0.7818608E-02  0.8534681E-01
          1   -1    0    0  501    0  0.00000000000E+00  0.00000000000E+00  0.84893722151E+03  0.84893722151E+03  0.00000000000E+00 0.  1.
         -1   -1    0    0    0  501 -0.00000000000E+00 -0.00000000000E+00 -0.13756956108E+04  0.13756956108E+04  0.00000000000E+00 0. -1.
         23    2    1    2    0    0  0.21682411878E+03 -0.67443066293E+03  0.57344515530E+03  0.91607742382E+03  0.92136218260E+02 0.  0.
         13    1    3    3    0    0  0.88052453532E+02 -0.20065778258E+03  0.22471284454E+03  0.31386723751E+03  0.00000000000E+00 0.  1.
        -13    1    3    3    0    0  0.12877166525E+03 -0.47377288035E+03  0.34873231076E+03  0.60221018631E+03  0.00000000000E+00 0. -1.
         22    1    1    2    0    0 -0.21682411878E+03  0.67443066293E+03 -0.11002035446E+04  0.13085554085E+04  0.00000000000E+00 0. -1.
<mgrwt>
<rscale>  0 0.21613692E+04</rscale>
<asrwt>0</asrwt>
<pdfrwt beam="1">  1        1 0.13060573E+00 0.21613692E+04</pdfrwt>
<pdfrwt beam="2">  1       -1 0.21164548E+00 0.21613692E+04</pdfrwt>
<totfact> 0.23001040E+00</totfact>
</mgrwt>
</event>
<event>
 6    1  0.2436515E-005  0.1605278E+04  0.7818608E-02  0.8817312E-01
          2   -1    0    0  501    0  0.00000000000E+00  0.00000000000E+00  0.72984836965E+03  0.72984836965E+03  0.00000000000E+00 0. -1.
         -2   -1    0    0    0  501 -0.00000000000E+00 -0.00000000000E+00 -0.88268912694E+03  0.88268912694E+03  0.00000000000E+00 0.  1.
         23    2    1    2    0    0 -0.42546876954E+03 -0.37805057766E+03  0.48818775645E+03  0.75529571707E+03  0.90545135497E+02 0.  0.
         11    1    3    3    0    0 -0.14634629553E+03 -0.15021366265E+03  0.23475593543E+03  0.31478839222E+03  0.00000000000E+00 0.  1.
        -11    1    3    3    0    0 -0.27912247401E+03 -0.22783691501E+03  0.25343182102E+03  0.44050732485E+03  0.00000000000E+00 0. -1.
         22    1    1    2    0    0  0.42546876954E+03  0.37805057766E+03 -0.64102851374E+03  0.85724177952E+03  0.00000000000E+00 0.  1.
<mgrwt>
<rscale>  0 0.16052778E+04</rscale>
<asrwt>0</asrwt>
<pdfrwt beam="1">  1        2 0.11228436E+00 0.16052778E+04</pdfrwt>
<pdfrwt beam="2">  1       -2 0.13579833E+00 0.16052778E+04</pdfrwt>
<totfact> 0.14464304E+01</totfact>
</mgrwt>
</event>
<event>
 6    1  0.2436515E-005  0.2230513E+04  0.7818608E-02  0.8505834E-01
          2   -1    0    0  501    0  0.00000000000E+00  0.00000000000E+00  0.15572861691E+04  0.15572861691E+04  0.00000000000E+00 0.  1.
         -2   -1    0    0    0  501 -0.00000000000E+00 -0.00000000000E+00 -0.79869504819E+03  0.79869504819E+03  0.00000000000E+00 0. -1.
         23    2    1    2    0    0 -0.53605047670E+03 -0.95358163126E+03  0.59855152955E+03  0.12504131679E+04  0.92742200641E+02 0.  0.
         13    1    3    3    0    0 -0.47237544964E+03 -0.77047440003E+03  0.48295228142E+03  0.10247010650E+04  0.00000000000E+00 0.  1.
        -13    1    3    3    0    0 -0.63675027063E+02 -0.18310723123E+03  0.11559924813E+03  0.22571210283E+03  0.00000000000E+00 0. -1.
         22    1    1    2    0    0  0.53605047670E+03  0.95358163126E+03  0.16003959132E+03  0.11055680494E+04  0.00000000000E+00 0.  1.
<mgrwt>
<rscale>  0 0.22305127E+04</rscale>
<asrwt>0</asrwt>
<pdfrwt beam="1">  1        2 0.23958249E+00 0.22305127E+04</pdfrwt>
<pdfrwt beam="2">  1       -2 0.12287616E+00 0.22305127E+04</pdfrwt>
<totfact> 0.53788426E+00</totfact>
</mgrwt>
</event>
<event>
 6    1  0.2436515E-005  0.3171635E+04  0.7818608E-02  0.8196349E-01
          2   -1    0    0  501    0  0.00000000000E+00  0.00000000000E+00  0.34992645510E+04  0.34992645510E+04  0.00000000000E+00 0.  1.
         -2   -1    0    0    0  501 -0.00000000000E+00 -0.00000000000E+00 -0.71867015289E+03  0.71867015289E+03  0.00000000000E+00 0. -1.
         23    2    1    2    0    0 -0.65421189113E+03  0.14398417550E+04  0.15226672610E+04  0.21971630295E+04  0.88726051587E+02 0.  0.
         11    1    3    3    0    0 -0.44522553751E+03  0.10119277765E+04  0.10099962341E+04  0.14974364751E+04  0.00000000000E+00 0. -1.
        -11    1    3    3    0    0 -0.20898635362E+03  0.42791397852E+03  0.51267102688E+03  0.69972655432E+03  0.00000000000E+00 0.  1.
         22    1    1    2    0    0  0.65421189113E+03 -0.14398417550E+04  0.12579271371E+04  0.20207716744E+04  0.00000000000E+00 0.  1.
<mgrwt>
<rscale>  0 0.31716349E+04</rscale>
<asrwt>0</asrwt>
<pdfrwt beam="1">  1        2 0.53834838E+00 0.31716349E+04</pdfrwt>
<pdfrwt beam="2">  1       -2 0.11056464E+00 0.31716349E+04</pdfrwt>
<totfact> 0.44525217E-01</totfact>
</mgrwt>
</event>
<event>
 6    1  0.2436515E-005  0.4456038E+04  0.7818608E-02  0.7918379E-01
          2   -1    0    0  501    0  0.00000000000E+00  0.00000000000E+00  0.33980049929E+04  0.33980049929E+04  0.00000000000E+00 0.  1.
         -2   -1    0    0    0  501 -0.00000000000E+00 -0.00000000000E+00 -0.14608772000E+04  0.14608772000E+04  0.00000000000E+00 0. -1.
         23    2    1    2    0    0 -0.22197746684E+04  0.16252517619E+03  0.89482768218E+03  0.24011996398E+04  0.10596753413E+03 0.  0.
         13    1    3    3    0    0 -0.56482690113E+03 -0.43983941713E+00  0.24815521633E+03  0.61693649032E+03  0.00000000000E+00 0. -1.
        -13    1    3    3    0    0 -0.16549477672E+04  0.16296501561E+03  0.64667246586E+03  0.17842631495E+04  0.00000000000E+00 0.  1.
         22    1    1    2    0    0  0.22197746684E+04 -0.16252517619E+03  0.10423001107E+04  0.24576825531E+04  0.00000000000E+00 0. -1.
<mgrwt>
<rscale>  0 0.44560377E+04</rscale>
<asrwt>0</asrwt>
<pdfrwt beam="1">  1        2 0.52277000E+00 0.44560377E+04</pdfrwt>
<pdfrwt beam="2">  1       -2 0.22475034E+00 0.44560377E+04</pdfrwt>
<totfact> 0.66974990E-02</totfact>
</mgrwt>
</event>
<event>
 6    1  0.2436515E-005  0.7978075E+03  0.7818608E-02  0.9563196E-01
         -2   -1    0    0    0  501 -0.00000000000E+00  0.00000000000E+00  0.22585317055E+03  0.22585317055E+03  0.00000000000E+00 0. -1.
          2   -1    0    0  501    0  0.00000000000E+00 -0.00000000000E+00 -0.70454715709E+03  0.70454715709E+03  0.00000000000E+00 0.  1.
         23    2    1    2    0    0  0.89965781585E+02 -0.15295710539E+03  0.16729011549E+03  0.26048602115E+03  0.91527408608E+02 0.  0.
         13    1    3    3    0    0  0.96681815889E+02 -0.85196700133E+02  0.12913284811E+03  0.18243120265E+03  0.00000000000E+00 0.  1.
        -13    1    3    3    0    0 -0.67160343047E+01 -0.67760405259E+02  0.38157267382E+02  0.78054818504E+02  0.00000000000E+00 0. -1.
         22    1    1    2    0    0 -0.89965781585E+02  0.15295710539E+03 -0.64598410204E+03  0.66991430649E+03  0.00000000000E+00 0.  1.
<mgrwt>
<rscale>  0 0.79780752E+03</rscale>
<asrwt>0</asrwt>
<pdfrwt beam="1">  1        2 0.10839187E+00 0.79780752E+03</pdfrwt>
<pdfrwt beam="2">  1       -2 0.34746642E-01 0.79780752E+03</pdfrwt>
<totfact> 0.31730107E+02</totfact>
</mgrwt>
</event>
<event>
 6    1  0.2436515E-005  0.3483991E+04  0.7818608E-02  0.8117594E-01
          2   -1    0    0  501    0  0.00000000000E+00  0.00000000000E+00  0.20528564065E+04  0.20528564065E+04  0.00000000000E+00 0.  1.
         -2   -1    0    0    0  501 -0.00000000000E+00 -0.00000000000E+00 -0.14782076605E+04  0.14782076605E+04  0.00000000000E+00 0. -1.
         23    2    1    2    0    0  0.14993525294E+04  0.87365254538E+03  0.14392076934E+03  0.17430894118E+04  0.79503031820E+02 0.  0.
         11    1    3    3    0    0  0.72381139468E+03  0.42769969137E+03  0.10926453946E+03  0.84780227686E+03  0.00000000000E+00 0. -1.
        -11    1    3    3    0    0  0.77554113476E+03  0.44595285401E+03  0.34656229877E+02  0.89528713493E+03  0.00000000000E+00 0.  1.
         22    1    1    2    0    0 -0.14993525294E+04 -0.87365254538E+03  0.43072797666E+03  0.17879746551E+04  0.00000000000E+00 0.  1.
<mgrwt>
<rscale>  0 0.34839909E+04</rscale>
<asrwt>0</asrwt>
<pdfrwt beam="1">  1        2 0.31582406E+00 0.34839909E+04</pdfrwt>
<pdfrwt beam="2">  1       -2 0.22741656E+00 0.34839909E+04</pdfrwt>
<totfact> 0.45590109E-01</totfact>
</mgrwt>
</event>
<event>
 6    1  0.2436515E-005  0.2578411E+04  0.7818608E-02  0.8375572E-01
          2   -1    0    0  501    0  0.00000000000E+00  0.00000000000E+00  0.39104219508E+04  0.39104219508E+04  0.00000000000E+00 0.  1.
         -2   -1    0    0    0  501 -0.00000000000E+00 -0.00000000000E+00 -0.42503101425E+03  0.42503101425E+03  0.00000000000E+00 0. -1.
         23    2    1    2    0    0  0.46892482147E+03  0.61626663071E+03  0.34746382650E+04  0.35609914306E+04  0.88734704900E+02 0.  0.
         13    1    3    3    0    0  0.36687074820E+03  0.53639462746E+03  0.28926959924E+04  0.29647939974E+04  0.00000000000E+00 0. -1.
        -13    1    3    3    0    0  0.10205407327E+03  0.79872003253E+02  0.58194227260E+03  0.59619743325E+03  0.00000000000E+00 0.  1.
         22    1    1    2    0    0 -0.46892482147E+03 -0.61626663071E+03  0.10752671483E+02  0.77446153440E+03  0.00000000000E+00 0. -1.
<mgrwt>
<rscale>  0 0.25784108E+04</rscale>
<asrwt>0</asrwt>
<pdfrwt beam="1">  1        2 0.60160335E+00 0.25784108E+04</pdfrwt>
<pdfrwt beam="2">  1       -2 0.65389389E-01 0.25784108E+04</pdfrwt>
<totfact> 0.77214058E-01</totfact>
</mgrwt>
</event>
<event>
 6    1  0.3036526E-005  0.3748701E+04  0.7818608E-02  0.8057254E-01
         -2   -1    0    0    0  501 -0.00000000000E+00  0.00000000000E+00  0.12999988219E+04  0.12999988219E+04  0.00000000000E+00 0. -1.
          2   -1    0    0  501    0  0.00000000000E+00 -0.00000000000E+00 -0.27024557042E+04  0.27024557042E+04  0.00000000000E+00 0.  1.
         23    2    1    2    0    0 -0.20310169104E+03  0.18223934545E+04 -0.11104700811E+04  0.21456765394E+04  0.91737727320E+02 0.  0.
         11    1    3    3    0    0 -0.32149703146E+02  0.60855908436E+03 -0.34004567895E+03  0.69786017678E+03  0.00000000000E+00 0.  1.
        -11    1    3    3    0    0 -0.17095198789E+03  0.12138343702E+04 -0.77042440220E+03  0.14478163626E+04  0.00000000000E+00 0. -1.
         22    1    1    2    0    0  0.20310169104E+03 -0.18223934545E+04 -0.29198680115E+03  0.18567779867E+04  0.00000000000E+00 0. -1.
<mgrwt>
<rscale>  0 0.37487007E+04</rscale>
<asrwt>0</asrwt>
<pdfrwt beam="1">  1        2 0.41576241E+00 0.37487007E+04</pdfrwt>
<pdfrwt beam="2">  1       -2 0.19999982E+00 0.37487007E+04</pdfrwt>
<totfact> 0.28335589E-01</totfact>
</mgrwt>
</event>
<event>
 6    1  0.2436515E-005  0.2176723E+04  0.7818608E-02  0.8528180E-01
         -2   -1    0    0    0  501 -0.00000000000E+00  0.00000000000E+00  0.98237053086E+03  0.98237053086E+03  0.00000000000E+00 0. -1.
          2   -1    0    0  501    0  0.00000000000E+00 -0.00000000000E+00 -0.12057878038E+04  0.12057878038E+04  0.00000000000E+00 0.  1.
         23    2    1    2    0    0 -0.67406232745E+03 -0.26250846998E+03 -0.92693415535E+03  0.11790960363E+04  0.88259935905E+02 0.  0.
         11    1    3    3    0    0 -0.23379151021E+03 -0.58112273107E+02 -0.26316972010E+03  0.35678257820E+03  0.00000000000E+00 0.  1.
        -11    1    3    3    0    0 -0.44027081724E+03 -0.20439619687E+03 -0.66376443525E+03  0.82231345806E+03  0.00000000000E+00 0. -1.
         22    1    1    2    0    0  0.67406232745E+03  0.26250846998E+03  0.70351688244E+03  0.10090622984E+04  0.00000000000E+00 0. -1.
<mgrwt>
<rscale>  0 0.21767227E+04</rscale>
<asrwt>0</asrwt>
<pdfrwt beam="1">  1        2 0.18550582E+00 0.21767227E+04</pdfrwt>
<pdfrwt beam="2">  1       -2 0.15113393E+00 0.21767227E+04</pdfrwt>
<totfact> 0.50541327E+00</totfact>
</mgrwt>
</event>
<event>
 6    1  0.2436515E-005  0.1605932E+04  0.7818608E-02  0.8816912E-01
         -2   -1    0    0    0  501 -0.00000000000E+00  0.00000000000E+00  0.19483421516E+03  0.19483421516E+03  0.00000000000E+00 0. -1.
          2   -1    0    0  501    0  0.00000000000E+00 -0.00000000000E+00 -0.33092473426E+04  0.33092473426E+04  0.00000000000E+00 0.  1.
         23    2    1    2    0    0 -0.17677633384E+03  0.65599107828E+03 -0.24858352310E+04  0.25785091193E+04  0.88081300745E+02 0.  0.
         11    1    3    3    0    0 -0.91017023745E+02  0.19063368465E+03 -0.71672294036E+03  0.74720617875E+03  0.00000000000E+00 0. -1.
        -11    1    3    3    0    0 -0.85759310095E+02  0.46535739363E+03 -0.17691122907E+04  0.18313029405E+04  0.00000000000E+00 0.  1.
         22    1    1    2    0    0  0.17677633384E+03 -0.65599107828E+03 -0.62857789645E+03  0.92557243849E+03  0.00000000000E+00 0. -1.
<mgrwt>
<rscale>  0 0.16059323E+04</rscale>
<asrwt>0</asrwt>
<pdfrwt beam="1">  1        2 0.50911497E+00 0.16059323E+04</pdfrwt>
<pdfrwt beam="2">  1       -2 0.29974495E-01 0.16059323E+04</pdfrwt>
<totfact> 0.10911008E+01</totfact>
</mgrwt>
</event>
<event>
 6    1  0.2436515E-005  0.1507772E+04  0.7818608E-02  0.8879301E-01
          2   -1    0    0  501    0  0.00000000000E+00  0.00000000000E+00  0.10246642029E+04  0.10246642029E+04  0.00000000000E+00 0.  1.
         -2   -1    0    0    0  501 -0.00000000000E+00 -0.00000000000E+00 -0.55466375297E+03  0.55466375297E+03  0.00000000000E+00 0. -1.
         23    2    1    2    0    0  0.21542952626E+03 -0.49949129372E+03 -0.30651537742E+03  0.63123604925E+03  0.92767666747E+02 0.  0.
         11    1    3    3    0    0  0.19038887828E+03 -0.37053895019E+03 -0.26386505094E+03  0.49312453162E+03  0.00000000000E+00 0.  1.
        -11    1    3    3    0    0  0.25040647981E+02 -0.12895234353E+03 -0.42650326479E+02  0.13811151763E+03  0.00000000000E+00 0. -1.
         22    1    1    2    0    0 -0.21542952626E+03  0.49949129372E+03  0.77651582739E+03  0.94809190666E+03  0.00000000000E+00 0.  1.
<mgrwt>
<rscale>  0 0.15077720E+04</rscale>
<asrwt>0</asrwt>
<pdfrwt beam="1">  1        2 0.15764065E+00 0.15077720E+04</pdfrwt>
<pdfrwt beam="2">  1       -2 0.85332886E-01 0.15077720E+04</pdfrwt>
<totfact> 0.28016304E+01</totfact>
</mgrwt>
</event>
<event>
 6    1  0.2436515E-005  0.1108081E+04  0.7818608E-02  0.9197351E-01
          2   -1    0    0  501    0  0.00000000000E+00  0.00000000000E+00  0.12988588007E+04  0.12988588007E+04  0.00000000000E+00 0.  1.
         -2   -1    0    0    0  501 -0.00000000000E+00 -0.00000000000E+00 -0.23633116451E+03  0.23633116451E+03  0.00000000000E+00 0. -1.
         23    2    1    2    0    0 -0.15087132635E+03 -0.41959521292E+03  0.98179045818E+03  0.10820445231E+04  0.89919665802E+02 0.  0.
         11    1    3    3    0    0 -0.10283101714E+03 -0.20290115126E+03  0.58022926578E+03  0.62322475572E+03  0.00000000000E+00 0.  1.
        -11    1    3    3    0    0 -0.48040309209E+02 -0.21669406166E+03  0.40156119240E+03  0.45881976734E+03  0.00000000000E+00 0. -1.
         22    1    1    2    0    0  0.15087132635E+03  0.41959521292E+03  0.80737178012E+02  0.45314544214E+03  0.00000000000E+00 0.  1.
<mgrwt>
<rscale>  0 0.11080809E+04</rscale>
<asrwt>0</asrwt>
<pdfrwt beam="1">  1        2 0.19982443E+00 0.11080809E+04</pdfrwt>
<pdfrwt beam="2">  1       -2 0.36358642E-01 0.11080809E+04</pdfrwt>
<totfact> 0.11688283E+02</totfact>
</mgrwt>
</event>
<event>
 6    1  0.2436515E-005  0.1986495E+04  0.7818608E-02  0.8612961E-01
          2   -1    0    0  501    0  0.00000000000E+00  0.00000000000E+00  0.13762648854E+04  0.13762648854E+04  0.00000000000E+00 0.  1.
         -2   -1    0    0    0  501 -0.00000000000E+00 -0.00000000000E+00 -0.71682482852E+03  0.71682482852E+03  0.00000000000E+00 0. -1.
         23    2    1    2    0    0 -0.20458315283E+03 -0.25075370657E+03 -0.65682956094E+03  0.73762027694E+03  0.89033213250E+02 0.  0.
         11    1    3    3    0    0 -0.88421818865E+02 -0.17753258888E+03 -0.38777638940E+03  0.43555340240E+03  0.00000000000E+00 0. -1.
        -11    1    3    3    0    0 -0.11616133396E+03 -0.73221117685E+02 -0.26905317154E+03  0.30206687454E+03  0.00000000000E+00 0.  1.
         22    1    1    2    0    0  0.20458315283E+03  0.25075370657E+03  0.13162696179E+04  0.13554694370E+04  0.00000000000E+00 0.  1.
<mgrwt>
<rscale>  0 0.19864952E+04</rscale>
<asrwt>0</asrwt>
<pdfrwt beam="1">  1        2 0.21173306E+00 0.19864952E+04</pdfrwt>
<pdfrwt beam="2">  1       -2 0.11028074E+00 0.19864952E+04</pdfrwt>
<totfact> 0.90698707E+00</totfact>
</mgrwt>
</event>
<event>
 6    1  0.2436515E-005  0.1906596E+04  0.7818608E-02  0.8651580E-01
         -2   -1    0    0    0  501 -0.00000000000E+00  0.00000000000E+00  0.97650574220E+03  0.97650574220E+03  0.00000000000E+00 0. -1.
          2   -1    0    0  501    0  0.00000000000E+00 -0.00000000000E+00 -0.93064198826E+03  0.93064198826E+03  0.00000000000E+00 0.  1.
         23    2    1    2    0    0 -0.54998151253E+03 -0.22381729140E+02 -0.75294387482E+03  0.93705792345E+03  0.90401699875E+02 0.  0.
         11    1    3    3    0    0 -0.18080319751E+03  0.35083585697E+02 -0.25142670740E+03  0.31166655806E+03  0.00000000000E+00 0.  1.
        -11    1    3    3    0    0 -0.36917831501E+03 -0.57465314837E+02 -0.50151716742E+03  0.62539136539E+03  0.00000000000E+00 0. -1.
         22    1    1    2    0    0  0.54998151253E+03  0.22381729140E+02  0.79880762876E+03  0.97008980702E+03  0.00000000000E+00 0. -1.
<mgrwt>
<rscale>  0 0.19065962E+04</rscale>
<asrwt>0</asrwt>
<pdfrwt beam="1">  1        2 0.14317569E+00 0.19065962E+04</pdfrwt>
<pdfrwt beam="2">  1       -2 0.15023165E+00 0.19065962E+04</pdfrwt>
<totfact> 0.78092876E+00</totfact>
</mgrwt>
</event>
<event>
 6    1  0.2436515E-005  0.2677769E+04  0.7818608E-02  0.8342254E-01
         -2   -1    0    0    0  501 -0.00000000000E+00  0.00000000000E+00  0.74938393974E+03  0.74938393974E+03  0.00000000000E+00 0. -1.
          2   -1    0    0  501    0  0.00000000000E+00 -0.00000000000E+00 -0.23921140338E+04  0.23921140338E+04  0.00000000000E+00 0.  1.
         23    2    1    2    0    0 -0.13220504002E+04  0.18189754312E+03 -0.92433626103E+03  0.16259143645E+04  0.91082492326E+02 0.  0.
         13    1    3    3    0    0 -0.94269400639E+03  0.12307074779E+03 -0.70706648202E+03  0.11848043757E+04  0.00000000000E+00 0. -1.
        -13    1    3    3    0    0 -0.37935639377E+03  0.58826795334E+02 -0.21726977901E+03  0.44110998879E+03  0.00000000000E+00 0.  1.
         22    1    1    2    0    0  0.13220504002E+04 -0.18189754312E+03 -0.71839383304E+03  0.15155836091E+04  0.00000000000E+00 0. -1.
<mgrwt>
<rscale>  0 0.26777691E+04</rscale>
<asrwt>0</asrwt>
<pdfrwt beam="1">  1        2 0.36801755E+00 0.26777691E+04</pdfrwt>
<pdfrwt beam="2">  1       -2 0.11528983E+00 0.26777691E+04</pdfrwt>
<totfact> 0.20686538E+00</totfact>
</mgrwt>
</event>
<event>
 6    1  0.2436515E-005  0.1873507E+04  0.7818608E-02  0.8668157E-01
          2   -1    0    0  501    0  0.00000000000E+00  0.00000000000E+00  0.29681556170E+04  0.29681556170E+04  0.00000000000E+00 0. -1.
         -2   -1    0    0    0  501 -0.00000000000E+00 -0.00000000000E+00 -0.29564041508E+03  0.29564041508E+03  0.00000000000E+00 0.  1.
         23    2    1    2    0    0  0.38389203627E+03  0.33034050107E+03 -0.28838897970E+02  0.51537613781E+03  0.91010654488E+02 0.  0.
         13    1    3    3    0    0  0.13191887713E+03  0.85415825508E+02  0.27342207537E+02  0.15951817986E+03  0.00000000000E+00 0.  1.
        -13    1    3    3    0    0  0.25197315914E+03  0.24492467557E+03 -0.56181105507E+02  0.35585795796E+03  0.00000000000E+00 0. -1.
         22    1    1    2    0    0 -0.38389203627E+03 -0.33034050107E+03  0.27013540999E+04  0.27484198942E+04  0.00000000000E+00 0.  1.
<mgrwt>
<rscale>  0 0.18735066E+04</rscale>
<asrwt>0</asrwt>
<pdfrwt beam="1">  1        2 0.45663931E+00 0.18735066E+04</pdfrwt>
<pdfrwt beam="2">  1       -2 0.45483143E-01 0.18735066E+04</pdfrwt>
<totfact> 0.78664956E+00</totfact>
</mgrwt>
</event>
<event>
 6    1  0.2436515E-005  0.6998870E+03  0.7818608E-02  0.9717425E-01
         -2   -1    0    0    0  501 -0.00000000000E+00  0.00000000000E+00  0.48825210444E+03  0.48825210444E+03  0.00000000000E+00 0. -1.
          2   -1    0    0  501    0  0.00000000000E+00 -0.00000000000E+00 -0.25081396403E+03  0.25081396403E+03  0.00000000000E+00 0.  1.
         23    2    1    2    0    0 -0.36394407863E+02 -0.32416300058E+03  0.23708425557E+03  0.41286623846E+03  0.88562874544E+02 0.  0.
         11    1    3    3    0    0 -0.20093047308E+02 -0.23647184346E+03  0.12075611023E+03  0.26627936732E+03  0.00000000000E+00 0. -1.
        -11    1    3    3    0    0 -0.16301360556E+02 -0.87691157123E+02  0.11632814533E+03  0.14658687114E+03  0.00000000000E+00 0.  1.
         22    1    1    2    0    0  0.36394407863E+02  0.32416300058E+03  0.35388484201E+00  0.32619983002E+03  0.00000000000E+00 0.  1.
<mgrwt>
<rscale>  0 0.69988698E+03</rscale>
<asrwt>0</asrwt>
<pdfrwt beam="1">  1        2 0.38586764E-01 0.69988698E+03</pdfrwt>
<pdfrwt beam="2">  1       -2 0.75115708E-01 0.69988698E+03</pdfrwt>
<totfact> 0.21549409E+02</totfact>
</mgrwt>
</event>
<event>
 6    1  0.2436515E-005  0.1118119E+04  0.7818608E-02  0.9187710E-01
          1   -1    0    0  501    0  0.00000000000E+00  0.00000000000E+00  0.12284621411E+04  0.12284621411E+04  0.00000000000E+00 0. -1.
         -1   -1    0    0    0  501 -0.00000000000E+00 -0.00000000000E+00 -0.25442184179E+03  0.25442184179E+03  0.00000000000E+00 0.  1.
         23    2    1    2    0    0  0.42115252196E+03 -0.99620891169E+00  0.10030389822E+02  0.43089275442E+03  0.90540145255E+02 0.  0.
         11    1    3    3    0    0  0.99951586390E+02 -0.37604162192E+02 -0.81478180679E+01  0.10710172536E+03  0.00000000000E+00 0. -1.
        -11    1    3    3    0    0  0.32120093557E+03  0.36607953280E+02  0.18178207890E+02  0.32379102906E+03  0.00000000000E+00 0.  1.
         22    1    1    2    0    0 -0.42115252196E+03  0.99620891169E+00  0.96400990950E+03  0.10519912285E+04  0.00000000000E+00 0. -1.
<mgrwt>
<rscale>  0 0.11181191E+04</rscale>
<asrwt>0</asrwt>
<pdfrwt beam="1">  1        1 0.18899417E+00 0.11181191E+04</pdfrwt>
<pdfrwt beam="2">  1       -1 0.39141823E-01 0.11181191E+04</pdfrwt>
<totfact> 0.64212452E+01</totfact>
</mgrwt>
</event>
<event>
 6    1  0.2436515E-005  0.4657766E+04  0.7818608E-02  0.7883584E-01
         -1   -1    0    0    0  501 -0.00000000000E+00  0.00000000000E+00  0.18875109207E+04  0.18875109207E+04  0.00000000000E+00 0. -1.
          1   -1    0    0  501    0  0.00000000000E+00 -0.00000000000E+00 -0.28734648479E+04  0.28734648479E+04  0.00000000000E+00 0.  1.
         23    2    1    2    0    0 -0.82940705870E+03 -0.18375690340E+04 -0.16830001456E+04  0.26277975167E+04  0.90853039607E+02 0.  0.
         11    1    3    3    0    0 -0.83190001895E+02 -0.19157319912E+03 -0.13978511541E+03  0.25131801672E+03  0.00000000000E+00 0.  1.
        -11    1    3    3    0    0 -0.74621705681E+03 -0.16459958349E+04 -0.15432150302E+04  0.23764795000E+04  0.00000000000E+00 0. -1.
         22    1    1    2    0    0  0.82940705870E+03  0.18375690340E+04  0.69704621836E+03  0.21331782519E+04  0.00000000000E+00 0. -1.
<mgrwt>
<rscale>  0 0.46577661E+04</rscale>
<asrwt>0</asrwt>
<pdfrwt beam="1">  1        1 0.44207152E+00 0.46577661E+04</pdfrwt>
<pdfrwt beam="2">  1       -1 0.29038629E+00 0.46577661E+04</pdfrwt>
<totfact> 0.20877663E-02</totfact>
</mgrwt>
</event>
<event>
 6    1  0.2436515E-005  0.3537132E+04  0.7818608E-02  0.8105046E-01
          2   -1    0    0  501    0  0.00000000000E+00  0.00000000000E+00  0.34889325096E+04  0.34889325096E+04  0.00000000000E+00 0. -1.
         -2   -1    0    0    0  501 -0.00000000000E+00 -0.00000000000E+00 -0.89649927836E+03  0.89649927836E+03  0.00000000000E+00 0.  1.
         23    2    1    2    0    0  0.13638158510E+04  0.97222837104E+03  0.59725774896E+03  0.17804467811E+04  0.89734277995E+02 0.  0.
         13    1    3    3    0    0  0.15650071294E+03  0.78169627234E+02  0.65530069419E+02  0.18680779901E+03  0.00000000000E+00 0. -1.
        -13    1    3    3    0    0  0.12073151381E+04  0.89405874380E+03  0.53172767954E+03  0.15936389821E+04  0.00000000000E+00 0.  1.
         22    1    1    2    0    0 -0.13638158510E+04 -0.97222837104E+03  0.19951754823E+04  0.26049850069E+04  0.00000000000E+00 0. -1.
<mgrwt>
<rscale>  0 0.35371319E+04</rscale>
<asrwt>0</asrwt>
<pdfrwt beam="1">  1        2 0.53675884E+00 0.35371319E+04</pdfrwt>
<pdfrwt beam="2">  1       -2 0.13792297E+00 0.35371319E+04</pdfrwt>
<totfact> 0.25273452E-01</totfact>
</mgrwt>
</event>
<event>
 6    1  0.2436515E-005  0.2595523E+04  0.7818608E-02  0.8369724E-01
         -2   -1    0    0    0  501 -0.00000000000E+00  0.00000000000E+00  0.39144826980E+03  0.39144826980E+03  0.00000000000E+00 0. -1.
          2   -1    0    0  501    0  0.00000000000E+00 -0.00000000000E+00 -0.43024447358E+04  0.43024447358E+04  0.00000000000E+00 0.  1.
         23    2    1    2    0    0  0.11876528406E+02  0.81626008901E+03 -0.37789353441E+04  0.38669336809E+04  0.80013574847E+02 0.  0.
         13    1    3    3    0    0 -0.28813092721E+02  0.32050659824E+03 -0.15804515542E+04  0.16128799674E+04  0.00000000000E+00 0. -1.
        -13    1    3    3    0    0  0.40689621127E+02  0.49575349077E+03 -0.21984837899E+04  0.22540537135E+04  0.00000000000E+00 0.  1.
         22    1    1    2    0    0 -0.11876528406E+02 -0.81626008901E+03 -0.13206112185E+03  0.82695932472E+03  0.00000000000E+00 0. -1.
<mgrwt>
<rscale>  0 0.25955227E+04</rscale>
<asrwt>0</asrwt>
<pdfrwt beam="1">  1        2 0.66191455E+00 0.25955227E+04</pdfrwt>
<pdfrwt beam="2">  1       -2 0.60222813E-01 0.25955227E+04</pdfrwt>
<totfact> 0.43065570E-01</totfact>
</mgrwt>
</event>
<event>
 6    1  0.2436515E-005  0.2262218E+04  0.7818608E-02  0.8492969E-01
          2   -1    0    0  501    0  0.00000000000E+00  0.00000000000E+00  0.39962674212E+04  0.39962674212E+04  0.00000000000E+00 0.  1.
         -2   -1    0    0    0  501 -0.00000000000E+00 -0.00000000000E+00 -0.32015063531E+03  0.32015063531E+03  0.00000000000E+00 0. -1.
         23    2    1    2    0    0 -0.81510190544E+03  0.27128750143E+03  0.44244412058E+03  0.97058080238E+03  0.91006974683E+02 0.  0.
         11    1    3    3    0    0 -0.45686475738E+03  0.10458889543E+03  0.24588530379E+03  0.52926725404E+03  0.00000000000E+00 0.  1.
        -11    1    3    3    0    0 -0.35823714806E+03  0.16669860600E+03  0.19655881678E+03  0.44131354834E+03  0.00000000000E+00 0. -1.
         22    1    1    2    0    0  0.81510190544E+03 -0.27128750143E+03  0.32336726653E+04  0.33458372541E+04  0.00000000000E+00 0.  1.
<mgrwt>
<rscale>  0 0.22622180E+04</rscale>
<asrwt>0</asrwt>
<pdfrwt beam="1">  1        2 0.61481034E+00 0.22622180E+04</pdfrwt>
<pdfrwt beam="2">  1       -2 0.49253947E-01 0.22622180E+04</pdfrwt>
<totfact> 0.12302304E+00</totfact>
</mgrwt>
</event>
<event>
 6    1  0.2436515E-005  0.4652248E+04  0.7818608E-02  0.7884512E-01
          2   -1    0    0  501    0  0.00000000000E+00  0.00000000000E+00  0.36231918509E+04  0.36231918509E+04  0.00000000000E+00 0.  1.
         -2   -1    0    0    0  501 -0.00000000000E+00 -0.00000000000E+00 -0.14933937565E+04  0.14933937565E+04  0.00000000000E+00 0. -1.
         23    2    1    2    0    0 -0.10512353865E+04  0.94106192644E+03 -0.96773539546E+03  0.17128513187E+04  0.81574855960E+02 0.  0.
         13    1    3    3    0    0 -0.79169931550E+03  0.73186972929E+03 -0.77498735272E+03  0.13277900827E+04  0.00000000000E+00 0.  1.
        -13    1    3    3    0    0 -0.25953607099E+03  0.20919219715E+03 -0.19274804274E+03  0.38506123600E+03  0.00000000000E+00 0. -1.
         22    1    1    2    0    0  0.10512353865E+04 -0.94106192644E+03  0.30975334898E+04  0.34037342887E+04  0.00000000000E+00 0.  1.
<mgrwt>
<rscale>  0 0.46522477E+04</rscale>
<asrwt>0</asrwt>
<pdfrwt beam="1">  1        2 0.55741413E+00 0.46522477E+04</pdfrwt>
<pdfrwt beam="2">  1       -2 0.22975289E+00 0.46522477E+04</pdfrwt>
<totfact> 0.42558384E-02</totfact>
</mgrwt>
</event>
<event>
 6    1  0.2436515E-005  0.1584811E+04  0.7818608E-02  0.8829934E-01
         -2   -1    0    0    0  501 -0.00000000000E+00  0.00000000000E+00  0.77476297850E+03  0.77476297850E+03  0.00000000000E+00 0. -1.
          2   -1    0    0  501    0  0.00000000000E+00 -0.00000000000E+00 -0.81044960764E+03  0.81044960764E+03  0.00000000000E+00 0.  1.
         23    2    1    2    0    0  0.50391148304E+03  0.60617185044E+03  0.14591210364E+02  0.79533983933E+03  0.10479246922E+03 0.  0.
         13    1    3    3    0    0  0.22842497416E+03  0.27210998300E+03  0.58714919366E+02  0.36009617246E+03  0.00000000000E+00 0. -1.
        -13    1    3    3    0    0  0.27548650888E+03  0.33406186745E+03 -0.44123709002E+02  0.43524366687E+03  0.00000000000E+00 0.  1.
         22    1    1    2    0    0 -0.50391148304E+03 -0.60617185044E+03 -0.50277839503E+02  0.78987274681E+03  0.00000000000E+00 0.  1.
<mgrwt>
<rscale>  0 0.15848108E+04</rscale>
<asrwt>0</asrwt>
<pdfrwt beam="1">  1        2 0.12468455E+00 0.15848108E+04</pdfrwt>
<pdfrwt beam="2">  1       -2 0.11919430E+00 0.15848108E+04</pdfrwt>
<totfact> 0.17548808E+01</totfact>
</mgrwt>
</event>
<event>
 6    1  0.2436515E-005  0.1741144E+04  0.7818608E-02  0.8738240E-01
          2   -1    0    0  501    0  0.00000000000E+00  0.00000000000E+00  0.26876068657E+03  0.26876068657E+03  0.00000000000E+00 0.  1.
         -2   -1    0    0    0  501 -0.00000000000E+00 -0.00000000000E+00 -0.28199655231E+04  0.28199655231E+04  0.00000000000E+00 0. -1.
         23    2    1    2    0    0 -0.77678834426E+03  0.31755621289E+03 -0.88472765769E+03  0.12228783413E+04  0.91903913568E+02 0.  0.
         11    1    3    3    0    0 -0.11380350142E+03  0.78179928571E+02 -0.17057917474E+03  0.21945521872E+03  0.00000000000E+00 0.  1.
        -11    1    3    3    0    0 -0.66298484284E+03  0.23937628432E+03 -0.71414848295E+03  0.10034231226E+04  0.00000000000E+00 0. -1.
         22    1    1    2    0    0  0.77678834426E+03 -0.31755621289E+03 -0.16664771789E+04  0.18658478684E+04  0.00000000000E+00 0. -1.
<mgrwt>
<rscale>  0 0.17411443E+04</rscale>
<asrwt>0</asrwt>
<pdfrwt beam="1">  1        2 0.41347797E-01 0.17411443E+04</pdfrwt>
<pdfrwt beam="2">  1       -2 0.43384086E+00 0.17411443E+04</pdfrwt>
<totfact> 0.52546620E-01</totfact>
</mgrwt>
</event>
<event>
 6    1  0.2436515E-005  0.1242487E+04  0.7818608E-02  0.9076459E-01
          2   -1    0    0  501    0  0.00000000000E+00  0.00000000000E+00  0.78890496054E+03  0.78890496054E+03  0.00000000000E+00 0.  1.
         -2   -1    0    0    0  501 -0.00000000000E+00 -0.00000000000E+00 -0.48921450082E+03  0.48921450082E+03  0.00000000000E+00 0. -1.
         23    2    1    2    0    0  0.42045018298E+03  0.32417980121E+02  0.61566038645E+03  0.75117897477E+03  0.86039868051E+02 0.  0.
         13    1    3    3    0    0  0.18896332903E+03 -0.16952028764E+02  0.32514304147E+03  0.37644721863E+03  0.00000000000E+00 0.  1.
        -13    1    3    3    0    0  0.23148685395E+03  0.49370008885E+02  0.29051734498E+03  0.37473175614E+03  0.00000000000E+00 0. -1.
         22    1    1    2    0    0 -0.42045018298E+03 -0.32417980121E+02 -0.31596992674E+03  0.52694048659E+03  0.00000000000E+00 0. -1.
<mgrwt>
<rscale>  0 0.12424874E+04</rscale>
<asrwt>0</asrwt>
<pdfrwt beam="1">  1        2 0.12136999E+00 0.12424874E+04</pdfrwt>
<pdfrwt beam="2">  1       -2 0.75263769E-01 0.12424874E+04</pdfrwt>
<totfact> 0.54734515E+01</totfact>
</mgrwt>
</event>
<event>
 6    1  0.2436515E-005  0.3014202E+04  0.7818608E-02  0.8239687E-01
          2   -1    0    0  501    0  0.00000000000E+00  0.00000000000E+00  0.11815557779E+04  0.11815557779E+04  0.00000000000E+00 0.  1.
         -2   -1    0    0    0  501 -0.00000000000E+00 -0.00000000000E+00 -0.19223406352E+04  0.19223406352E+04  0.00000000000E+00 0. -1.
         23    2    1    2    0    0  0.62257306875E+03 -0.16019172874E+03  0.10313823687E+04  0.12187345386E+04  0.91135445401E+02 0.  0.
         13    1    3    3    0    0  0.95689030451E+02 -0.10213717133E+02  0.10443491807E+03  0.14201183992E+03  0.00000000000E+00 0.  1.
        -13    1    3    3    0    0  0.52688403829E+03 -0.14997801161E+03  0.92694745059E+03  0.10767226987E+04  0.00000000000E+00 0. -1.
         22    1    1    2    0    0 -0.62257306875E+03  0.16019172874E+03 -0.17721672260E+04  0.18851618744E+04  0.00000000000E+00 0. -1.
<mgrwt>
<rscale>  0 0.30142015E+04</rscale>
<asrwt>0</asrwt>
<pdfrwt beam="1">  1        2 0.18177781E+00 0.30142015E+04</pdfrwt>
<pdfrwt beam="2">  1       -2 0.29574471E+00 0.30142015E+04</pdfrwt>
<totfact> 0.56060756E-01</totfact>
</mgrwt>
</event>
<event>
 6    1  0.7828293E-005  0.4434914E+04  0.7818608E-02  0.7922132E-01
          2   -1    0    0  501    0  0.00000000000E+00  0.00000000000E+00  0.20331897764E+04  0.20331897764E+04  0.00000000000E+00 0.  1.
         -2   -1    0    0    0  501 -0.00000000000E+00 -0.00000000000E+00 -0.24184240768E+04  0.24184240768E+04  0.00000000000E+00 0. -1.
         23    2    1    2    0    0  0.20229122901E+04  0.56587400105E+03  0.51759617495E+03  0.21652432826E+04  0.89359689049E+02 0.  0.
         13    1    3    3    0    0  0.72845426543E+03  0.21659225394E+03  0.14501161096E+03  0.77368351967E+03  0.00000000000E+00 0.  1.
        -13    1    3    3    0    0  0.12944580247E+04  0.34928174711E+03  0.37258456400E+03  0.13915597630E+04  0.00000000000E+00 0. -1.
         22    1    1    2    0    0 -0.20229122901E+04 -0.56587400105E+03 -0.90283047541E+03  0.22863705706E+04  0.00000000000E+00 0. -1.
<mgrwt>
<rscale>  0 0.44349138E+04</rscale>
<asrwt>0</asrwt>
<pdfrwt beam="1">  1        2 0.31279843E+00 0.44349138E+04</pdfrwt>
<pdfrwt beam="2">  1       -2 0.37206524E+00 0.44349138E+04</pdfrwt>
<totfact> 0.54918005E-02</totfact>
</mgrwt>
</event>
<event>
 6    1  0.2436515E-005  0.2838573E+04  0.7818608E-02  0.8291392E-01
         -2   -1    0    0    0  501 -0.00000000000E+00  0.00000000000E+00  0.18559212316E+04  0.18559212316E+04  0.00000000000E+00 0. -1.
          2   -1    0    0  501    0  0.00000000000E+00 -0.00000000000E+00 -0.10853766782E+04  0.10853766782E+04  0.00000000000E+00 0.  1.
         23    2    1    2    0    0 -0.62941944596E+03  0.12562002631E+04  0.18774595706E+03  0.14201594729E+04  0.86002582645E+02 0.  0.
         13    1    3    3    0    0 -0.22437939747E+03  0.38594992189E+03  0.30521647676E+02  0.44747628674E+03  0.00000000000E+00 0.  1.
        -13    1    3    3    0    0 -0.40504004848E+03  0.87025034122E+03  0.15722430938E+03  0.97268318621E+03  0.00000000000E+00 0. -1.
         22    1    1    2    0    0  0.62941944596E+03 -0.12562002631E+04  0.58279859635E+03  0.15211384368E+04  0.00000000000E+00 0.  1.
<mgrwt>
<rscale>  0 0.28385726E+04</rscale>
<asrwt>0</asrwt>
<pdfrwt beam="1">  1        2 0.16698103E+00 0.28385726E+04</pdfrwt>
<pdfrwt beam="2">  1       -2 0.28552634E+00 0.28385726E+04</pdfrwt>
<totfact> 0.75187177E-01</totfact>
</mgrwt>
</event>
<event>
 6    1  0.2436515E-005  0.1908387E+04  0.7818608E-02  0.8650693E-01
         -4   -1    0    0    0  501 -0.00000000000E+00  0.00000000000E+00  0.52772738729E+03  0.52772738729E+03  0.00000000000E+00 0. -1.
          4   -1    0    0  501    0  0.00000000000E+00 -0.00000000000E+00 -0.17252941660E+04  0.17252941660E+04  0.00000000000E+00 0.  1.
         23    2    1    2    0    0  0.93835005386E+03  0.63424490773E+02 -0.77443136298E+03  0.12217276720E+04  0.91384237554E+02 0.  0.
         13    1    3    3    0    0  0.56084149009E+03 -0.65601962352E+01 -0.45099855233E+03  0.71971237824E+03  0.00000000000E+00 0. -1.
        -13    1    3    3    0    0  0.37750856376E+03  0.69984687008E+02 -0.32343281065E+03  0.50201529373E+03  0.00000000000E+00 0.  1.
         22    1    1    2    0    0 -0.93835005386E+03 -0.63424490773E+02 -0.42313541573E+03  0.10312938813E+04  0.00000000000E+00 0.  1.
<mgrwt>
<rscale>  0 0.19083867E+04</rscale>
<asrwt>0</asrwt>
<pdfrwt beam="1">  1        4 0.26542987E+00 0.19083867E+04</pdfrwt>
<pdfrwt beam="2">  1       -4 0.81188829E-01 0.19083867E+04</pdfrwt>
<totfact> 0.12738482E-01</totfact>
</mgrwt>
</event>
<event>
 6    1  0.2436515E-005  0.2779281E+04  0.7818608E-02  0.8309730E-01
          2   -1    0    0  501    0  0.00000000000E+00  0.00000000000E+00  0.12794132874E+04  0.12794132874E+04  0.00000000000E+00 0.  1.
         -2   -1    0    0    0  501 -0.00000000000E+00 -0.00000000000E+00 -0.15093647125E+04  0.15093647125E+04  0.00000000000E+00 0. -1.
         23    2    1    2    0    0  0.20470980047E+03  0.29543884866E+03  0.12303395368E+04  0.12849030354E+04  0.89723011814E+02 0.  0.
         13    1    3    3    0    0  0.36373354578E+02  0.11096233597E+03  0.48406628520E+03  0.49795163359E+03  0.00000000000E+00 0.  1.
        -13    1    3    3    0    0  0.16833644590E+03  0.18447651268E+03  0.74627325156E+03  0.78695140177E+03  0.00000000000E+00 0. -1.
         22    1    1    2    0    0 -0.20470980047E+03 -0.29543884866E+03 -0.14602909618E+04  0.15038749645E+04  0.00000000000E+00 0. -1.
<mgrwt>
<rscale>  0 0.27792814E+04</rscale>
<asrwt>0</asrwt>
<pdfrwt beam="1">  1        2 0.19683281E+00 0.27792814E+04</pdfrwt>
<pdfrwt beam="2">  1       -2 0.23220996E+00 0.27792814E+04</pdfrwt>
<totfact> 0.12269602E+00</totfact>
</mgrwt>
</event>
<event>
 6    1  0.2436515E-005  0.2635874E+04  0.7818608E-02  0.8356117E-01
         -2   -1    0    0    0  501 -0.00000000000E+00  0.00000000000E+00  0.59933157887E+03  0.59933157887E+03  0.00000000000E+00 0. -1.
          2   -1    0    0  501    0  0.00000000000E+00 -0.00000000000E+00 -0.28981576678E+04  0.28981576678E+04  0.00000000000E+00 0.  1.
         23    2    1    2    0    0  0.97585140704E+03 -0.78782536984E+03 -0.62032912878E+03  0.14021833437E+04  0.91406341173E+02 0.  0.
         11    1    3    3    0    0  0.83085569942E+03 -0.64335313207E+03 -0.54774072110E+03  0.11850081617E+04  0.00000000000E+00 0.  1.
        -11    1    3    3    0    0  0.14499570762E+03 -0.14447223777E+03 -0.72588407683E+02  0.21717518193E+03  0.00000000000E+00 0. -1.
         22    1    1    2    0    0 -0.97585140704E+03  0.78782536984E+03 -0.16784969602E+04  0.20953059030E+04  0.00000000000E+00 0. -1.
<mgrwt>
<rscale>  0 0.26358736E+04</rscale>
<asrwt>0</asrwt>
<pdfrwt beam="1">  1        2 0.44587042E+00 0.26358736E+04</pdfrwt>
<pdfrwt beam="2">  1       -2 0.92204857E-01 0.26358736E+04</pdfrwt>
<totfact> 0.17747062E+00</totfact>
</mgrwt>
</event>
<event>
 6    1  0.2436515E-005  0.2218040E+04  0.7818608E-02  0.8510957E-01
          2   -1    0    0  501    0  0.00000000000E+00  0.00000000000E+00  0.17324950566E+04  0.17324950566E+04  0.00000000000E+00 0.  1.
         -2   -1    0    0    0  501 -0.00000000000E+00 -0.00000000000E+00 -0.70991560312E+03  0.70991560312E+03  0.00000000000E+00 0. -1.
         23    2    1    2    0    0  0.19615589300E+03  0.69539069625E+03  0.14358285317E+04  0.16100524703E+04  0.92844115112E+02 0.  0.
         13    1    3    3    0    0  0.23075947159E+02  0.20634078725E+03  0.35735377181E+03  0.41329255745E+03  0.00000000000E+00 0. -1.
        -13    1    3    3    0    0  0.17307994584E+03  0.48904990900E+03  0.10784747599E+04  0.11967599128E+04  0.00000000000E+00 0.  1.
         22    1    1    2    0    0 -0.19615589300E+03 -0.69539069625E+03 -0.41324907828E+03  0.83235818941E+03  0.00000000000E+00 0. -1.
<mgrwt>
<rscale>  0 0.22180399E+04</rscale>
<asrwt>0</asrwt>
<pdfrwt beam="1">  1        2 0.26653770E+00 0.22180399E+04</pdfrwt>
<pdfrwt beam="2">  1       -2 0.10921779E+00 0.22180399E+04</pdfrwt>
<totfact> 0.57396848E+00</totfact>
</mgrwt>
</event>
<event>
 6    1  0.2436515E-005  0.2228163E+04  0.7818608E-02  0.8506797E-01
         -2   -1    0    0    0  501 -0.00000000000E+00  0.00000000000E+00  0.12718448993E+04  0.12718448993E+04  0.00000000000E+00 0. -1.
          2   -1    0    0  501    0  0.00000000000E+00 -0.00000000000E+00 -0.97588756650E+03  0.97588756650E+03  0.00000000000E+00 0.  1.
         23    2    1    2    0    0  0.97100290331E+03  0.46310068235E+03 -0.13660942237E+03  0.10882399570E+04  0.91077931151E+02 0.  0.
         11    1    3    3    0    0  0.52179975389E+03  0.29262161598E+03 -0.98038430312E+02  0.60622926943E+03  0.00000000000E+00 0. -1.
        -11    1    3    3    0    0  0.44920314942E+03  0.17047906637E+03 -0.38570992058E+02  0.48201068759E+03  0.00000000000E+00 0.  1.
         22    1    1    2    0    0 -0.97100290331E+03 -0.46310068235E+03  0.43256675518E+03  0.11594925088E+04  0.00000000000E+00 0. -1.
<mgrwt>
<rscale>  0 0.22281630E+04</rscale>
<asrwt>0</asrwt>
<pdfrwt beam="1">  1        2 0.15013655E+00 0.22281630E+04</pdfrwt>
<pdfrwt beam="2">  1       -2 0.19566845E+00 0.22281630E+04</pdfrwt>
<totfact> 0.33816216E+00</totfact>
</mgrwt>
</event>
<event>
 6    1  0.2436515E-005  0.1718178E+04  0.7818608E-02  0.8751064E-01
         -2   -1    0    0    0  501 -0.00000000000E+00  0.00000000000E+00  0.14366104516E+04  0.14366104516E+04  0.00000000000E+00 0. -1.
          2   -1    0    0  501    0  0.00000000000E+00 -0.00000000000E+00 -0.51373284871E+03  0.51373284871E+03  0.00000000000E+00 0.  1.
         23    2    1    2    0    0 -0.44069945267E+02  0.63935880421E+03 -0.18263952520E+03  0.67249747194E+03  0.90409142264E+02 0.  0.
         11    1    3    3    0    0 -0.47914173304E+02  0.47348371836E+03 -0.96641712590E+02  0.48561530059E+03  0.00000000000E+00 0.  1.
        -11    1    3    3    0    0  0.38442280370E+01  0.16587508585E+03 -0.85997812607E+02  0.18688217135E+03  0.00000000000E+00 0. -1.
         22    1    1    2    0    0  0.44069945267E+02 -0.63935880421E+03  0.11055171281E+04  0.12778458284E+04  0.00000000000E+00 0. -1.
<mgrwt>
<rscale>  0 0.17181781E+04</rscale>
<asrwt>0</asrwt>
<pdfrwt beam="1">  1        2 0.79035823E-01 0.17181781E+04</pdfrwt>
<pdfrwt beam="2">  1       -2 0.22101699E+00 0.17181781E+04</pdfrwt>
<totfact> 0.55167228E+00</totfact>
</mgrwt>
</event>
<event>
 6    1  0.2436515E-005  0.4446120E+04  0.7818608E-02  0.7920138E-01
          1   -1    0    0  501    0  0.00000000000E+00  0.00000000000E+00  0.23233373540E+04  0.23233373540E+04  0.00000000000E+00 0.  1.
         -1   -1    0    0    0  501 -0.00000000000E+00 -0.00000000000E+00 -0.21271103273E+04  0.21271103273E+04  0.00000000000E+00 0. -1.
         23    2    1    2    0    0 -0.10726673472E+04  0.15044246523E+03 -0.18440246014E+04  0.21404964094E+04  0.89721653864E+02 0.  0.
         11    1    3    3    0    0 -0.64286811569E+03  0.50469984921E+02 -0.10553767357E+04  0.12367888615E+04  0.00000000000E+00 0. -1.
        -11    1    3    3    0    0 -0.42979923149E+03  0.99972480306E+02 -0.78864786565E+03  0.90370754794E+03  0.00000000000E+00 0.  1.
         22    1    1    2    0    0  0.10726673472E+04 -0.15044246523E+03  0.20402516280E+04  0.23099512719E+04  0.00000000000E+00 0.  1.
<mgrwt>
<rscale>  0 0.44461196E+04</rscale>
<asrwt>0</asrwt>
<pdfrwt beam="1">  1        1 0.35743651E+00 0.44461196E+04</pdfrwt>
<pdfrwt beam="2">  1       -1 0.32724774E+00 0.44461196E+04</pdfrwt>
<totfact> 0.29709118E-02</totfact>
</mgrwt>
</event>
<event>
 6    1  0.2436515E-005  0.4395334E+04  0.7818608E-02  0.7929221E-01
         -2   -1    0    0    0  501 -0.00000000000E+00  0.00000000000E+00  0.25793197044E+04  0.25793197044E+04  0.00000000000E+00 0. -1.
          2   -1    0    0  501    0  0.00000000000E+00 -0.00000000000E+00 -0.18724857968E+04  0.18724857968E+04  0.00000000000E+00 0.  1.
         23    2    1    2    0    0  0.14972204960E+04 -0.96613807023E+03 -0.94770473757E+03  0.20202236882E+04  0.89819243173E+02 0.  0.
         13    1    3    3    0    0  0.11250154274E+04 -0.70074751623E+03 -0.66686677647E+03  0.14837176587E+04  0.00000000000E+00 0. -1.
        -13    1    3    3    0    0  0.37220506867E+03 -0.26539055400E+03 -0.28083796111E+03  0.53650602950E+03  0.00000000000E+00 0.  1.
         22    1    1    2    0    0 -0.14972204960E+04  0.96613807023E+03  0.16545386452E+04  0.24315818129E+04  0.00000000000E+00 0. -1.
<mgrwt>
<rscale>  0 0.43953337E+04</rscale>
<asrwt>0</asrwt>
<pdfrwt beam="1">  1        2 0.28807474E+00 0.43953337E+04</pdfrwt>
<pdfrwt beam="2">  1       -2 0.39681842E+00 0.43953337E+04</pdfrwt>
<totfact> 0.46796099E-02</totfact>
</mgrwt>
</event>
<event>
 6    1  0.2436515E-005  0.8785535E+03  0.7818608E-02  0.9452795E-01
          2   -1    0    0  501    0  0.00000000000E+00  0.00000000000E+00  0.76259993027E+03  0.76259993027E+03  0.00000000000E+00 0.  1.
         -2   -1    0    0    0  501 -0.00000000000E+00 -0.00000000000E+00 -0.25303448322E+03  0.25303448322E+03  0.00000000000E+00 0. -1.
         23    2    1    2    0    0 -0.38593713875E+03  0.14670628583E+03  0.41430543612E+03  0.59190728544E+03  0.90747070394E+02 0.  0.
         11    1    3    3    0    0 -0.24620739012E+03  0.94156818240E+02  0.20070380239E+03  0.33130892180E+03  0.00000000000E+00 0.  1.
        -11    1    3    3    0    0 -0.13972974862E+03  0.52549467594E+02  0.21360163374E+03  0.26059836364E+03  0.00000000000E+00 0. -1.
         22    1    1    2    0    0  0.38593713875E+03 -0.14670628583E+03  0.95260010922E+02  0.42372712805E+03  0.00000000000E+00 0. -1.
<mgrwt>
<rscale>  0 0.87855354E+03</rscale>
<asrwt>0</asrwt>
<pdfrwt beam="1">  1        2 0.11732307E+00 0.87855354E+03</pdfrwt>
<pdfrwt beam="2">  1       -2 0.38928382E-01 0.87855354E+03</pdfrwt>
<totfact> 0.22954870E+02</totfact>
</mgrwt>
</event>
<event>
 6    1  0.2436515E-005  0.1599854E+04  0.7818608E-02  0.8820638E-01
          2   -1    0    0  501    0  0.00000000000E+00  0.00000000000E+00  0.84900386404E+03  0.84900386404E+03  0.00000000000E+00 0.  1.
         -2   -1    0    0    0  501 -0.00000000000E+00 -0.00000000000E+00 -0.75368707597E+03  0.75368707597E+03  0.00000000000E+00 0. -1.
         23    2    1    2    0    0  0.18091440471E+03  0.74508352907E+03 -0.17125803824E+03  0.79093874560E+03  0.91516646067E+02 0.  0.
         13    1    3    3    0    0  0.72874508677E+02  0.39894843776E+03 -0.13061043070E+03  0.42606294678E+03  0.00000000000E+00 0.  1.
        -13    1    3    3    0    0  0.10803989604E+03  0.34613509130E+03 -0.40647607544E+02  0.36487579882E+03  0.00000000000E+00 0. -1.
         22    1    1    2    0    0 -0.18091440471E+03 -0.74508352907E+03  0.26657482630E+03  0.81175219442E+03  0.00000000000E+00 0. -1.
<mgrwt>
<rscale>  0 0.15998540E+04</rscale>
<asrwt>0</asrwt>
<pdfrwt beam="1">  1        2 0.13061598E+00 0.15998540E+04</pdfrwt>
<pdfrwt beam="2">  1       -2 0.11595186E+00 0.15998540E+04</pdfrwt>
<totfact> 0.17616770E+01</totfact>
</mgrwt>
</event>
<event>
 6    1  0.2436515E-005  0.7676684E+03  0.7818608E-02  0.9608032E-01
         -2   -1    0    0    0  501 -0.00000000000E+00  0.00000000000E+00  0.59537326802E+02  0.59537326802E+02  0.00000000000E+00 0. -1.
          2   -1    0    0  501    0  0.00000000000E+00 -0.00000000000E+00 -0.24745603372E+04  0.24745603372E+04  0.00000000000E+00 0.  1.
         23    2    1    2    0    0  0.26232363084E+02  0.25440069046E+03 -0.21445623953E+04  0.21618654885E+04  0.95428898755E+02 0.  0.
         11    1    3    3    0    0  0.32496051657E+02  0.13004898434E+03 -0.14541943277E+04  0.14603595018E+04  0.00000000000E+00 0.  1.
        -11    1    3    3    0    0 -0.62636885732E+01  0.12435170612E+03 -0.69036806763E+03  0.70150598673E+03  0.00000000000E+00 0. -1.
         22    1    1    2    0    0 -0.26232363084E+02 -0.25440069046E+03 -0.27046061508E+03  0.37223217552E+03  0.00000000000E+00 0.  1.
<mgrwt>
<rscale>  0 0.76766844E+03</rscale>
<asrwt>0</asrwt>
<pdfrwt beam="1">  1        2 0.38070156E+00 0.76766844E+03</pdfrwt>
<pdfrwt beam="2">  1       -2 0.91595894E-02 0.76766844E+03</pdfrwt>
<totfact> 0.29513002E+02</totfact>
</mgrwt>
</event>
<event>
 6    1  0.2436515E-005  0.1145183E+04  0.7818608E-02  0.9162239E-01
         -1   -1    0    0    0  501 -0.00000000000E+00  0.00000000000E+00  0.25358771206E+03  0.25358771206E+03  0.00000000000E+00 0. -1.
          1   -1    0    0  501    0  0.00000000000E+00 -0.00000000000E+00 -0.12928904578E+04  0.12928904578E+04  0.00000000000E+00 0.  1.
         23    2    1    2    0    0  0.21237713330E+01 -0.53121429693E+03 -0.79938608181E+03  0.96359469495E+03  0.85460450999E+02 0.  0.
         13    1    3    3    0    0 -0.15926864571E+02 -0.29780373624E+03 -0.51633981029E+03  0.59627806435E+03  0.00000000000E+00 0. -1.
        -13    1    3    3    0    0  0.18050635904E+02 -0.23341056069E+03 -0.28304627153E+03  0.36731663061E+03  0.00000000000E+00 0.  1.
         22    1    1    2    0    0 -0.21237713330E+01  0.53121429693E+03 -0.23991666388E+03  0.58288347487E+03  0.00000000000E+00 0. -1.
<mgrwt>
<rscale>  0 0.11451832E+04</rscale>
<asrwt>0</asrwt>
<pdfrwt beam="1">  1        1 0.19890622E+00 0.11451832E+04</pdfrwt>
<pdfrwt beam="2">  1       -1 0.39013494E-01 0.11451832E+04</pdfrwt>
<totfact> 0.57939530E+01</totfact>
</mgrwt>
</event>
<event>
 6    1  0.2436515E-005  0.4852191E+04  0.7818608E-02  0.7851721E-01
          2   -1    0    0  501    0  0.00000000000E+00  0.00000000000E+00  0.31435123653E+04  0.31435123653E+04  0.00000000000E+00 0.  1.
         -2   -1    0    0    0  501 -0.00000000000E+00 -0.00000000000E+00 -0.18724088955E+04  0.18724088955E+04  0.00000000000E+00 0. -1.
         23    2    1    2    0    0  0.96866444581E+03  0.19192779510E+03  0.29256523954E+04  0.30890898633E+04  0.88809670120E+02 0.  0.
         13    1    3    3    0    0  0.41722733003E+03  0.63705112684E+02  0.11269403206E+04  0.12033833439E+04  0.00000000000E+00 0. -1.
        -13    1    3    3    0    0  0.55143711578E+03  0.12822268241E+03  0.17987120749E+04  0.18857065194E+04  0.00000000000E+00 0.  1.
         22    1    1    2    0    0 -0.96866444581E+03 -0.19192779510E+03 -0.16545489256E+04  0.19268313975E+04  0.00000000000E+00 0. -1.
<mgrwt>
<rscale>  0 0.48521915E+04</rscale>
<asrwt>0</asrwt>
<pdfrwt beam="1">  1        2 0.48361728E+00 0.48521915E+04</pdfrwt>
<pdfrwt beam="2">  1       -2 0.28806291E+00 0.48521915E+04</pdfrwt>
<totfact> 0.39048959E-02</totfact>
</mgrwt>
</event>
<event>
 6    1  0.2436515E-005  0.1862268E+04  0.7818608E-02  0.8673870E-01
         -2   -1    0    0    0  501 -0.00000000000E+00  0.00000000000E+00  0.80749016450E+03  0.80749016450E+03  0.00000000000E+00 0. -1.
          2   -1    0    0  501    0  0.00000000000E+00 -0.00000000000E+00 -0.10737099147E+04  0.10737099147E+04  0.00000000000E+00 0.  1.
         23    2    1    2    0    0 -0.52466071204E+03 -0.96614125355E+02  0.63486516108E+03  0.83403382244E+03  0.89193566199E+02 0.  0.
         13    1    3    3    0    0 -0.43624577777E+03 -0.64787680786E+02  0.56596197194E+03  0.71751012249E+03  0.00000000000E+00 0. -1.
        -13    1    3    3    0    0 -0.88414934264E+02 -0.31826444569E+02  0.68903189141E+02  0.11652369994E+03  0.00000000000E+00 0.  1.
         22    1    1    2    0    0  0.52466071204E+03  0.96614125355E+02 -0.90108491131E+03  0.10471662568E+04  0.00000000000E+00 0.  1.
<mgrwt>
<rscale>  0 0.18622676E+04</rscale>
<asrwt>0</asrwt>
<pdfrwt beam="1">  1        2 0.16518614E+00 0.18622676E+04</pdfrwt>
<pdfrwt beam="2">  1       -2 0.12422926E+00 0.18622676E+04</pdfrwt>
<totfact> 0.10349191E+01</totfact>
</mgrwt>
</event>
<event>
 6    1  0.2436515E-005  0.4962717E+04  0.7818608E-02  0.7834284E-01
          2   -1    0    0  501    0  0.00000000000E+00  0.00000000000E+00  0.25606906753E+04  0.25606906753E+04  0.00000000000E+00 0.  1.
         -2   -1    0    0    0  501 -0.00000000000E+00 -0.00000000000E+00 -0.24044842220E+04  0.24044842220E+04  0.00000000000E+00 0. -1.
         23    2    1    2    0    0 -0.85699318082E+03  0.13645262139E+03  0.24029870828E+04  0.25566318051E+04  0.94671203146E+02 0.  0.
         11    1    3    3    0    0 -0.62132668342E+03  0.10185409912E+03  0.16134568964E+04  0.17319538855E+04  0.00000000000E+00 0. -1.
        -11    1    3    3    0    0 -0.23566649740E+03  0.34598522273E+02  0.78953018644E+03  0.82467791958E+03  0.00000000000E+00 0.  1.
         22    1    1    2    0    0  0.85699318082E+03 -0.13645262139E+03 -0.22467806296E+04  0.24085430923E+04  0.00000000000E+00 0. -1.
<mgrwt>
<rscale>  0 0.49627171E+04</rscale>
<asrwt>0</asrwt>
<pdfrwt beam="1">  1        2 0.39395241E+00 0.49627171E+04</pdfrwt>
<pdfrwt beam="2">  1       -2 0.36992065E+00 0.49627171E+04</pdfrwt>
<totfact> 0.27241513E-02</totfact>
</mgrwt>
</event>
<event>
 6    1  0.2436515E-005  0.6029046E+04  0.7818608E-02  0.7686811E-01
          2   -1    0    0  501    0  0.00000000000E+00  0.00000000000E+00  0.34306652261E+04  0.34306652261E+04  0.00000000000E+00 0.  1.
         -2   -1    0    0    0  501 -0.00000000000E+00 -0.00000000000E+00 -0.26488593102E+04  0.26488593102E+04  0.00000000000E+00 0. -1.
         23    2    1    2    0    0  0.15318922139E+04  0.86139916579E+03 -0.20778570361E+04  0.27229824947E+04  0.91877779867E+02 0.  0.
         13    1    3    3    0    0  0.33428167318E+03  0.18952686388E+03 -0.51467303639E+03  0.64230289081E+03  0.00000000000E+00 0. -1.
        -13    1    3    3    0    0  0.11976105407E+04  0.67187230191E+03 -0.15631839997E+04  0.20806796039E+04  0.00000000000E+00 0.  1.
         22    1    1    2    0    0 -0.15318922139E+04 -0.86139916579E+03  0.28596629520E+04  0.33565420416E+04  0.00000000000E+00 0.  1.
<mgrwt>
<rscale>  0 0.60290462E+04</rscale>
<asrwt>0</asrwt>
<pdfrwt beam="1">  1        2 0.52779465E+00 0.60290462E+04</pdfrwt>
<pdfrwt beam="2">  1       -2 0.40751682E+00 0.60290462E+04</pdfrwt>
<totfact> 0.40414951E-03</totfact>
</mgrwt>
</event>
<event>
 6    1  0.2436515E-005  0.1801454E+04  0.7818608E-02  0.8705527E-01
          2   -1    0    0  501    0  0.00000000000E+00  0.00000000000E+00  0.55328105984E+03  0.55328105984E+03  0.00000000000E+00 0.  1.
         -2   -1    0    0    0  501 -0.00000000000E+00 -0.00000000000E+00 -0.14663600376E+04  0.14663600376E+04  0.00000000000E+00 0. -1.
         23    2    1    2    0    0  0.38431399085E+03 -0.62175189300E+03 -0.10433311616E+04  0.12771868622E+04  0.91617182483E+02 0.  0.
         13    1    3    3    0    0  0.45020104350E+02 -0.30072757100E+02 -0.89074435961E+02  0.10423740047E+03  0.00000000000E+00 0. -1.
        -13    1    3    3    0    0  0.33929388650E+03 -0.59167913590E+03 -0.95425672563E+03  0.11729494617E+04  0.00000000000E+00 0.  1.
         22    1    1    2    0    0 -0.38431399085E+03  0.62175189300E+03  0.13025218388E+03  0.74245423523E+03  0.00000000000E+00 0.  1.
<mgrwt>
<rscale>  0 0.18014541E+04</rscale>
<asrwt>0</asrwt>
<pdfrwt beam="1">  1        2 0.85120165E-01 0.18014541E+04</pdfrwt>
<pdfrwt beam="2">  1       -2 0.22559385E+00 0.18014541E+04</pdfrwt>
<totfact> 0.46988680E+00</totfact>
</mgrwt>
</event>
<event>
 6    1  0.2436515E-005  0.1365603E+04  0.7818608E-02  0.8979100E-01
          2   -1    0    0  501    0  0.00000000000E+00  0.00000000000E+00  0.59135672246E+03  0.59135672246E+03  0.00000000000E+00 0.  1.
         -2   -1    0    0    0  501 -0.00000000000E+00 -0.00000000000E+00 -0.78838647329E+03  0.78838647329E+03  0.00000000000E+00 0. -1.
         23    2    1    2    0    0  0.15911085755E+03  0.37098392559E+03  0.45363390540E+03  0.61403533267E+03  0.91161020163E+02 0.  0.
         13    1    3    3    0    0  0.19878444957E+02  0.39980369711E+02  0.14874677167E+02  0.47062071321E+02  0.00000000000E+00 0.  1.
        -13    1    3    3    0    0  0.13923241260E+03  0.33100355588E+03  0.43875922824E+03  0.56697326135E+03  0.00000000000E+00 0. -1.
         22    1    1    2    0    0 -0.15911085755E+03 -0.37098392559E+03 -0.65066365623E+03  0.76570786308E+03  0.00000000000E+00 0. -1.
<mgrwt>
<rscale>  0 0.13656026E+04</rscale>
<asrwt>0</asrwt>
<pdfrwt beam="1">  1        2 0.90977958E-01 0.13656026E+04</pdfrwt>
<pdfrwt beam="2">  1       -2 0.12129023E+00 0.13656026E+04</pdfrwt>
<totfact> 0.25457163E+01</totfact>
</mgrwt>
</event>
<event>
 6    1  0.2436515E-005  0.2062838E+04  0.7818608E-02  0.8577793E-01
          2   -1    0    0  501    0  0.00000000000E+00  0.00000000000E+00  0.18426312473E+04  0.18426312473E+04  0.00000000000E+00 0.  1.
         -2   -1    0    0    0  501 -0.00000000000E+00 -0.00000000000E+00 -0.57733996826E+03  0.57733996826E+03  0.00000000000E+00 0. -1.
         23    2    1    2    0    0 -0.51325127946E+03 -0.50629234854E+03 -0.22824187356E+03  0.76153819129E+03  0.89929115957E+02 0.  0.
         11    1    3    3    0    0 -0.33554744526E+03 -0.38799743432E+03 -0.15577767475E+03  0.53609773457E+03  0.00000000000E+00 0. -1.
        -11    1    3    3    0    0 -0.17770383420E+03 -0.11829491422E+03 -0.72464198806E+02  0.22544045672E+03  0.00000000000E+00 0.  1.
         22    1    1    2    0    0  0.51325127946E+03  0.50629234854E+03  0.14935331526E+04  0.16584330243E+04  0.00000000000E+00 0.  1.
<mgrwt>
<rscale>  0 0.20628375E+04</rscale>
<asrwt>0</asrwt>
<pdfrwt beam="1">  1        2 0.28348173E+00 0.20628375E+04</pdfrwt>
<pdfrwt beam="2">  1       -2 0.88821534E-01 0.20628375E+04</pdfrwt>
<totfact> 0.82279558E+00</totfact>
</mgrwt>
</event>
<event>
 6    1  0.2436515E-005  0.1346358E+04  0.7818608E-02  0.8993590E-01
         -2   -1    0    0    0  501 -0.00000000000E+00  0.00000000000E+00  0.79543902941E+03  0.79543902941E+03  0.00000000000E+00 0. -1.
          2   -1    0    0  501    0  0.00000000000E+00 -0.00000000000E+00 -0.56971060573E+03  0.56971060573E+03  0.00000000000E+00 0.  1.
         23    2    1    2    0    0  0.52030893113E+01 -0.18335755750E+03  0.76679618652E+03  0.79383414435E+03  0.92461835676E+02 0.  0.
         11    1    3    3    0    0 -0.11957796032E+02 -0.45998449529E+02  0.38104534500E+03  0.38399791821E+03  0.00000000000E+00 0. -1.
        -11    1    3    3    0    0  0.17160885343E+02 -0.13735910797E+03  0.38575084151E+03  0.40983622614E+03  0.00000000000E+00 0.  1.
         22    1    1    2    0    0 -0.52030893113E+01  0.18335755750E+03 -0.54106776284E+03  0.57131549078E+03  0.00000000000E+00 0.  1.
<mgrwt>
<rscale>  0 0.13463581E+04</rscale>
<asrwt>0</asrwt>
<pdfrwt beam="1">  1        2 0.87647785E-01 0.13463581E+04</pdfrwt>
<pdfrwt beam="2">  1       -2 0.12237524E+00 0.13463581E+04</pdfrwt>
<totfact> 0.26073105E+01</totfact>
</mgrwt>
</event>
<event>
 6    1  0.2436515E-005  0.2507237E+04  0.7818608E-02  0.8400412E-01
         -2   -1    0    0    0  501 -0.00000000000E+00  0.00000000000E+00  0.13524976801E+04  0.13524976801E+04  0.00000000000E+00 0. -1.
          2   -1    0    0  501    0  0.00000000000E+00 -0.00000000000E+00 -0.11619683073E+04  0.11619683073E+04  0.00000000000E+00 0.  1.
         23    2    1    2    0    0  0.77506406195E+03  0.82589272756E+03  0.63194630316E+03  0.12988706584E+04  0.69898209728E+02 0.  0.
         13    1    3    3    0    0  0.66215275695E+03  0.66835018426E+03  0.53130339873E+03  0.10804728335E+04  0.00000000000E+00 0. -1.
        -13    1    3    3    0    0  0.11291130500E+03  0.15754254330E+03  0.10064290443E+03  0.21839782499E+03  0.00000000000E+00 0.  1.
         22    1    1    2    0    0 -0.77506406195E+03 -0.82589272756E+03 -0.44141693037E+03  0.12155953290E+04  0.00000000000E+00 0. -1.
<mgrwt>
<rscale>  0 0.25072371E+04</rscale>
<asrwt>0</asrwt>
<pdfrwt beam="1">  1        2 0.17876436E+00 0.25072371E+04</pdfrwt>
<pdfrwt beam="2">  1       -2 0.20807657E+00 0.25072371E+04</pdfrwt>
<totfact> 0.20967689E+00</totfact>
</mgrwt>
</event>
<event>
 6    1  0.2436515E-005  0.2717603E+04  0.7818608E-02  0.8329316E-01
         -2   -1    0    0    0  501 -0.00000000000E+00  0.00000000000E+00  0.43050972760E+03  0.43050972760E+03  0.00000000000E+00 0. -1.
          2   -1    0    0  501    0  0.00000000000E+00 -0.00000000000E+00 -0.42887349055E+04  0.42887349055E+04  0.00000000000E+00 0.  1.
         23    2    1    2    0    0  0.67208259197E+03 -0.21141507296E+03  0.83257168450E+02  0.71528728691E+03  0.91174575425E+02 0.  0.
         13    1    3    3    0    0  0.57438449356E+03 -0.14545888378E+03  0.66947064567E+02  0.59628662803E+03  0.00000000000E+00 0. -1.
        -13    1    3    3    0    0  0.97698098416E+02 -0.65956189178E+02  0.16310103883E+02  0.11900065888E+03  0.00000000000E+00 0.  1.
         22    1    1    2    0    0 -0.67208259197E+03  0.21141507296E+03 -0.39414823464E+04  0.40039573462E+04  0.00000000000E+00 0.  1.
<mgrwt>
<rscale>  0 0.27176034E+04</rscale>
<asrwt>0</asrwt>
<pdfrwt beam="1">  1        2 0.65980538E+00 0.27176034E+04</pdfrwt>
<pdfrwt beam="2">  1       -2 0.66232265E-01 0.27176034E+04</pdfrwt>
<totfact> 0.35730662E-01</totfact>
</mgrwt>
</event>
<event>
 6    1  0.2436515E-005  0.4065941E+04  0.7818608E-02  0.7991375E-01
         -2   -1    0    0    0  501 -0.00000000000E+00  0.00000000000E+00  0.38398048770E+04  0.38398048770E+04  0.00000000000E+00 0. -1.
          2   -1    0    0  501    0  0.00000000000E+00 -0.00000000000E+00 -0.10763485191E+04  0.10763485191E+04  0.00000000000E+00 0.  1.
         23    2    1    2    0    0 -0.11323082909E+03 -0.17838958994E+04  0.25506092616E+04  0.31160395978E+04  0.94812283055E+02 0.  0.
         11    1    3    3    0    0 -0.15260447707E+02 -0.25255777291E+03  0.30599784415E+03  0.39705539984E+03  0.00000000000E+00 0. -1.
        -11    1    3    3    0    0 -0.97970381385E+02 -0.15313381265E+04  0.22446114175E+04  0.27189841980E+04  0.00000000000E+00 0.  1.
         22    1    1    2    0    0  0.11323082909E+03  0.17838958994E+04  0.21284709618E+03  0.18001137983E+04  0.00000000000E+00 0.  1.
<mgrwt>
<rscale>  0 0.40659406E+04</rscale>
<asrwt>0</asrwt>
<pdfrwt beam="1">  1        2 0.16559208E+00 0.40659406E+04</pdfrwt>
<pdfrwt beam="2">  1       -2 0.59073920E+00 0.40659406E+04</pdfrwt>
<totfact> 0.97816333E-03</totfact>
</mgrwt>
</event>
<event>
 6    1  0.2537470E-005  0.3865545E+04  0.7818608E-02  0.8032234E-01
          2   -1    0    0  501    0  0.00000000000E+00  0.00000000000E+00  0.27059999451E+04  0.27059999451E+04  0.00000000000E+00 0.  1.
         -2   -1    0    0    0  501 -0.00000000000E+00 -0.00000000000E+00 -0.13804913423E+04  0.13804913423E+04  0.00000000000E+00 0. -1.
         23    2    1    2    0    0  0.18848135987E+04 -0.34542907130E+03  0.92243119747E+03  0.21283506030E+04  0.84577950817E+02 0.  0.
         13    1    3    3    0    0  0.55944999512E+03 -0.80341093370E+02  0.23695329415E+03  0.61285059512E+03  0.00000000000E+00 0.  1.
        -13    1    3    3    0    0  0.13253636036E+04 -0.26508797793E+03  0.68547790332E+03  0.15155000079E+04  0.00000000000E+00 0. -1.
         22    1    1    2    0    0 -0.18848135987E+04  0.34542907130E+03  0.40307740528E+03  0.19581406844E+04  0.00000000000E+00 0.  1.
<mgrwt>
<rscale>  0 0.38655450E+04</rscale>
<asrwt>0</asrwt>
<pdfrwt beam="1">  1        2 0.41630768E+00 0.38655450E+04</pdfrwt>
<pdfrwt beam="2">  1       -2 0.21238329E+00 0.38655450E+04</pdfrwt>
<totfact> 0.23213070E-01</totfact>
</mgrwt>
</event>
<event>
 6    1  0.2436515E-005  0.2595630E+04  0.7818608E-02  0.8369687E-01
          2   -1    0    0  501    0  0.00000000000E+00  0.00000000000E+00  0.22832418767E+04  0.22832418767E+04  0.00000000000E+00 0.  1.
         -2   -1    0    0    0  501 -0.00000000000E+00 -0.00000000000E+00 -0.73768979150E+03  0.73768979150E+03  0.00000000000E+00 0. -1.
         23    2    1    2    0    0 -0.80180871617E+03  0.92297392552E+03  0.27207205063E+03  0.12555621650E+04  0.87378858051E+02 0.  0.
         13    1    3    3    0    0 -0.44562797809E+03  0.45125902070E+03  0.12403438644E+03  0.64622250629E+03  0.00000000000E+00 0.  1.
        -13    1    3    3    0    0 -0.35618073808E+03  0.47171490482E+03  0.14803766420E+03  0.60933965867E+03  0.00000000000E+00 0. -1.
         22    1    1    2    0    0  0.80180871617E+03 -0.92297392552E+03  0.12734800346E+04  0.17653695033E+04  0.00000000000E+00 0.  1.
<mgrwt>
<rscale>  0 0.25956303E+04</rscale>
<asrwt>0</asrwt>
<pdfrwt beam="1">  1        2 0.35126798E+00 0.25956303E+04</pdfrwt>
<pdfrwt beam="2">  1       -2 0.11349074E+00 0.25956303E+04</pdfrwt>
<totfact> 0.24967202E+00</totfact>
</mgrwt>
</event>
<event>
 6    1  0.2436515E-005  0.4326405E+04  0.7818608E-02  0.7941753E-01
          2   -1    0    0  501    0  0.00000000000E+00  0.00000000000E+00  0.22120843172E+04  0.22120843172E+04  0.00000000000E+00 0.  1.
         -2   -1    0    0    0  501 -0.00000000000E+00 -0.00000000000E+00 -0.21154012217E+04  0.21154012217E+04  0.00000000000E+00 0. -1.
         23    2    1    2    0    0  0.48766715106E+03  0.17952137987E+04 -0.10539824082E+04  0.21401028714E+04  0.92463776986E+02 0.  0.
         13    1    3    3    0    0  0.13137454221E+03  0.36358548432E+03 -0.24249398648E+03  0.45635184697E+03  0.00000000000E+00 0.  1.
        -13    1    3    3    0    0  0.35629260885E+03  0.14316283144E+04 -0.81148842171E+03  0.16837510244E+04  0.00000000000E+00 0. -1.
         22    1    1    2    0    0 -0.48766715106E+03 -0.17952137987E+04  0.11506655037E+04  0.21873826676E+04  0.00000000000E+00 0.  1.
<mgrwt>
<rscale>  0 0.43264054E+04</rscale>
<asrwt>0</asrwt>
<pdfrwt beam="1">  1        2 0.34032066E+00 0.43264054E+04</pdfrwt>
<pdfrwt beam="2">  1       -2 0.32544634E+00 0.43264054E+04</pdfrwt>
<totfact> 0.86540575E-02</totfact>
</mgrwt>
</event>
<event>
 6    1  0.2436515E-005  0.5549691E+03  0.7818608E-02  0.1000350E+00
         -2   -1    0    0    0  501 -0.00000000000E+00  0.00000000000E+00  0.79954863090E+02  0.79954863090E+02  0.00000000000E+00 0. -1.
          2   -1    0    0  501    0  0.00000000000E+00 -0.00000000000E+00 -0.96301435030E+03  0.96301435030E+03  0.00000000000E+00 0.  1.
         23    2    1    2    0    0 -0.16814337976E+02 -0.20907309030E+02 -0.95843039190E+03  0.96296539594E+03  0.89407494827E+02 0.  0.
         11    1    3    3    0    0  0.34996440305E+02  0.43756792131E+01 -0.40949023817E+03  0.41100626827E+03  0.00000000000E+00 0. -1.
        -11    1    3    3    0    0 -0.51810778281E+02 -0.25282988243E+02 -0.54894015373E+03  0.55195912767E+03  0.00000000000E+00 0.  1.
         22    1    1    2    0    0  0.16814337976E+02  0.20907309030E+02  0.75370904690E+02  0.80003817448E+02  0.00000000000E+00 0. -1.
<mgrwt>
<rscale>  0 0.55496912E+03</rscale>
<asrwt>0</asrwt>
<pdfrwt beam="1">  1        2 0.14815605E+00 0.55496912E+03</pdfrwt>
<pdfrwt beam="2">  1       -2 0.12300748E-01 0.55496912E+03</pdfrwt>
<totfact> 0.13095328E+03</totfact>
</mgrwt>
</event>
<event>
 6    1  0.2436515E-005  0.1842367E+04  0.7818608E-02  0.8684088E-01
         -2   -1    0    0    0  501 -0.00000000000E+00  0.00000000000E+00  0.26863010511E+03  0.26863010511E+03  0.00000000000E+00 0. -1.
          2   -1    0    0  501    0  0.00000000000E+00 -0.00000000000E+00 -0.31589121265E+04  0.31589121265E+04  0.00000000000E+00 0.  1.
         23    2    1    2    0    0 -0.83412469200E+03 -0.32424511934E+03 -0.10617787144E+04  0.13917811349E+04  0.93711204770E+02 0.  0.
         11    1    3    3    0    0 -0.32300461083E+03 -0.17490828572E+03 -0.42995301425E+03  0.56549489961E+03  0.00000000000E+00 0.  1.
        -11    1    3    3    0    0 -0.51112008117E+03 -0.14933683361E+03 -0.63182570020E+03  0.82628623532E+03  0.00000000000E+00 0. -1.
         22    1    1    2    0    0  0.83412469200E+03  0.32424511934E+03 -0.18285033069E+04  0.20357610966E+04  0.00000000000E+00 0.  1.
<mgrwt>
<rscale>  0 0.18423668E+04</rscale>
<asrwt>0</asrwt>
<pdfrwt beam="1">  1        2 0.48598645E+00 0.18423668E+04</pdfrwt>
<pdfrwt beam="2">  1       -2 0.41327711E-01 0.18423668E+04</pdfrwt>
<totfact> 0.72297701E+00</totfact>
</mgrwt>
</event>
<event>
 6    1  0.2436515E-005  0.5287067E+03  0.7818608E-02  0.1006546E+00
          2   -1    0    0  501    0  0.00000000000E+00  0.00000000000E+00  0.80040106461E+03  0.80040106461E+03  0.00000000000E+00 0.  1.
         -2   -1    0    0    0  501 -0.00000000000E+00 -0.00000000000E+00 -0.87309597619E+02  0.87309597619E+02  0.00000000000E+00 0. -1.
         23    2    1    2    0    0  0.14383786316E+03  0.16663625255E+03  0.14653021780E+03  0.27988780923E+03  0.91701196752E+02 0.  0.
         11    1    3    3    0    0  0.44110805244E+02  0.63632853156E+02  0.37035683050E+01  0.77515285965E+02  0.00000000000E+00 0. -1.
        -11    1    3    3    0    0  0.99727057913E+02  0.10300339940E+03  0.14282664950E+03  0.20237252327E+03  0.00000000000E+00 0.  1.
         22    1    1    2    0    0 -0.14383786316E+03 -0.16663625255E+03  0.56656124918E+03  0.60782285299E+03  0.00000000000E+00 0.  1.
<mgrwt>
<rscale>  0 0.52870670E+03</rscale>
<asrwt>0</asrwt>
<pdfrwt beam="1">  1        2 0.12313862E+00 0.52870670E+03</pdfrwt>
<pdfrwt beam="2">  1       -2 0.13432246E-01 0.52870670E+03</pdfrwt>
<totfact> 0.14576009E+03</totfact>
</mgrwt>
</event>
<event>
 6    1  0.2436515E-005  0.2119195E+04  0.7818608E-02  0.8552835E-01
         -2   -1    0    0    0  501 -0.00000000000E+00  0.00000000000E+00  0.96914021590E+03  0.96914021590E+03  0.00000000000E+00 0. -1.
          2   -1    0    0  501    0  0.00000000000E+00 -0.00000000000E+00 -0.11584980439E+04  0.11584980439E+04  0.00000000000E+00 0.  1.
         23    2    1    2    0    0 -0.11535622716E+02 -0.73147982272E+03 -0.86169353731E+03  0.11340432178E+04  0.91337100332E+02 0.  0.
         13    1    3    3    0    0  0.36170321125E+01 -0.53202333942E+02 -0.10482096719E+03  0.11760529929E+03  0.00000000000E+00 0.  1.
        -13    1    3    3    0    0 -0.15152654828E+02 -0.67827748878E+03 -0.75687257011E+03  0.10164379185E+04  0.00000000000E+00 0. -1.
         22    1    1    2    0    0  0.11535622716E+02  0.73147982272E+03  0.67233570927E+03  0.99359504206E+03  0.00000000000E+00 0. -1.
<mgrwt>
<rscale>  0 0.21191952E+04</rscale>
<asrwt>0</asrwt>
<pdfrwt beam="1">  1        2 0.17823047E+00 0.21191952E+04</pdfrwt>
<pdfrwt beam="2">  1       -2 0.14909849E+00 0.21191952E+04</pdfrwt>
<totfact> 0.56203443E+00</totfact>
</mgrwt>
</event>
<event>
 6    1  0.2436515E-005  0.2511848E+04  0.7818608E-02  0.8398777E-01
         -2   -1    0    0    0  501 -0.00000000000E+00  0.00000000000E+00  0.53468408215E+03  0.53468408215E+03  0.00000000000E+00 0. -1.
          2   -1    0    0  501    0  0.00000000000E+00 -0.00000000000E+00 -0.29500513143E+04  0.29500513143E+04  0.00000000000E+00 0.  1.
         23    2    1    2    0    0  0.75625831102E+03  0.96926718557E+03 -0.15552794217E+04  0.19843499288E+04  0.85703267655E+02 0.  0.
         11    1    3    3    0    0  0.18424497189E+03  0.20872356247E+03 -0.40462476843E+03  0.49115469907E+03  0.00000000000E+00 0.  1.
        -11    1    3    3    0    0  0.57201333913E+03  0.76054362310E+03 -0.11506546533E+04  0.14931952297E+04  0.00000000000E+00 0. -1.
         22    1    1    2    0    0 -0.75625831102E+03 -0.96926718557E+03 -0.86008781041E+03  0.15003854677E+04  0.00000000000E+00 0. -1.
<mgrwt>
<rscale>  0 0.25118483E+04</rscale>
<asrwt>0</asrwt>
<pdfrwt beam="1">  1        2 0.45385405E+00 0.25118483E+04</pdfrwt>
<pdfrwt beam="2">  1       -2 0.82259090E-01 0.25118483E+04</pdfrwt>
<totfact> 0.21638798E+00</totfact>
</mgrwt>
</event>
<event>
 6    1  0.2436515E-005  0.2344866E+04  0.7818608E-02  0.8460438E-01
         -2   -1    0    0    0  501 -0.00000000000E+00  0.00000000000E+00  0.94759555258E+03  0.94759555258E+03  0.00000000000E+00 0. -1.
          2   -1    0    0  501    0  0.00000000000E+00 -0.00000000000E+00 -0.14506174193E+04  0.14506174193E+04  0.00000000000E+00 0.  1.
         23    2    1    2    0    0  0.19259482153E+03 -0.11452770624E+04 -0.40327825033E+03  0.12325796230E+04  0.88695349161E+02 0.  0.
         11    1    3    3    0    0  0.25815830208E+02 -0.45505651395E+02 -0.21058333392E+02  0.56397471605E+02  0.00000000000E+00 0. -1.
        -11    1    3    3    0    0  0.16677899132E+03 -0.10997714110E+04 -0.38221991694E+03  0.11761821514E+04  0.00000000000E+00 0.  1.
         22    1    1    2    0    0 -0.19259482153E+03  0.11452770624E+04 -0.99743616362E+02  0.11656333488E+04  0.00000000000E+00 0. -1.
<mgrwt>
<rscale>  0 0.23448656E+04</rscale>
<asrwt>0</asrwt>
<pdfrwt beam="1">  1        2 0.22317191E+00 0.23448656E+04</pdfrwt>
<pdfrwt beam="2">  1       -2 0.14578393E+00 0.23448656E+04</pdfrwt>
<totfact> 0.39517095E+00</totfact>
</mgrwt>
</event>
<event>
 6    1  0.2436515E-005  0.1906128E+04  0.7818608E-02  0.8651812E-01
          1   -1    0    0  501    0  0.00000000000E+00  0.00000000000E+00  0.15236717564E+04  0.15236717564E+04  0.00000000000E+00 0. -1.
         -1   -1    0    0    0  501 -0.00000000000E+00 -0.00000000000E+00 -0.59614586706E+03  0.59614586706E+03  0.00000000000E+00 0.  1.
         23    2    1    2    0    0  0.59605954736E+02 -0.64599330755E+03  0.12379745331E+04  0.14006246149E+04  0.91149021710E+02 0.  0.
         13    1    3    3    0    0 -0.11400520086E+02 -0.24920425953E+02  0.81906579344E+02  0.86369480881E+02  0.00000000000E+00 0. -1.
        -13    1    3    3    0    0  0.71006474822E+02 -0.62107288160E+03  0.11560679537E+04  0.13142551340E+04  0.00000000000E+00 0.  1.
         22    1    1    2    0    0 -0.59605954736E+02  0.64599330755E+03 -0.31044864368E+03  0.71919300859E+03  0.00000000000E+00 0.  1.
<mgrwt>
<rscale>  0 0.19061276E+04</rscale>
<asrwt>0</asrwt>
<pdfrwt beam="1">  1        1 0.23441104E+00 0.19061276E+04</pdfrwt>
<pdfrwt beam="2">  1       -1 0.91714749E-01 0.19061276E+04</pdfrwt>
<totfact> 0.68234830E+00</totfact>
</mgrwt>
</event>
<event>
 6    1  0.2436515E-005  0.1259134E+04  0.7818608E-02  0.9062615E-01
          2   -1    0    0  501    0  0.00000000000E+00  0.00000000000E+00  0.74207763973E+03  0.74207763973E+03  0.00000000000E+00 0.  1.
         -2   -1    0    0    0  501 -0.00000000000E+00 -0.00000000000E+00 -0.53411511342E+03  0.53411511342E+03  0.00000000000E+00 0. -1.
         23    2    1    2    0    0 -0.40259263772E+03  0.33491133951E+03 -0.24362745804E+03  0.58468718467E+03  0.90875345001E+02 0.  0.
         11    1    3    3    0    0 -0.22655757610E+03  0.13407427452E+03 -0.14048976827E+03  0.29839842721E+03  0.00000000000E+00 0. -1.
        -11    1    3    3    0    0 -0.17603506162E+03  0.20083706500E+03 -0.10313768977E+03  0.28628875745E+03  0.00000000000E+00 0.  1.
         22    1    1    2    0    0  0.40259263772E+03 -0.33491133951E+03  0.45158998435E+03  0.69150556848E+03  0.00000000000E+00 0.  1.
<mgrwt>
<rscale>  0 0.12591344E+04</rscale>
<asrwt>0</asrwt>
<pdfrwt beam="1">  1        2 0.11416579E+00 0.12591344E+04</pdfrwt>
<pdfrwt beam="2">  1       -2 0.82171556E-01 0.12591344E+04</pdfrwt>
<totfact> 0.48647333E+01</totfact>
</mgrwt>
</event>
<event>
 6    1  0.2436515E-005  0.6177016E+04  0.7818608E-02  0.7668833E-01
          2   -1    0    0  501    0  0.00000000000E+00  0.00000000000E+00  0.30707138882E+04  0.30707138882E+04  0.00000000000E+00 0.  1.
         -2   -1    0    0    0  501 -0.00000000000E+00 -0.00000000000E+00 -0.31064053225E+04  0.31064053225E+04  0.00000000000E+00 0. -1.
         23    2    1    2    0    0 -0.20147611211E+04 -0.42692188871E+03  0.22829335626E+04  0.30759022640E+04  0.88681519837E+02 0.  0.
         11    1    3    3    0    0 -0.16895600946E+03 -0.36661376247E+02  0.23014970815E+03  0.28785252787E+03  0.00000000000E+00 0.  1.
        -11    1    3    3    0    0 -0.18458051116E+04 -0.39026051246E+03  0.20527838545E+04  0.27880497361E+04  0.00000000000E+00 0. -1.
         22    1    1    2    0    0  0.20147611211E+04  0.42692188871E+03 -0.23186249969E+04  0.31012169467E+04  0.00000000000E+00 0. -1.
<mgrwt>
<rscale>  0 0.61770161E+04</rscale>
<asrwt>0</asrwt>
<pdfrwt beam="1">  1        2 0.47241752E+00 0.61770161E+04</pdfrwt>
<pdfrwt beam="2">  1       -2 0.47790851E+00 0.61770161E+04</pdfrwt>
<totfact> 0.23954469E-03</totfact>
</mgrwt>
</event>
<event>
 6    1  0.2436515E-005  0.1336160E+04  0.7818608E-02  0.9001372E-01
         -2   -1    0    0    0  501 -0.00000000000E+00  0.00000000000E+00  0.47289976472E+03  0.47289976472E+03  0.00000000000E+00 0. -1.
          2   -1    0    0  501    0  0.00000000000E+00 -0.00000000000E+00 -0.94381666331E+03  0.94381666331E+03  0.00000000000E+00 0.  1.
         23    2    1    2    0    0  0.46574472145E+03  0.47009614257E+03 -0.16809839662E+03  0.68897500833E+03  0.92309058805E+02 0.  0.
         13    1    3    3    0    0  0.89604142103E+02  0.53164248976E+02 -0.53002946318E+01  0.10432369230E+03  0.00000000000E+00 0.  1.
        -13    1    3    3    0    0  0.37614057935E+03  0.41693189359E+03 -0.16279810198E+03  0.58465131603E+03  0.00000000000E+00 0. -1.
         22    1    1    2    0    0 -0.46574472145E+03 -0.47009614257E+03 -0.30281850197E+03  0.72774141971E+03  0.00000000000E+00 0. -1.
<mgrwt>
<rscale>  0 0.13361597E+04</rscale>
<asrwt>0</asrwt>
<pdfrwt beam="1">  1        2 0.14520256E+00 0.13361597E+04</pdfrwt>
<pdfrwt beam="2">  1       -2 0.72753810E-01 0.13361597E+04</pdfrwt>
<totfact> 0.45778836E+01</totfact>
</mgrwt>
</event>
<event>
 6    1  0.2436515E-005  0.3088577E+04  0.7818608E-02  0.8218880E-01
         -2   -1    0    0    0  501 -0.00000000000E+00  0.00000000000E+00  0.11990984855E+04  0.11990984855E+04  0.00000000000E+00 0. -1.
          2   -1    0    0  501    0  0.00000000000E+00 -0.00000000000E+00 -0.19888494833E+04  0.19888494833E+04  0.00000000000E+00 0.  1.
         23    2    1    2    0    0  0.14221656037E+04  0.25782599410E+03 -0.95250706351E+03  0.17334656607E+04  0.92759060646E+02 0.  0.
         13    1    3    3    0    0  0.16168005515E+03  0.19490641603E+02 -0.14187614771E+03  0.21598418144E+03  0.00000000000E+00 0. -1.
        -13    1    3    3    0    0  0.12604855486E+04  0.23833535250E+03 -0.81063091580E+03  0.15174814793E+04  0.00000000000E+00 0.  1.
         22    1    1    2    0    0 -0.14221656037E+04 -0.25782599410E+03  0.16275606569E+03  0.14544823081E+04  0.00000000000E+00 0.  1.
<mgrwt>
<rscale>  0 0.30885766E+04</rscale>
<asrwt>0</asrwt>
<pdfrwt beam="1">  1        2 0.30597684E+00 0.30885766E+04</pdfrwt>
<pdfrwt beam="2">  1       -2 0.18447669E+00 0.30885766E+04</pdfrwt>
<totfact> 0.97305771E-01</totfact>
</mgrwt>
</event>
<event>
 6    1  0.2436515E-005  0.1298412E+04  0.7818608E-02  0.9030825E-01
         -4   -1    0    0    0  501 -0.00000000000E+00  0.00000000000E+00  0.70902633422E+03  0.70902633422E+03  0.00000000000E+00 0.  1.
          4   -1    0    0  501    0  0.00000000000E+00 -0.00000000000E+00 -0.59443265976E+03  0.59443265976E+03  0.00000000000E+00 0. -1.
         23    2    1    2    0    0  0.21904258206E+03 -0.53277773844E+03 -0.23475783922E+03  0.62975412429E+03  0.98220378000E+02 0.  0.
         11    1    3    3    0    0  0.12256722210E+03 -0.24640454071E+03 -0.16045856561E+03  0.31856690490E+03  0.00000000000E+00 0. -1.
        -11    1    3    3    0    0  0.96475359963E+02 -0.28637319773E+03 -0.74299273606E+02  0.31118721939E+03  0.00000000000E+00 0.  1.
         22    1    1    2    0    0 -0.21904258206E+03  0.53277773844E+03  0.34935151368E+03  0.67370486969E+03  0.00000000000E+00 0. -1.
<mgrwt>
<rscale>  0 0.12984120E+04</rscale>
<asrwt>0</asrwt>
<pdfrwt beam="1">  1        4 0.91451179E-01 0.12984120E+04</pdfrwt>
<pdfrwt beam="2">  1       -4 0.10908097E+00 0.12984120E+04</pdfrwt>
<totfact> 0.13355866E+00</totfact>
</mgrwt>
</event>
<event>
 6    1  0.2436515E-005  0.1352759E+04  0.7818608E-02  0.8988742E-01
          2   -1    0    0  501    0  0.00000000000E+00  0.00000000000E+00  0.13635998342E+04  0.13635998342E+04  0.00000000000E+00 0.  1.
         -2   -1    0    0    0  501 -0.00000000000E+00 -0.00000000000E+00 -0.33550125807E+03  0.33550125807E+03  0.00000000000E+00 0. -1.
         23    2    1    2    0    0 -0.32271327355E+03  0.44616212588E+03  0.10029722299E+04  0.11478880365E+04  0.92136588772E+02 0.  0.
         13    1    3    3    0    0 -0.25225403185E+03  0.34128266869E+03  0.84515539799E+03  0.94572385150E+03  0.00000000000E+00 0.  1.
        -13    1    3    3    0    0 -0.70459241701E+02  0.10487945719E+03  0.15781683190E+03  0.20216418504E+03  0.00000000000E+00 0. -1.
         22    1    1    2    0    0  0.32271327355E+03 -0.44616212588E+03  0.25126346207E+02  0.55121305570E+03  0.00000000000E+00 0. -1.
<mgrwt>
<rscale>  0 0.13527593E+04</rscale>
<asrwt>0</asrwt>
<pdfrwt beam="1">  1        2 0.20978459E+00 0.13527593E+04</pdfrwt>
<pdfrwt beam="2">  1       -2 0.51615579E-01 0.13527593E+04</pdfrwt>
<totfact> 0.52565244E+01</totfact>
</mgrwt>
</event>
<event>
 6    1  0.2436515E-005  0.4914150E+04  0.7818608E-02  0.7841888E-01
         -2   -1    0    0    0  501 -0.00000000000E+00  0.00000000000E+00  0.17879571713E+04  0.17879571713E+04  0.00000000000E+00 0. -1.
          2   -1    0    0  501    0  0.00000000000E+00 -0.00000000000E+00 -0.33766010422E+04  0.33766010422E+04  0.00000000000E+00 0.  1.
         23    2    1    2    0    0  0.53105473599E+03  0.11329055202E+04  0.14267604663E+04  0.18998748649E+04  0.91569774183E+02 0.  0.
         13    1    3    3    0    0  0.27596886330E+03  0.50513734818E+03  0.61197476400E+03  0.84014026556E+03  0.00000000000E+00 0.  1.
        -13    1    3    3    0    0  0.25508587269E+03  0.62776817201E+03  0.81478570234E+03  0.10597345993E+04  0.00000000000E+00 0. -1.
         22    1    1    2    0    0 -0.53105473599E+03 -0.11329055202E+04 -0.30154043372E+04  0.32646833487E+04  0.00000000000E+00 0.  1.
<mgrwt>
<rscale>  0 0.49141502E+04</rscale>
<asrwt>0</asrwt>
<pdfrwt beam="1">  1        2 0.51947708E+00 0.49141502E+04</pdfrwt>
<pdfrwt beam="2">  1       -2 0.27507033E+00 0.49141502E+04</pdfrwt>
<totfact> 0.32670684E-02</totfact>
</mgrwt>
</event>
<event>
 6    1  0.2441791E-005  0.4626856E+04  0.7818608E-02  0.7888797E-01
          2   -1    0    0  501    0  0.00000000000E+00  0.00000000000E+00  0.23112240757E+04  0.23112240757E+04  0.00000000000E+00 0.  1.
         -2   -1    0    0    0  501 -0.00000000000E+00 -0.00000000000E+00 -0.23156338846E+04  0.23156338846E+04  0.00000000000E+00 0. -1.
         23    2    1    2    0    0  0.45565397391E+02 -0.18774482136E+04 -0.13516309576E+04  0.23156044424E+04  0.90717626385E+02 0.  0.
         11    1    3    3    0    0  0.17301653452E+02 -0.10648155996E+04 -0.71188079446E+03  0.12809784830E+04  0.00000000000E+00 0. -1.
        -11    1    3    3    0    0  0.28263743939E+02 -0.81263261402E+03 -0.63975016318E+03  0.10346259594E+04  0.00000000000E+00 0.  1.
         22    1    1    2    0    0 -0.45565397391E+02  0.18774482136E+04  0.13472211488E+04  0.23112535179E+04  0.00000000000E+00 0.  1.
<mgrwt>
<rscale>  0 0.46268559E+04</rscale>
<asrwt>0</asrwt>
<pdfrwt beam="1">  1        2 0.35557293E+00 0.46268559E+04</pdfrwt>
<pdfrwt beam="2">  1       -2 0.35625137E+00 0.46268559E+04</pdfrwt>
<totfact> 0.47596848E-02</totfact>
</mgrwt>
</event>
<event>
 6    1  0.2436515E-005  0.2603691E+04  0.7818608E-02  0.8366949E-01
          2   -1    0    0  501    0  0.00000000000E+00  0.00000000000E+00  0.15381325283E+04  0.15381325283E+04  0.00000000000E+00 0. -1.
         -2   -1    0    0    0  501 -0.00000000000E+00 -0.00000000000E+00 -0.11018564208E+04  0.11018564208E+04  0.00000000000E+00 0.  1.
         23    2    1    2    0    0 -0.52908126521E+03 -0.11694543916E+04  0.42927226841E+03  0.13564003807E+04  0.89424567043E+02 0.  0.
         11    1    3    3    0    0 -0.15960298343E+03 -0.26057469660E+03  0.10299313173E+03  0.32245909820E+03  0.00000000000E+00 0.  1.
        -11    1    3    3    0    0 -0.36947828178E+03 -0.90887969497E+03  0.32627913667E+03  0.10339412825E+04  0.00000000000E+00 0. -1.
         22    1    1    2    0    0  0.52908126521E+03  0.11694543916E+04  0.70038391450E+01  0.12835885684E+04  0.00000000000E+00 0. -1.
<mgrwt>
<rscale>  0 0.26036906E+04</rscale>
<asrwt>0</asrwt>
<pdfrwt beam="1">  1        2 0.23663578E+00 0.26036906E+04</pdfrwt>
<pdfrwt beam="2">  1       -2 0.16951637E+00 0.26036906E+04</pdfrwt>
<totfact> 0.22953269E+00</totfact>
</mgrwt>
</event>
<event>
 6    1  0.2436515E-005  0.5305769E+04  0.7818608E-02  0.7782996E-01
          2   -1    0    0  501    0  0.00000000000E+00  0.00000000000E+00  0.36926686950E+04  0.36926686950E+04  0.00000000000E+00 0.  1.
         -2   -1    0    0    0  501 -0.00000000000E+00 -0.00000000000E+00 -0.19058834297E+04  0.19058834297E+04  0.00000000000E+00 0. -1.
         23    2    1    2    0    0 -0.55762515951E+03  0.17143242106E+04  0.29462636503E+04  0.34551334902E+04  0.87319072456E+02 0.  0.
         11    1    3    3    0    0 -0.28424741629E+03  0.84015494152E+03  0.13683530611E+04  0.16306584619E+04  0.00000000000E+00 0. -1.
        -11    1    3    3    0    0 -0.27337774322E+03  0.87416926905E+03  0.15779105892E+04  0.18244750283E+04  0.00000000000E+00 0.  1.
         22    1    1    2    0    0  0.55762515951E+03 -0.17143242106E+04 -0.11594783850E+04  0.21434186345E+04  0.00000000000E+00 0. -1.
<mgrwt>
<rscale>  0 0.53057690E+04</rscale>
<asrwt>0</asrwt>
<pdfrwt beam="1">  1        2 0.56810287E+00 0.53057690E+04</pdfrwt>
<pdfrwt beam="2">  1       -2 0.29321284E+00 0.53057690E+04</pdfrwt>
<totfact> 0.14644502E-02</totfact>
</mgrwt>
</event>
<event>
 6    1  0.2436515E-005  0.2176402E+04  0.7818608E-02  0.8528315E-01
         -2   -1    0    0    0  501 -0.00000000000E+00  0.00000000000E+00  0.20111126396E+04  0.20111126396E+04  0.00000000000E+00 0. -1.
          2   -1    0    0  501    0  0.00000000000E+00 -0.00000000000E+00 -0.58881891470E+03  0.58881891470E+03  0.00000000000E+00 0.  1.
         23    2    1    2    0    0 -0.68441550310E+03 -0.80724536908E+03  0.10058751361E+04  0.14626215228E+04  0.86065455190E+02 0.  0.
         13    1    3    3    0    0 -0.44964656255E+03 -0.48053200645E+03  0.66053582615E+03  0.93241654751E+03  0.00000000000E+00 0. -1.
        -13    1    3    3    0    0 -0.23476894055E+03 -0.32671336263E+03  0.34533930997E+03  0.53020497525E+03  0.00000000000E+00 0.  1.
         22    1    1    2    0    0  0.68441550310E+03  0.80724536908E+03  0.41641858877E+03  0.11373100315E+04  0.00000000000E+00 0.  1.
<mgrwt>
<rscale>  0 0.21764018E+04</rscale>
<asrwt>0</asrwt>
<pdfrwt beam="1">  1        2 0.90587527E-01 0.21764018E+04</pdfrwt>
<pdfrwt beam="2">  1       -2 0.30940194E+00 0.21764018E+04</pdfrwt>
<totfact> 0.12941634E+00</totfact>
</mgrwt>
</event>
<event>
 6    1  0.2436515E-005  0.2932291E+04  0.7818608E-02  0.8263334E-01
         -1   -1    0    0    0  501 -0.00000000000E+00  0.00000000000E+00  0.58685037192E+03  0.58685037192E+03  0.00000000000E+00 0. -1.
          1   -1    0    0  501    0  0.00000000000E+00 -0.00000000000E+00 -0.36629142709E+04  0.36629142709E+04  0.00000000000E+00 0.  1.
         23    2    1    2    0    0 -0.33986526966E+03  0.83582376178E+03  0.13271049745E+03  0.91654654474E+03  0.91300220503E+02 0.  0.
         11    1    3    3    0    0 -0.20933501300E+03  0.40076403634E+03  0.50598305168E+02  0.45496499753E+03  0.00000000000E+00 0.  1.
        -11    1    3    3    0    0 -0.13053025666E+03  0.43505972544E+03  0.82112192277E+02  0.46158154721E+03  0.00000000000E+00 0. -1.
         22    1    1    2    0    0  0.33986526966E+03 -0.83582376178E+03 -0.32087743964E+04  0.33332180981E+04  0.00000000000E+00 0.  1.
<mgrwt>
<rscale>  0 0.29322910E+04</rscale>
<asrwt>0</asrwt>
<pdfrwt beam="1">  1        1 0.56352526E+00 0.29322910E+04</pdfrwt>
<pdfrwt beam="2">  1       -1 0.90284675E-01 0.29322910E+04</pdfrwt>
<totfact> 0.18984585E-01</totfact>
</mgrwt>
</event>
<event>
 6    1  0.2436515E-005  0.3349032E+04  0.7818608E-02  0.8150530E-01
          2   -1    0    0  501    0  0.00000000000E+00  0.00000000000E+00  0.17616484566E+04  0.17616484566E+04  0.00000000000E+00 0.  1.
         -2   -1    0    0    0  501 -0.00000000000E+00 -0.00000000000E+00 -0.15916934928E+04  0.15916934928E+04  0.00000000000E+00 0. -1.
         23    2    1    2    0    0  0.48752893398E+03 -0.47825060131E+03 -0.14443902673E+04  0.16004818226E+04  0.94184505108E+02 0.  0.
         13    1    3    3    0    0  0.21236577766E+03 -0.18869460105E+03 -0.49962134015E+03  0.57474025395E+03  0.00000000000E+00 0.  1.
        -13    1    3    3    0    0  0.27516315633E+03 -0.28955600026E+03 -0.94476892713E+03  0.10257415686E+04  0.00000000000E+00 0. -1.
         22    1    1    2    0    0 -0.48752893398E+03  0.47825060131E+03  0.16143452310E+04  0.17528601268E+04  0.00000000000E+00 0.  1.
<mgrwt>
<rscale>  0 0.33490323E+04</rscale>
<asrwt>0</asrwt>
<pdfrwt beam="1">  1        2 0.27102284E+00 0.33490323E+04</pdfrwt>
<pdfrwt beam="2">  1       -2 0.24487592E+00 0.33490323E+04</pdfrwt>
<totfact> 0.52103463E-01</totfact>
</mgrwt>
</event>
<event>
 6    1  0.2436515E-005  0.1755813E+04  0.7818608E-02  0.8730157E-01
         -2   -1    0    0    0  501 -0.00000000000E+00  0.00000000000E+00  0.43904236548E+03  0.43904236548E+03  0.00000000000E+00 0. -1.
          2   -1    0    0  501    0  0.00000000000E+00 -0.00000000000E+00 -0.17554565098E+04  0.17554565098E+04  0.00000000000E+00 0.  1.
         23    2    1    2    0    0 -0.43858188819E+03 -0.82242562669E+02  0.28157569435E+03  0.53537578272E+03  0.90688727594E+02 0.  0.
         11    1    3    3    0    0 -0.44000463007E+02 -0.48718833466E+01  0.65058277705E+02  0.78691521082E+02  0.00000000000E+00 0. -1.
        -11    1    3    3    0    0 -0.39458142518E+03 -0.77370679323E+02  0.21651741665E+03  0.45668426164E+03  0.00000000000E+00 0.  1.
         22    1    1    2    0    0  0.43858188819E+03  0.82242562669E+02 -0.15979898387E+04  0.16591230926E+04  0.00000000000E+00 0.  1.
<mgrwt>
<rscale>  0 0.17558129E+04</rscale>
<asrwt>0</asrwt>
<pdfrwt beam="1">  1        2 0.27007024E+00 0.17558129E+04</pdfrwt>
<pdfrwt beam="2">  1       -2 0.67544978E-01 0.17558129E+04</pdfrwt>
<totfact> 0.17386226E+01</totfact>
</mgrwt>
</event>
<event>
 6    1  0.2436515E-005  0.2406201E+04  0.7818608E-02  0.8437186E-01
          2   -1    0    0  501    0  0.00000000000E+00  0.00000000000E+00  0.15939071341E+04  0.15939071341E+04  0.00000000000E+00 0.  1.
         -2   -1    0    0    0  501 -0.00000000000E+00 -0.00000000000E+00 -0.90811470545E+03  0.90811470545E+03  0.00000000000E+00 0. -1.
         23    2    1    2    0    0  0.54550770177E+03 -0.50353010113E+03  0.13255315562E+04  0.15220282851E+04  0.91733191893E+02 0.  0.
         13    1    3    3    0    0  0.19146061076E+03 -0.12390128567E+03  0.43889025307E+03  0.49460423401E+03  0.00000000000E+00 0. -1.
        -13    1    3    3    0    0  0.35404709100E+03 -0.37962881546E+03  0.88664130317E+03  0.10274240510E+04  0.00000000000E+00 0.  1.
         22    1    1    2    0    0 -0.54550770177E+03  0.50353010113E+03 -0.63973912761E+03  0.97999355448E+03  0.00000000000E+00 0. -1.
<mgrwt>
<rscale>  0 0.24062007E+04</rscale>
<asrwt>0</asrwt>
<pdfrwt beam="1">  1        2 0.24521648E+00 0.24062007E+04</pdfrwt>
<pdfrwt beam="2">  1       -2 0.13970995E+00 0.24062007E+04</pdfrwt>
<totfact> 0.36485159E+00</totfact>
</mgrwt>
</event>
<event>
 6    1  0.2436515E-005  0.1821552E+04  0.7818608E-02  0.8694922E-01
          2   -1    0    0  501    0  0.00000000000E+00  0.00000000000E+00  0.33525538702E+04  0.33525538702E+04  0.00000000000E+00 0.  1.
         -2   -1    0    0    0  501 -0.00000000000E+00 -0.00000000000E+00 -0.24742713313E+03  0.24742713313E+03  0.00000000000E+00 0. -1.
         23    2    1    2    0    0  0.77571882353E+03  0.33271913696E+03  0.22205698582E+04  0.23773270911E+04  0.91169541603E+02 0.  0.
         11    1    3    3    0    0  0.18464332487E+03  0.40182846394E+02  0.52927084145E+03  0.56199238622E+03  0.00000000000E+00 0. -1.
        -11    1    3    3    0    0  0.59107549866E+03  0.29253629057E+03  0.16912990168E+04  0.18153347048E+04  0.00000000000E+00 0.  1.
         22    1    1    2    0    0 -0.77571882353E+03 -0.33271913696E+03  0.88455687884E+03  0.12226539123E+04  0.00000000000E+00 0.  1.
<mgrwt>
<rscale>  0 0.18215519E+04</rscale>
<asrwt>0</asrwt>
<pdfrwt beam="1">  1        2 0.51577749E+00 0.18215519E+04</pdfrwt>
<pdfrwt beam="2">  1       -2 0.38065715E-01 0.18215519E+04</pdfrwt>
<totfact> 0.63461025E+00</totfact>
</mgrwt>
</event>
<event>
 6    1  0.2436515E-005  0.7968091E+03  0.7818608E-02  0.9564647E-01
          2   -1    0    0  501    0  0.00000000000E+00  0.00000000000E+00  0.10959479076E+04  0.10959479076E+04  0.00000000000E+00 0.  1.
         -2   -1    0    0    0  501 -0.00000000000E+00 -0.00000000000E+00 -0.14483003242E+03  0.14483003242E+03  0.00000000000E+00 0. -1.
         23    2    1    2    0    0 -0.39091411790E+03 -0.35909795973E+02  0.44636892460E+03  0.60134470338E+03  0.90922353750E+02 0.  0.
         13    1    3    3    0    0 -0.33329672903E+03 -0.57572770693E+02  0.34788629163E+03  0.48520738393E+03  0.00000000000E+00 0.  1.
        -13    1    3    3    0    0 -0.57617388867E+02  0.21662974720E+02  0.98482632964E+02  0.11613731945E+03  0.00000000000E+00 0. -1.
         22    1    1    2    0    0  0.39091411790E+03  0.35909795973E+02  0.50474895061E+03  0.63943323667E+03  0.00000000000E+00 0.  1.
<mgrwt>
<rscale>  0 0.79680906E+03</rscale>
<asrwt>0</asrwt>
<pdfrwt beam="1">  1        2 0.16860737E+00 0.79680906E+03</pdfrwt>
<pdfrwt beam="2">  1       -2 0.22281544E-01 0.79680906E+03</pdfrwt>
<totfact> 0.38830575E+02</totfact>
</mgrwt>
</event>
<event>
 6    1  0.2436515E-005  0.8917796E+03  0.7818608E-02  0.9435916E-01
          2   -1    0    0  501    0  0.00000000000E+00  0.00000000000E+00  0.29931927348E+03  0.29931927348E+03  0.00000000000E+00 0.  1.
         -2   -1    0    0    0  501 -0.00000000000E+00 -0.00000000000E+00 -0.66423292311E+03  0.66423292311E+03  0.00000000000E+00 0. -1.
         23    2    1    2    0    0  0.67535636450E+02 -0.34990938795E+03  0.97441152031E+02  0.37979744964E+03  0.88054998010E+02 0.  0.
         13    1    3    3    0    0  0.68811830179E+02 -0.13362372077E+03  0.30280727626E+02  0.15332087004E+03  0.00000000000E+00 0. -1.
        -13    1    3    3    0    0 -0.12761937297E+01 -0.21628566718E+03  0.67160424405E+02  0.22647657960E+03  0.00000000000E+00 0.  1.
         22    1    1    2    0    0 -0.67535636450E+02  0.34990938795E+03 -0.46235480166E+03  0.58375474695E+03  0.00000000000E+00 0. -1.
<mgrwt>
<rscale>  0 0.89177960E+03</rscale>
<asrwt>0</asrwt>
<pdfrwt beam="1">  1        2 0.46049120E-01 0.89177960E+03</pdfrwt>
<pdfrwt beam="2">  1       -2 0.10218968E+00 0.89177960E+03</pdfrwt>
<totfact> 0.86661088E+01</totfact>
</mgrwt>
</event>
<event>
 6    1  0.2436515E-005  0.1104808E+04  0.7818608E-02  0.9200518E-01
         -2   -1    0    0    0  501 -0.00000000000E+00  0.00000000000E+00  0.16360819095E+03  0.16360819095E+03  0.00000000000E+00 0. -1.
          2   -1    0    0  501    0  0.00000000000E+00 -0.00000000000E+00 -0.18651289236E+04  0.18651289236E+04  0.00000000000E+00 0.  1.
         23    2    1    2    0    0  0.22051154480E+02 -0.22870289198E+03 -0.17714969426E+04  0.17885539841E+04  0.89065537615E+02 0.  0.
         13    1    3    3    0    0  0.50073141577E+02 -0.14363118052E+03 -0.93729082258E+03  0.94955322211E+03  0.00000000000E+00 0. -1.
        -13    1    3    3    0    0 -0.28021987098E+02 -0.85071711465E+02 -0.83420612003E+03  0.83900076195E+03  0.00000000000E+00 0.  1.
         22    1    1    2    0    0 -0.22051154480E+02  0.22870289198E+03  0.69976209962E+02  0.24018313050E+03  0.00000000000E+00 0. -1.
<mgrwt>
<rscale>  0 0.11048083E+04</rscale>
<asrwt>0</asrwt>
<pdfrwt beam="1">  1        2 0.28694293E+00 0.11048083E+04</pdfrwt>
<pdfrwt beam="2">  1       -2 0.25170489E-01 0.11048083E+04</pdfrwt>
<totfact> 0.11178071E+02</totfact>
</mgrwt>
</event>
<event>
 6    1  0.2436515E-005  0.1172241E+04  0.7818608E-02  0.9137507E-01
          4   -1    0    0  501    0  0.00000000000E+00  0.00000000000E+00  0.25970074742E+03  0.25970074742E+03  0.00000000000E+00 0.  1.
         -4   -1    0    0    0  501 -0.00000000000E+00 -0.00000000000E+00 -0.13228207075E+04  0.13228207075E+04  0.00000000000E+00 0. -1.
         23    2    1    2    0    0  0.35444376125E+03 -0.45883379979E+03 -0.46020552675E+03  0.74606186256E+03  0.93060948827E+02 0.  0.
         11    1    3    3    0    0  0.21922427265E+03 -0.27437367511E+03 -0.33485458445E+03  0.48525023239E+03  0.00000000000E+00 0. -1.
        -11    1    3    3    0    0  0.13521948860E+03 -0.18446012468E+03 -0.12535094230E+03  0.26081163017E+03  0.00000000000E+00 0.  1.
         22    1    1    2    0    0 -0.35444376125E+03  0.45883379979E+03 -0.60291443330E+03  0.83645959232E+03  0.00000000000E+00 0. -1.
<mgrwt>
<rscale>  0 0.11722415E+04</rscale>
<asrwt>0</asrwt>
<pdfrwt beam="1">  1        4 0.39953961E-01 0.11722415E+04</pdfrwt>
<pdfrwt beam="2">  1       -4 0.20351088E+00 0.11722415E+04</pdfrwt>
<totfact> 0.15064344E+00</totfact>
</mgrwt>
</event>
<event>
 6    1  0.2436515E-005  0.4079106E+04  0.7818608E-02  0.7988776E-01
         -2   -1    0    0    0  501 -0.00000000000E+00  0.00000000000E+00  0.14326466236E+04  0.14326466236E+04  0.00000000000E+00 0.  1.
          2   -1    0    0  501    0  0.00000000000E+00 -0.00000000000E+00 -0.29035607047E+04  0.29035607047E+04  0.00000000000E+00 0. -1.
         23    2    1    2    0    0  0.17911053167E+04 -0.52587235468E+03  0.13496791865E+03  0.18737985511E+04  0.91130028279E+02 0.  0.
         11    1    3    3    0    0  0.78274651755E+03 -0.27692044969E+03  0.57202134171E+02  0.83225544777E+03  0.00000000000E+00 0.  1.
        -11    1    3    3    0    0  0.10083587992E+04 -0.24895190499E+03  0.77765784482E+02  0.10415431033E+04  0.00000000000E+00 0. -1.
         22    1    1    2    0    0 -0.17911053167E+04  0.52587235468E+03 -0.16058819997E+04  0.24624087772E+04  0.00000000000E+00 0. -1.
<mgrwt>
<rscale>  0 0.40791060E+04</rscale>
<asrwt>0</asrwt>
<pdfrwt beam="1">  1        2 0.44670164E+00 0.40791060E+04</pdfrwt>
<pdfrwt beam="2">  1       -2 0.22040717E+00 0.40791060E+04</pdfrwt>
<totfact> 0.15388334E-01</totfact>
</mgrwt>
</event>
<event>
 6    1  0.2436515E-005  0.1626709E+04  0.7818608E-02  0.8804305E-01
         -2   -1    0    0    0  501 -0.00000000000E+00  0.00000000000E+00  0.33223057167E+03  0.33223057167E+03  0.00000000000E+00 0. -1.
          2   -1    0    0  501    0  0.00000000000E+00 -0.00000000000E+00 -0.19912246672E+04  0.19912246672E+04  0.00000000000E+00 0.  1.
         23    2    1    2    0    0 -0.34918502905E+03  0.56666200253E+03 -0.17075362261E+03  0.69314983349E+03  0.90905898668E+02 0.  0.
         13    1    3    3    0    0 -0.24971718429E+03  0.45623507815E+03 -0.15991884391E+03  0.54413523623E+03  0.00000000000E+00 0. -1.
        -13    1    3    3    0    0 -0.99467844763E+02  0.11042692438E+03 -0.10834778703E+02  0.14901459727E+03  0.00000000000E+00 0.  1.
         22    1    1    2    0    0  0.34918502905E+03 -0.56666200253E+03 -0.14882404730E+04  0.16303054054E+04  0.00000000000E+00 0.  1.
<mgrwt>
<rscale>  0 0.16267092E+04</rscale>
<asrwt>0</asrwt>
<pdfrwt beam="1">  1        2 0.30634226E+00 0.16267092E+04</pdfrwt>
<pdfrwt beam="2">  1       -2 0.51112396E-01 0.16267092E+04</pdfrwt>
<totfact> 0.23395285E+01</totfact>
</mgrwt>
</event>
<event>
 6    1  0.2436515E-005  0.1734387E+04  0.7818608E-02  0.8741992E-01
         -2   -1    0    0    0  501 -0.00000000000E+00  0.00000000000E+00  0.40224528406E+03  0.40224528406E+03  0.00000000000E+00 0. -1.
          2   -1    0    0  501    0  0.00000000000E+00 -0.00000000000E+00 -0.18695664693E+04  0.18695664693E+04  0.00000000000E+00 0.  1.
         23    2    1    2    0    0 -0.18834098841E+03 -0.68963149504E+03 -0.13729884791E+04  0.15507274405E+04  0.92705469745E+02 0.  0.
         13    1    3    3    0    0 -0.70852684130E+02 -0.21548456098E+03 -0.34973689181E+03  0.41685680078E+03  0.00000000000E+00 0. -1.
        -13    1    3    3    0    0 -0.11748830428E+03 -0.47414693407E+03 -0.10232515872E+04  0.11338706397E+04  0.00000000000E+00 0.  1.
         22    1    1    2    0    0  0.18834098841E+03  0.68963149504E+03 -0.94332706196E+02  0.72108431291E+03  0.00000000000E+00 0. -1.
<mgrwt>
<rscale>  0 0.17343867E+04</rscale>
<asrwt>0</asrwt>
<pdfrwt beam="1">  1        2 0.28762562E+00 0.17343867E+04</pdfrwt>
<pdfrwt beam="2">  1       -2 0.61883888E-01 0.17343867E+04</pdfrwt>
<totfact> 0.18169466E+01</totfact>
</mgrwt>
</event>
<event>
 6    1  0.2436515E-005  0.2745487E+04  0.7818608E-02  0.8320395E-01
         -2   -1    0    0    0  501 -0.00000000000E+00  0.00000000000E+00  0.13726268744E+04  0.13726268744E+04  0.00000000000E+00 0. -1.
          2   -1    0    0  501    0  0.00000000000E+00 -0.00000000000E+00 -0.13728597361E+04  0.13728597361E+04  0.00000000000E+00 0.  1.
         23    2    1    2    0    0  0.10247089610E+04  0.86048428016E+03 -0.29961993509E+03  0.13743213138E+04  0.92332642725E+02 0.  0.
         13    1    3    3    0    0  0.52399615526E+03  0.49612267628E+03 -0.17816395282E+03  0.74327119865E+03  0.00000000000E+00 0. -1.
        -13    1    3    3    0    0  0.50071280574E+03  0.36436160387E+03 -0.12145598227E+03  0.63105011516E+03  0.00000000000E+00 0.  1.
         22    1    1    2    0    0 -0.10247089610E+04 -0.86048428016E+03  0.29938707338E+03  0.13711652967E+04  0.00000000000E+00 0. -1.
<mgrwt>
<rscale>  0 0.27454866E+04</rscale>
<asrwt>0</asrwt>
<pdfrwt beam="1">  1        2 0.21120919E+00 0.27454866E+04</pdfrwt>
<pdfrwt beam="2">  1       -2 0.21117337E+00 0.27454866E+04</pdfrwt>
<totfact> 0.14754313E+00</totfact>
</mgrwt>
</event>
<event>
 6    1  0.2436515E-005  0.1141281E+04  0.7818608E-02  0.9165865E-01
         -2   -1    0    0    0  501 -0.00000000000E+00  0.00000000000E+00  0.55853036547E+03  0.55853036547E+03  0.00000000000E+00 0. -1.
          2   -1    0    0  501    0  0.00000000000E+00 -0.00000000000E+00 -0.58301311476E+03  0.58301311476E+03  0.00000000000E+00 0.  1.
         23    2    1    2    0    0  0.15171357082E+03  0.13792953695E+03 -0.54125411060E+03  0.58558106729E+03  0.88924740072E+02 0.  0.
         13    1    3    3    0    0  0.96060635518E+02  0.95814148050E+02 -0.45404829096E+03  0.47388590102E+03  0.00000000000E+00 0.  1.
        -13    1    3    3    0    0  0.55652935299E+02  0.42115388895E+02 -0.87205819642E+02  0.11169516627E+03  0.00000000000E+00 0. -1.
         22    1    1    2    0    0 -0.15171357082E+03 -0.13792953695E+03  0.51677136131E+03  0.55596241294E+03  0.00000000000E+00 0. -1.
<mgrwt>
<rscale>  0 0.11412809E+04</rscale>
<asrwt>0</asrwt>
<pdfrwt beam="1">  1        2 0.89694325E-01 0.11412809E+04</pdfrwt>
<pdfrwt beam="2">  1       -2 0.85927749E-01 0.11412809E+04</pdfrwt>
<totfact> 0.59806361E+01</totfact>
</mgrwt>
</event>
<event>
 6    1  0.2436515E-005  0.3594380E+04  0.7818608E-02  0.8091780E-01
          2   -1    0    0  501    0  0.00000000000E+00  0.00000000000E+00  0.21620409881E+04  0.21620409881E+04  0.00000000000E+00 0.  1.
         -2   -1    0    0    0  501 -0.00000000000E+00 -0.00000000000E+00 -0.14939086052E+04  0.14939086052E+04  0.00000000000E+00 0. -1.
         23    2    1    2    0    0 -0.46310719524E+03  0.13224567109E+04 -0.80853088620E+03  0.16202938176E+04  0.90938631879E+02 0.  0.
         11    1    3    3    0    0 -0.21129483837E+03  0.56922025200E+03 -0.40086331887E+03  0.72756347106E+03  0.00000000000E+00 0.  1.
        -11    1    3    3    0    0 -0.25181235687E+03  0.75323645894E+03 -0.40766756734E+03  0.89273034653E+03  0.00000000000E+00 0. -1.
         22    1    1    2    0    0  0.46310719524E+03 -0.13224567109E+04  0.14766632691E+04  0.20356557757E+04  0.00000000000E+00 0.  1.
<mgrwt>
<rscale>  0 0.35943799E+04</rscale>
<asrwt>0</asrwt>
<pdfrwt beam="1">  1        2 0.33262169E+00 0.35943799E+04</pdfrwt>
<pdfrwt beam="2">  1       -2 0.22983209E+00 0.35943799E+04</pdfrwt>
<totfact> 0.37907081E-01</totfact>
</mgrwt>
</event>
<event>
 6    1  0.2436515E-005  0.3502153E+04  0.7818608E-02  0.8113280E-01
          1   -1    0    0  501    0  0.00000000000E+00  0.00000000000E+00  0.12745350590E+04  0.12745350590E+04  0.00000000000E+00 0.  1.
         -1   -1    0    0    0  501 -0.00000000000E+00 -0.00000000000E+00 -0.24057938875E+04  0.24057938875E+04  0.00000000000E+00 0. -1.
         23    2    1    2    0    0 -0.31373961128E+03 -0.59638853918E+03 -0.22631358050E+04  0.23630372843E+04  0.89720130720E+02 0.  0.
         11    1    3    3    0    0 -0.28428880236E+03 -0.50587340578E+03 -0.20273944052E+04  0.21088044243E+04  0.00000000000E+00 0. -1.
        -11    1    3    3    0    0 -0.29450808922E+02 -0.90515133399E+02 -0.23574139981E+03  0.25423286000E+03  0.00000000000E+00 0.  1.
         22    1    1    2    0    0  0.31373961128E+03  0.59638853918E+03  0.11318769765E+04  0.13172916622E+04  0.00000000000E+00 0.  1.
<mgrwt>
<rscale>  0 0.35021529E+04</rscale>
<asrwt>0</asrwt>
<pdfrwt beam="1">  1        1 0.19608232E+00 0.35021529E+04</pdfrwt>
<pdfrwt beam="2">  1       -1 0.37012214E+00 0.35021529E+04</pdfrwt>
<totfact> 0.87709474E-02</totfact>
</mgrwt>
</event>
<event>
 6    1  0.2436515E-005  0.5336582E+03  0.7818608E-02  0.1005349E+00
          2   -1    0    0  501    0  0.00000000000E+00  0.00000000000E+00  0.11814764996E+04  0.11814764996E+04  0.00000000000E+00 0.  1.
         -2   -1    0    0    0  501 -0.00000000000E+00 -0.00000000000E+00 -0.60261683247E+02  0.60261683247E+02  0.00000000000E+00 0. -1.
         23    2    1    2    0    0 -0.13031560248E+03 -0.12141615752E+03  0.13850142409E+03  0.24301417147E+03  0.90272938945E+02 0.  0.
         11    1    3    3    0    0 -0.36914450373E+02 -0.51933547279E+02  0.21830301154E+01  0.63753710479E+02  0.00000000000E+00 0. -1.
        -11    1    3    3    0    0 -0.93401152106E+02 -0.69482610240E+02  0.13631839397E+03  0.17926046099E+03  0.00000000000E+00 0.  1.
         22    1    1    2    0    0  0.13031560248E+03  0.12141615752E+03  0.98271339227E+03  0.99872401138E+03  0.00000000000E+00 0.  1.
<mgrwt>
<rscale>  0 0.53365818E+03</rscale>
<asrwt>0</asrwt>
<pdfrwt beam="1">  1        2 0.18176560E+00 0.53365818E+03</pdfrwt>
<pdfrwt beam="2">  1       -2 0.92710291E-02 0.53365818E+03</pdfrwt>
<totfact> 0.15252021E+03</totfact>
</mgrwt>
</event>
<event>
 6    1  0.2436515E-005  0.1532880E+04  0.7818608E-02  0.8862878E-01
          2   -1    0    0  501    0  0.00000000000E+00  0.00000000000E+00  0.28937905721E+04  0.28937905721E+04  0.00000000000E+00 0.  1.
         -2   -1    0    0    0  501 -0.00000000000E+00 -0.00000000000E+00 -0.20299679911E+03  0.20299679911E+03  0.00000000000E+00 0. -1.
         23    2    1    2    0    0 -0.40716916713E+03  0.60423937090E+03  0.88847933927E+03  0.11527633832E+04  0.92606335145E+02 0.  0.
         11    1    3    3    0    0 -0.16086008187E+03  0.16272567713E+03  0.26806855775E+03  0.35244341899E+03  0.00000000000E+00 0. -1.
        -11    1    3    3    0    0 -0.24630908525E+03  0.44151369377E+03  0.62041078152E+03  0.80031996420E+03  0.00000000000E+00 0.  1.
         22    1    1    2    0    0  0.40716916713E+03 -0.60423937090E+03  0.18023144337E+04  0.19440239880E+04  0.00000000000E+00 0.  1.
<mgrwt>
<rscale>  0 0.15328799E+04</rscale>
<asrwt>0</asrwt>
<pdfrwt beam="1">  1        2 0.44519852E+00 0.15328799E+04</pdfrwt>
<pdfrwt beam="2">  1       -2 0.31230279E-01 0.15328799E+04</pdfrwt>
<totfact> 0.18685496E+01</totfact>
</mgrwt>
</event>
<event>
 6    1  0.2436515E-005  0.3210185E+04  0.7818608E-02  0.8186133E-01
         -2   -1    0    0    0  501 -0.00000000000E+00  0.00000000000E+00  0.97377187806E+03  0.97377187806E+03  0.00000000000E+00 0. -1.
          2   -1    0    0  501    0  0.00000000000E+00 -0.00000000000E+00 -0.26457138555E+04  0.26457138555E+04  0.00000000000E+00 0.  1.
         23    2    1    2    0    0  0.94201519618E+03  0.10147309380E+04 -0.17502495211E+04  0.22326895778E+04  0.66767193437E+02 0.  0.
         13    1    3    3    0    0  0.50920988653E+03  0.50485718880E+03 -0.88111773941E+03  0.11360211091E+04  0.00000000000E+00 0.  1.
        -13    1    3    3    0    0  0.43280530965E+03  0.50987374921E+03 -0.86913178173E+03  0.10966684687E+04  0.00000000000E+00 0. -1.
         22    1    1    2    0    0 -0.94201519618E+03 -0.10147309380E+04  0.78307543657E+02  0.13867961558E+04  0.00000000000E+00 0.  1.
<mgrwt>
<rscale>  0 0.32101849E+04</rscale>
<asrwt>0</asrwt>
<pdfrwt beam="1">  1        2 0.40703290E+00 0.32101849E+04</pdfrwt>
<pdfrwt beam="2">  1       -2 0.14981106E+00 0.32101849E+04</pdfrwt>
<totfact> 0.72317387E-01</totfact>
</mgrwt>
</event>
<event>
 6    1  0.2436515E-005  0.1265185E+04  0.7818608E-02  0.9057639E-01
          2   -1    0    0  501    0  0.00000000000E+00  0.00000000000E+00  0.20799112373E+04  0.20799112373E+04  0.00000000000E+00 0.  1.
         -2   -1    0    0    0  501 -0.00000000000E+00 -0.00000000000E+00 -0.19239917950E+03  0.19239917950E+03  0.00000000000E+00 0. -1.
         23    2    1    2    0    0  0.20979485945E+03  0.59047042856E+03  0.92291588706E+03  0.11220430641E+04  0.12057235629E+03 0.  0.
         13    1    3    3    0    0  0.33203090327E+02  0.26597544110E+03  0.36314854928E+03  0.45135601173E+03  0.00000000000E+00 0.  1.
        -13    1    3    3    0    0  0.17659176912E+03  0.32449498745E+03  0.55976733778E+03  0.67068705239E+03  0.00000000000E+00 0. -1.
         22    1    1    2    0    0 -0.20979485945E+03 -0.59047042856E+03  0.96459617073E+03  0.11502673527E+04  0.00000000000E+00 0. -1.
<mgrwt>
<rscale>  0 0.12651849E+04</rscale>
<asrwt>0</asrwt>
<pdfrwt beam="1">  1        2 0.31998633E+00 0.12651849E+04</pdfrwt>
<pdfrwt beam="2">  1       -2 0.29599875E-01 0.12651849E+04</pdfrwt>
<totfact> 0.62384227E+01</totfact>
</mgrwt>
</event>
<event>
 6    1  0.2436515E-005  0.2794417E+04  0.7818608E-02  0.8305004E-01
          2   -1    0    0  501    0  0.00000000000E+00  0.00000000000E+00  0.22107845892E+04  0.22107845892E+04  0.00000000000E+00 0.  1.
         -2   -1    0    0    0  501 -0.00000000000E+00 -0.00000000000E+00 -0.88303096800E+03  0.88303096800E+03  0.00000000000E+00 0. -1.
         23    2    1    2    0    0  0.20140430179E+02 -0.11078475099E+04  0.16042080791E+04  0.19518178298E+04  0.91528889661E+02 0.  0.
         13    1    3    3    0    0 -0.34912173279E+02 -0.28892250549E+03  0.41688914647E+03  0.50842072584E+03  0.00000000000E+00 0. -1.
        -13    1    3    3    0    0  0.55052603458E+02 -0.81892500438E+03  0.11873189326E+04  0.14433971039E+04  0.00000000000E+00 0.  1.
         22    1    1    2    0    0 -0.20140430179E+02  0.11078475099E+04 -0.27645445790E+03  0.11419977274E+04  0.00000000000E+00 0. -1.
<mgrwt>
<rscale>  0 0.27944168E+04</rscale>
<asrwt>0</asrwt>
<pdfrwt beam="1">  1        2 0.34012071E+00 0.27944168E+04</pdfrwt>
<pdfrwt beam="2">  1       -2 0.13585092E+00 0.27944168E+04</pdfrwt>
<totfact> 0.17208605E+00</totfact>
</mgrwt>
</event>
<event>
 6    1  0.2436515E-005  0.2427884E+04  0.7818608E-02  0.8429137E-01
         -2   -1    0    0    0  501 -0.00000000000E+00  0.00000000000E+00  0.87814669001E+03  0.87814669001E+03  0.00000000000E+00 0. -1.
          2   -1    0    0  501    0  0.00000000000E+00 -0.00000000000E+00 -0.16781421525E+04  0.16781421525E+04  0.00000000000E+00 0.  1.
         23    2    1    2    0    0  0.47054759329E+03  0.46031471925E+03  0.67251229707E+03  0.94334625821E+03  0.65762412136E+02 0.  0.
         11    1    3    3    0    0  0.27795927220E+03  0.29749968315E+03  0.45213886226E+03  0.60843813921E+03  0.00000000000E+00 0. -1.
        -11    1    3    3    0    0  0.19258832109E+03  0.16281503610E+03  0.22037343480E+03  0.33490811899E+03  0.00000000000E+00 0.  1.
         22    1    1    2    0    0 -0.47054759329E+03 -0.46031471925E+03 -0.14725077596E+04  0.16129425843E+04  0.00000000000E+00 0.  1.
<mgrwt>
<rscale>  0 0.24278838E+04</rscale>
<asrwt>0</asrwt>
<pdfrwt beam="1">  1        2 0.25817572E+00 0.24278838E+04</pdfrwt>
<pdfrwt beam="2">  1       -2 0.13509949E+00 0.24278838E+04</pdfrwt>
<totfact> 0.35636443E+00</totfact>
</mgrwt>
</event>
<event>
 6    1  0.2436515E-005  0.2771750E+04  0.7818608E-02  0.8312093E-01
         -2   -1    0    0    0  501 -0.00000000000E+00  0.00000000000E+00  0.80633300234E+03  0.80633300234E+03  0.00000000000E+00 0. -1.
          2   -1    0    0  501    0  0.00000000000E+00 -0.00000000000E+00 -0.23819550827E+04  0.23819550827E+04  0.00000000000E+00 0.  1.
         23    2    1    2    0    0  0.10637031060E+04 -0.83506627089E+03 -0.11321732074E+04  0.17651061299E+04  0.70593936436E+02 0.  0.
         13    1    3    3    0    0  0.83404118714E+03 -0.64557759476E+03 -0.84514996160E+03  0.13515448902E+04  0.00000000000E+00 0. -1.
        -13    1    3    3    0    0  0.22966191884E+03 -0.18948867613E+03 -0.28702324575E+03  0.41356123966E+03  0.00000000000E+00 0.  1.
         22    1    1    2    0    0 -0.10637031060E+04  0.83506627089E+03 -0.44344887298E+03  0.14231819551E+04  0.00000000000E+00 0. -1.
<mgrwt>
<rscale>  0 0.27717496E+04</rscale>
<asrwt>0</asrwt>
<pdfrwt beam="1">  1        2 0.36645462E+00 0.27717496E+04</pdfrwt>
<pdfrwt beam="2">  1       -2 0.12405123E+00 0.27717496E+04</pdfrwt>
<totfact> 0.17351390E+00</totfact>
</mgrwt>
</event>
<event>
 6    1  0.2436515E-005  0.2810320E+04  0.7818608E-02  0.8300071E-01
         -2   -1    0    0    0  501 -0.00000000000E+00  0.00000000000E+00  0.67844653992E+03  0.67844653992E+03  0.00000000000E+00 0. -1.
          2   -1    0    0  501    0  0.00000000000E+00 -0.00000000000E+00 -0.29102882966E+04  0.29102882966E+04  0.00000000000E+00 0.  1.
         23    2    1    2    0    0  0.11292135980E+03  0.67587720512E+03  0.44745422016E+03  0.82319905453E+03  0.88770346054E+02 0.  0.
         13    1    3    3    0    0  0.81387992622E+02  0.44154251180E+03  0.24247935694E+03  0.51027446890E+03  0.00000000000E+00 0.  1.
        -13    1    3    3    0    0  0.31533367174E+02  0.23433469332E+03  0.20497486322E+03  0.31292458563E+03  0.00000000000E+00 0. -1.
         22    1    1    2    0    0 -0.11292135980E+03 -0.67587720512E+03 -0.26792959769E+04  0.27655357820E+04  0.00000000000E+00 0.  1.
<mgrwt>
<rscale>  0 0.28103203E+04</rscale>
<asrwt>0</asrwt>
<pdfrwt beam="1">  1        2 0.44773666E+00 0.28103203E+04</pdfrwt>
<pdfrwt beam="2">  1       -2 0.10437639E+00 0.28103203E+04</pdfrwt>
<totfact> 0.12830679E+00</totfact>
</mgrwt>
</event>
<event>
 6    1  0.2436515E-005  0.2959534E+04  0.7818608E-02  0.8255382E-01
         -2   -1    0    0    0  501 -0.00000000000E+00  0.00000000000E+00  0.83775462991E+03  0.83775462991E+03  0.00000000000E+00 0.  1.
          2   -1    0    0  501    0  0.00000000000E+00 -0.00000000000E+00 -0.26137845209E+04  0.26137845209E+04  0.00000000000E+00 0. -1.
         23    2    1    2    0    0  0.13577200514E+04  0.63170837413E+02 -0.21134511831E+03  0.13789483252E+04  0.97146445163E+02 0.  0.
         11    1    3    3    0    0  0.10401807205E+04  0.51068525184E+02 -0.20321146990E+03  0.10610743739E+04  0.00000000000E+00 0. -1.
        -11    1    3    3    0    0  0.31753933094E+03  0.12102312229E+02 -0.81336484051E+01  0.31787395126E+03  0.00000000000E+00 0.  1.
         22    1    1    2    0    0 -0.13577200514E+04 -0.63170837413E+02 -0.15646847727E+04  0.20725908257E+04  0.00000000000E+00 0. -1.
<mgrwt>
<rscale>  0 0.29595338E+04</rscale>
<asrwt>0</asrwt>
<pdfrwt beam="1">  1        2 0.40212069E+00 0.29595338E+04</pdfrwt>
<pdfrwt beam="2">  1       -2 0.12888533E+00 0.29595338E+04</pdfrwt>
<totfact> 0.11383608E+00</totfact>
</mgrwt>
</event>
<event>
 6    1  0.2436515E-005  0.8692313E+03  0.7818608E-02  0.9464883E-01
         -2   -1    0    0    0  501 -0.00000000000E+00  0.00000000000E+00  0.59531631252E+02  0.59531631252E+02  0.00000000000E+00 0. -1.
          2   -1    0    0  501    0  0.00000000000E+00 -0.00000000000E+00 -0.31729478704E+04  0.31729478704E+04  0.00000000000E+00 0.  1.
         23    2    1    2    0    0 -0.39774786868E+03  0.10464834917E+03 -0.11068547219E+04  0.11842012572E+04  0.89725126003E+02 0.  0.
         13    1    3    3    0    0 -0.29861855133E+03  0.45458940644E+02 -0.86448861802E+03  0.91574020616E+03  0.00000000000E+00 0. -1.
        -13    1    3    3    0    0 -0.99129317347E+02  0.59189408527E+02 -0.24236610385E+03  0.26846105106E+03  0.00000000000E+00 0.  1.
         22    1    1    2    0    0  0.39774786868E+03 -0.10464834917E+03 -0.20065615173E+04  0.20482782444E+04  0.00000000000E+00 0.  1.
<mgrwt>
<rscale>  0 0.86923130E+03</rscale>
<asrwt>0</asrwt>
<pdfrwt beam="1">  1        2 0.48814564E+00 0.86923130E+03</pdfrwt>
<pdfrwt beam="2">  1       -2 0.91587160E-02 0.86923130E+03</pdfrwt>
<totfact> 0.11190337E+02</totfact>
</mgrwt>
</event>
<event>
 6    1  0.2436515E-005  0.8820884E+03  0.7818608E-02  0.9448253E-01
         -2   -1    0    0    0  501 -0.00000000000E+00  0.00000000000E+00  0.35316142804E+03  0.35316142804E+03  0.00000000000E+00 0. -1.
          2   -1    0    0  501    0  0.00000000000E+00 -0.00000000000E+00 -0.55079626581E+03  0.55079626581E+03  0.00000000000E+00 0.  1.
         23    2    1    2    0    0  0.34862568527E+03 -0.62844001622E+02 -0.35994771967E+03  0.51429795946E+03  0.97215190391E+02 0.  0.
         11    1    3    3    0    0  0.66636698794E+02  0.11359495255E+02 -0.11537664685E+03  0.13372082260E+03  0.00000000000E+00 0.  1.
        -11    1    3    3    0    0  0.28198898647E+03 -0.74203496877E+02 -0.24457107282E+03  0.38057713686E+03  0.00000000000E+00 0. -1.
         22    1    1    2    0    0 -0.34862568527E+03  0.62844001622E+02  0.16231288191E+03  0.38965973439E+03  0.00000000000E+00 0. -1.
<mgrwt>
<rscale>  0 0.88208842E+03</rscale>
<asrwt>0</asrwt>
<pdfrwt beam="1">  1        2 0.84737887E-01 0.88208842E+03</pdfrwt>
<pdfrwt beam="2">  1       -2 0.54332527E-01 0.88208842E+03</pdfrwt>
<totfact> 0.17602312E+02</totfact>
</mgrwt>
</event>
<event>
 6    1  0.2436515E-005  0.1063351E+04  0.7818608E-02  0.9241667E-01
          2   -1    0    0  501    0  0.00000000000E+00  0.00000000000E+00  0.41352753672E+04  0.41352753672E+04  0.00000000000E+00 0.  1.
         -2   -1    0    0    0  501 -0.00000000000E+00 -0.00000000000E+00 -0.68357962424E+02  0.68357962424E+02  0.00000000000E+00 0. -1.
         23    2    1    2    0    0 -0.31524426539E+03  0.41750082183E+03  0.23211621216E+04  0.23811769126E+04  0.92325573071E+02 0.  0.
         13    1    3    3    0    0 -0.28485304793E+02  0.93219493649E+02  0.37604748873E+03  0.38847522491E+03  0.00000000000E+00 0.  1.
        -13    1    3    3    0    0 -0.28675896059E+03  0.32428132818E+03  0.19451146328E+04  0.19927016877E+04  0.00000000000E+00 0. -1.
         22    1    1    2    0    0  0.31524426539E+03 -0.41750082183E+03  0.17457552832E+04  0.18224564171E+04  0.00000000000E+00 0.  1.
<mgrwt>
<rscale>  0 0.10633513E+04</rscale>
<asrwt>0</asrwt>
<pdfrwt beam="1">  1        2 0.63619602E+00 0.10633513E+04</pdfrwt>
<pdfrwt beam="2">  1       -2 0.10516613E-01 0.10633513E+04</pdfrwt>
<totfact> 0.17629548E+01</totfact>
</mgrwt>
</event>
<event>
 6    1  0.2436515E-005  0.2269409E+04  0.7818608E-02  0.8490081E-01
          2   -1    0    0  501    0  0.00000000000E+00  0.00000000000E+00  0.22261160570E+04  0.22261160570E+04  0.00000000000E+00 0.  1.
         -2   -1    0    0    0  501 -0.00000000000E+00 -0.00000000000E+00 -0.57838606045E+03  0.57838606045E+03  0.00000000000E+00 0. -1.
         23    2    1    2    0    0 -0.58031364523E+03 -0.89237745857E+03  0.13041520577E+04  0.16859551782E+04  0.92362425522E+02 0.  0.
         13    1    3    3    0    0 -0.19671613260E+03 -0.29840666947E+03  0.37071336385E+03  0.51494871137E+03  0.00000000000E+00 0.  1.
        -13    1    3    3    0    0 -0.38359751264E+03 -0.59397078910E+03  0.93343869388E+03  0.11710064668E+04  0.00000000000E+00 0. -1.
         22    1    1    2    0    0  0.58031364523E+03  0.89237745857E+03  0.34357793884E+03  0.11185469393E+04  0.00000000000E+00 0.  1.
<mgrwt>
<rscale>  0 0.22694092E+04</rscale>
<asrwt>0</asrwt>
<pdfrwt beam="1">  1        2 0.34247939E+00 0.22694092E+04</pdfrwt>
<pdfrwt beam="2">  1       -2 0.88982472E-01 0.22694092E+04</pdfrwt>
<totfact> 0.49214069E+00</totfact>
</mgrwt>
</event>
<event>
 6    1  0.2436515E-005  0.3572485E+04  0.7818608E-02  0.8096824E-01
          2   -1    0    0  501    0  0.00000000000E+00  0.00000000000E+00  0.36702191657E+04  0.36702191657E+04  0.00000000000E+00 0.  1.
         -2   -1    0    0    0  501 -0.00000000000E+00 -0.00000000000E+00 -0.86933814669E+03  0.86933814669E+03  0.00000000000E+00 0. -1.
         23    2    1    2    0    0 -0.15572292438E+04  0.31128757285E+03  0.24374243098E+04  0.29104582822E+04  0.88697664828E+02 0.  0.
         11    1    3    3    0    0 -0.82581965840E+03  0.13272313678E+03  0.13392031406E+04  0.15789422380E+04  0.00000000000E+00 0. -1.
        -11    1    3    3    0    0 -0.73140958538E+03  0.17856443607E+03  0.10982211692E+04  0.13315160441E+04  0.00000000000E+00 0.  1.
         22    1    1    2    0    0  0.15572292438E+04 -0.31128757285E+03  0.36345670920E+03  0.16290990302E+04  0.00000000000E+00 0. -1.
<mgrwt>
<rscale>  0 0.35724846E+04</rscale>
<asrwt>0</asrwt>
<pdfrwt beam="1">  1        2 0.56464910E+00 0.35724846E+04</pdfrwt>
<pdfrwt beam="2">  1       -2 0.13374433E+00 0.35724846E+04</pdfrwt>
<totfact> 0.20221318E-01</totfact>
</mgrwt>
</event>
<event>
 6    1  0.2436515E-005  0.3887704E+04  0.7818608E-02  0.8027591E-01
          2   -1    0    0  501    0  0.00000000000E+00  0.00000000000E+00  0.14541277807E+04  0.14541277807E+04  0.00000000000E+00 0.  1.
         -2   -1    0    0    0  501 -0.00000000000E+00 -0.00000000000E+00 -0.25985071406E+04  0.25985071406E+04  0.00000000000E+00 0. -1.
         23    2    1    2    0    0 -0.11077698927E+04 -0.15958709062E+04 -0.55176267733E+03  0.20215877488E+04  0.91743606816E+02 0.  0.
         13    1    3    3    0    0 -0.72281468956E+03 -0.97009939210E+03 -0.36214524516E+03  0.12628155386E+04  0.00000000000E+00 0. -1.
        -13    1    3    3    0    0 -0.38495520315E+03 -0.62577151413E+03 -0.18961743217E+03  0.75877221016E+03  0.00000000000E+00 0.  1.
         22    1    1    2    0    0  0.11077698927E+04  0.15958709062E+04 -0.59261668256E+03  0.20310471725E+04  0.00000000000E+00 0.  1.
<mgrwt>
<rscale>  0 0.38877044E+04</rscale>
<asrwt>0</asrwt>
<pdfrwt beam="1">  1        2 0.22371197E+00 0.38877044E+04</pdfrwt>
<pdfrwt beam="2">  1       -2 0.39977033E+00 0.38877044E+04</pdfrwt>
<totfact> 0.79861404E-02</totfact>
</mgrwt>
</event>
<event>
 6    1  0.2436515E-005  0.4217594E+04  0.7818608E-02  0.7962034E-01
          2   -1    0    0  501    0  0.00000000000E+00  0.00000000000E+00  0.23026100870E+04  0.23026100870E+04  0.00000000000E+00 0.  1.
         -2   -1    0    0    0  501 -0.00000000000E+00 -0.00000000000E+00 -0.19312976889E+04  0.19312976889E+04  0.00000000000E+00 0. -1.
         23    2    1    2    0    0  0.13972392952E+04  0.10595434528E+04  0.13600663465E+04  0.22208145473E+04  0.85596789279E+02 0.  0.
         13    1    3    3    0    0  0.97367010346E+03  0.78365382228E+03  0.98613037288E+03  0.15920426803E+04  0.00000000000E+00 0. -1.
        -13    1    3    3    0    0  0.42356919172E+03  0.27588963055E+03  0.37393597362E+03  0.62877186704E+03  0.00000000000E+00 0.  1.
         22    1    1    2    0    0 -0.13972392952E+04 -0.10595434528E+04 -0.98875394837E+03  0.20130932286E+04  0.00000000000E+00 0.  1.
<mgrwt>
<rscale>  0 0.42175944E+04</rscale>
<asrwt>0</asrwt>
<pdfrwt beam="1">  1        2 0.35424771E+00 0.42175944E+04</pdfrwt>
<pdfrwt beam="2">  1       -2 0.29712272E+00 0.42175944E+04</pdfrwt>
<totfact> 0.11592757E-01</totfact>
</mgrwt>
</event>
<event>
 6    1  0.2436515E-005  0.2469291E+04  0.7818608E-02  0.8414008E-01
         -2   -1    0    0    0  501 -0.00000000000E+00  0.00000000000E+00  0.10119965908E+04  0.10119965908E+04  0.00000000000E+00 0. -1.
          2   -1    0    0  501    0  0.00000000000E+00 -0.00000000000E+00 -0.15062795204E+04  0.15062795204E+04  0.00000000000E+00 0.  1.
         23    2    1    2    0    0 -0.24413822017E+03 -0.71834387147E+03  0.74380276958E+03  0.10662163375E+04  0.89181444121E+02 0.  0.
         13    1    3    3    0    0 -0.66649212605E+02 -0.99810143154E+02  0.10450639441E+03  0.15914071977E+03  0.00000000000E+00 0.  1.
        -13    1    3    3    0    0 -0.17748900756E+03 -0.61853372832E+03  0.63929637518E+03  0.90707561768E+03  0.00000000000E+00 0. -1.
         22    1    1    2    0    0  0.24413822017E+03  0.71834387147E+03 -0.12380856991E+04  0.14520597738E+04  0.00000000000E+00 0.  1.
<mgrwt>
<rscale>  0 0.24692912E+04</rscale>
<asrwt>0</asrwt>
<pdfrwt beam="1">  1        2 0.23173531E+00 0.24692912E+04</pdfrwt>
<pdfrwt beam="2">  1       -2 0.15569178E+00 0.24692912E+04</pdfrwt>
<totfact> 0.30541234E+00</totfact>
</mgrwt>
</event>
<event>
 6    1  0.2436515E-005  0.1792375E+04  0.7818608E-02  0.8710365E-01
          2   -1    0    0  501    0  0.00000000000E+00  0.00000000000E+00  0.14711135525E+04  0.14711135525E+04  0.00000000000E+00 0.  1.
         -2   -1    0    0    0  501 -0.00000000000E+00 -0.00000000000E+00 -0.54594857291E+03  0.54594857291E+03  0.00000000000E+00 0. -1.
         23    2    1    2    0    0  0.43721994813E+03 -0.44165377861E+02  0.13397819512E+04  0.14128940224E+04  0.90232910105E+02 0.  0.
         13    1    3    3    0    0  0.53903593877E+02 -0.85463820255E+01  0.28211144190E+03  0.28734213706E+03  0.00000000000E+00 0. -1.
        -13    1    3    3    0    0  0.38331635425E+03 -0.35618995836E+02  0.10576705093E+04  0.11255518853E+04  0.00000000000E+00 0.  1.
         22    1    1    2    0    0 -0.43721994813E+03  0.44165377861E+02 -0.41461697157E+03  0.60416810307E+03  0.00000000000E+00 0. -1.
<mgrwt>
<rscale>  0 0.17923753E+04</rscale>
<asrwt>0</asrwt>
<pdfrwt beam="1">  1        2 0.22632516E+00 0.17923753E+04</pdfrwt>
<pdfrwt beam="2">  1       -2 0.83992089E-01 0.17923753E+04</pdfrwt>
<totfact> 0.15416092E+01</totfact>
</mgrwt>
</event>
<event>
 6    1  0.2436515E-005  0.9693918E+03  0.7818608E-02  0.9342767E-01
          2   -1    0    0  501    0  0.00000000000E+00  0.00000000000E+00  0.55268025093E+03  0.55268025093E+03  0.00000000000E+00 0.  1.
         -2   -1    0    0    0  501 -0.00000000000E+00 -0.00000000000E+00 -0.42507417193E+03  0.42507417193E+03  0.00000000000E+00 0. -1.
         23    2    1    2    0    0 -0.58403657008E+01 -0.19401574104E+03 -0.37884430435E+03  0.43538166503E+03  0.91421932084E+02 0.  0.
         13    1    3    3    0    0 -0.48714984619E+02 -0.10505689884E+03 -0.20352751032E+03  0.23416564474E+03  0.00000000000E+00 0.  1.
        -13    1    3    3    0    0  0.42874618918E+02 -0.88958842198E+02 -0.17531679403E+03  0.20121602029E+03  0.00000000000E+00 0. -1.
         22    1    1    2    0    0  0.58403657008E+01  0.19401574104E+03  0.50645038334E+03  0.54237275782E+03  0.00000000000E+00 0.  1.
<mgrwt>
<rscale>  0 0.96939177E+03</rscale>
<asrwt>0</asrwt>
<pdfrwt beam="1">  1        2 0.85027730E-01 0.96939177E+03</pdfrwt>
<pdfrwt beam="2">  1       -2 0.65396027E-01 0.96939177E+03</pdfrwt>
<totfact> 0.11802413E+02</totfact>
</mgrwt>
</event>
<event>
 6    1  0.2436515E-005  0.4517065E+04  0.7818608E-02  0.7907656E-01
          2   -1    0    0  501    0  0.00000000000E+00  0.00000000000E+00  0.51472491325E+04  0.51472491325E+04  0.00000000000E+00 0.  1.
         -2   -1    0    0    0  501 -0.00000000000E+00 -0.00000000000E+00 -0.99100863219E+03  0.99100863219E+03  0.00000000000E+00 0. -1.
         23    2    1    2    0    0  0.13146342562E+04 -0.88298131683E+03  0.42654426357E+04  0.45508560072E+04  0.91489269544E+02 0.  0.
         13    1    3    3    0    0  0.75827540672E+03 -0.55337301236E+03  0.24501962345E+04  0.26238644917E+04  0.00000000000E+00 0. -1.
        -13    1    3    3    0    0  0.55635884949E+03 -0.32960830447E+03  0.18152464011E+04  0.19269915154E+04  0.00000000000E+00 0.  1.
         22    1    1    2    0    0 -0.13146342562E+04  0.88298131683E+03 -0.10920213532E+03  0.15874017575E+04  0.00000000000E+00 0. -1.
<mgrwt>
<rscale>  0 0.45170647E+04</rscale>
<asrwt>0</asrwt>
<pdfrwt beam="1">  1        2 0.79188446E+00 0.45170647E+04</pdfrwt>
<pdfrwt beam="2">  1       -2 0.15246287E+00 0.45170647E+04</pdfrwt>
<totfact> 0.46722089E-03</totfact>
</mgrwt>
</event>
<event>
 6    1  0.2436515E-005  0.2135260E+04  0.7818608E-02  0.8545868E-01
          2   -1    0    0  501    0  0.00000000000E+00  0.00000000000E+00  0.24093461163E+04  0.24093461163E+04  0.00000000000E+00 0.  1.
         -2   -1    0    0    0  501 -0.00000000000E+00 -0.00000000000E+00 -0.47308852904E+03  0.47308852904E+03  0.00000000000E+00 0. -1.
         23    2    1    2    0    0  0.33083057319E+03  0.64430790017E+03  0.20250836156E+04  0.21527281278E+04  0.93237352029E+02 0.  0.
         11    1    3    3    0    0  0.75921601746E+02  0.23949686988E+03  0.74037952796E+03  0.78184697078E+03  0.00000000000E+00 0. -1.
        -11    1    3    3    0    0  0.25490897144E+03  0.40481103029E+03  0.12847040876E+04  0.13708811570E+04  0.00000000000E+00 0.  1.
         22    1    1    2    0    0 -0.33083057319E+03 -0.64430790017E+03 -0.88826028347E+02  0.72970651751E+03  0.00000000000E+00 0. -1.
<mgrwt>
<rscale>  0 0.21352602E+04</rscale>
<asrwt>0</asrwt>
<pdfrwt beam="1">  1        2 0.37066863E+00 0.21352602E+04</pdfrwt>
<pdfrwt beam="2">  1       -2 0.72782852E-01 0.21352602E+04</pdfrwt>
<totfact> 0.61577583E+00</totfact>
</mgrwt>
</event>
<event>
 6    1  0.2436515E-005  0.3068294E+04  0.7818608E-02  0.8224493E-01
          2   -1    0    0  501    0  0.00000000000E+00  0.00000000000E+00  0.22441064140E+04  0.22441064140E+04  0.00000000000E+00 0.  1.
         -2   -1    0    0    0  501 -0.00000000000E+00 -0.00000000000E+00 -0.10487949857E+04  0.10487949857E+04  0.00000000000E+00 0. -1.
         23    2    1    2    0    0  0.52947314273E+03 -0.20602722707E+03 -0.92959736975E+03  0.10933499846E+04  0.92053744655E+02 0.  0.
         11    1    3    3    0    0  0.72683090100E+02 -0.18473258842E+02 -0.18789117108E+03  0.20230468370E+03  0.00000000000E+00 0.  1.
        -11    1    3    3    0    0  0.45679005263E+03 -0.18755396823E+03 -0.74170619867E+03  0.89104530094E+03  0.00000000000E+00 0. -1.
         22    1    1    2    0    0 -0.52947314273E+03  0.20602722707E+03  0.21249087981E+04  0.21995514151E+04  0.00000000000E+00 0.  1.
<mgrwt>
<rscale>  0 0.30682943E+04</rscale>
<asrwt>0</asrwt>
<pdfrwt beam="1">  1        2 0.34524714E+00 0.30682943E+04</pdfrwt>
<pdfrwt beam="2">  1       -2 0.16135308E+00 0.30682943E+04</pdfrwt>
<totfact> 0.10217860E+00</totfact>
</mgrwt>
</event>
<event>
 6    1  0.2436515E-005  0.2867826E+04  0.7818608E-02  0.8282515E-01
         -2   -1    0    0    0  501 -0.00000000000E+00  0.00000000000E+00  0.10998997639E+04  0.10998997639E+04  0.00000000000E+00 0. -1.
          2   -1    0    0  501    0  0.00000000000E+00 -0.00000000000E+00 -0.18693578186E+04  0.18693578186E+04  0.00000000000E+00 0.  1.
         23    2    1    2    0    0 -0.32655721955E+03  0.10474940192E+04  0.56841274831E+03  0.12390027969E+04  0.90285881964E+02 0.  0.
         13    1    3    3    0    0 -0.34222000132E+02  0.11647566972E+03  0.32412866568E+02  0.12565158514E+03  0.00000000000E+00 0.  1.
        -13    1    3    3    0    0 -0.29233521941E+03  0.93101834945E+03  0.53599988174E+03  0.11133512118E+04  0.00000000000E+00 0. -1.
         22    1    1    2    0    0  0.32655721955E+03 -0.10474940192E+04 -0.13378708030E+04  0.17302547857E+04  0.00000000000E+00 0.  1.
<mgrwt>
<rscale>  0 0.28678258E+04</rscale>
<asrwt>0</asrwt>
<pdfrwt beam="1">  1        2 0.28759351E+00 0.28678258E+04</pdfrwt>
<pdfrwt beam="2">  1       -2 0.16921535E+00 0.28678258E+04</pdfrwt>
<totfact> 0.14754951E+00</totfact>
</mgrwt>
</event>
<event>
 6    1  0.2436515E-005  0.2834774E+04  0.7818608E-02  0.8292553E-01
         -2   -1    0    0    0  501 -0.00000000000E+00  0.00000000000E+00  0.13364263413E+04  0.13364263413E+04  0.00000000000E+00 0. -1.
          2   -1    0    0  501    0  0.00000000000E+00 -0.00000000000E+00 -0.15032526316E+04  0.15032526316E+04  0.00000000000E+00 0.  1.
         23    2    1    2    0    0  0.32627876267E+03  0.10152659237E+04 -0.10166791044E+04  0.14760541958E+04  0.88751680453E+02 0.  0.
         13    1    3    3    0    0  0.11871670513E+03  0.51251750293E+03 -0.48998658592E+03  0.71892607497E+03  0.00000000000E+00 0.  1.
        -13    1    3    3    0    0  0.20756205753E+03  0.50274842082E+03 -0.52669251846E+03  0.75712812084E+03  0.00000000000E+00 0. -1.
         22    1    1    2    0    0 -0.32627876267E+03 -0.10152659237E+04  0.84985281414E+03  0.13636247771E+04  0.00000000000E+00 0. -1.
<mgrwt>
<rscale>  0 0.28347744E+04</rscale>
<asrwt>0</asrwt>
<pdfrwt beam="1">  1        2 0.23126963E+00 0.28347744E+04</pdfrwt>
<pdfrwt beam="2">  1       -2 0.20560405E+00 0.28347744E+04</pdfrwt>
<totfact> 0.13409356E+00</totfact>
</mgrwt>
</event>
<event>
 6    1  0.2436515E-005  0.3140646E+04  0.7818608E-02  0.8204671E-01
          2   -1    0    0  501    0  0.00000000000E+00  0.00000000000E+00  0.31834396217E+04  0.31834396217E+04  0.00000000000E+00 0.  1.
         -2   -1    0    0    0  501 -0.00000000000E+00 -0.00000000000E+00 -0.77460703624E+03  0.77460703624E+03  0.00000000000E+00 0. -1.
         23    2    1    2    0    0 -0.91551486264E+03 -0.80910545318E+03 -0.35235723609E+02  0.12255955609E+04  0.89575804363E+02 0.  0.
         13    1    3    3    0    0 -0.71751970738E+03 -0.58373779225E+03 -0.19131897275E+02  0.92517585900E+03  0.00000000000E+00 0. -1.
        -13    1    3    3    0    0 -0.19799515526E+03 -0.22536766093E+03 -0.16103826334E+02  0.30041970195E+03  0.00000000000E+00 0.  1.
         22    1    1    2    0    0  0.91551486264E+03  0.80910545318E+03  0.24440683090E+04  0.27324510970E+04  0.00000000000E+00 0.  1.
<mgrwt>
<rscale>  0 0.31406463E+04</rscale>
<asrwt>0</asrwt>
<pdfrwt beam="1">  1        2 0.48975993E+00 0.31406463E+04</pdfrwt>
<pdfrwt beam="2">  1       -2 0.11917032E+00 0.31406463E+04</pdfrwt>
<totfact> 0.60720338E-01</totfact>
</mgrwt>
</event>
<event>
 6    1  0.2436515E-005  0.4442452E+04  0.7818608E-02  0.7920790E-01
         -2   -1    0    0    0  501 -0.00000000000E+00  0.00000000000E+00  0.12044281019E+04  0.12044281019E+04  0.00000000000E+00 0. -1.
          2   -1    0    0  501    0  0.00000000000E+00 -0.00000000000E+00 -0.40964218533E+04  0.40964218533E+04  0.00000000000E+00 0.  1.
         23    2    1    2    0    0  0.55379331643E+03 -0.56612838366E+03 -0.39216013800E+04  0.40018964329E+04  0.95022587022E+02 0.  0.
         11    1    3    3    0    0  0.25522235179E+03 -0.23271349586E+03 -0.14963945649E+04  0.15357378402E+04  0.00000000000E+00 0. -1.
        -11    1    3    3    0    0  0.29857096464E+03 -0.33341488780E+03 -0.24252068151E+04  0.24661585927E+04  0.00000000000E+00 0.  1.
         22    1    1    2    0    0 -0.55379331643E+03  0.56612838366E+03  0.10296076286E+04  0.12989535222E+04  0.00000000000E+00 0. -1.
<mgrwt>
<rscale>  0 0.44424523E+04</rscale>
<asrwt>0</asrwt>
<pdfrwt beam="1">  1        2 0.63021874E+00 0.44424523E+04</pdfrwt>
<pdfrwt beam="2">  1       -2 0.18529663E+00 0.44424523E+04</pdfrwt>
<totfact> 0.36003450E-02</totfact>
</mgrwt>
</event>
<event>
 6    1  0.2436515E-005  0.2749230E+04  0.7818608E-02  0.8319206E-01
         -2   -1    0    0    0  501 -0.00000000000E+00  0.00000000000E+00  0.10554830648E+04  0.10554830648E+04  0.00000000000E+00 0. -1.
          2   -1    0    0  501    0  0.00000000000E+00 -0.00000000000E+00 -0.17902386507E+04  0.17902386507E+04  0.00000000000E+00 0.  1.
         23    2    1    2    0    0 -0.16408246856E+03  0.53160844700E+03  0.93202533930E+03  0.10885395251E+04  0.81954055872E+02 0.  0.
         13    1    3    3    0    0 -0.14256220584E+03  0.33447152352E+03  0.58173617010E+03  0.68601177408E+03  0.00000000000E+00 0.  1.
        -13    1    3    3    0    0 -0.21520262716E+02  0.19713692349E+03  0.35028916921E+03  0.40252775106E+03  0.00000000000E+00 0. -1.
         22    1    1    2    0    0  0.16408246856E+03 -0.53160844700E+03 -0.16667809252E+04  0.17571821904E+04  0.00000000000E+00 0.  1.
<mgrwt>
<rscale>  0 0.27492301E+04</rscale>
<asrwt>0</asrwt>
<pdfrwt beam="1">  1        2 0.27542133E+00 0.27492301E+04</pdfrwt>
<pdfrwt beam="2">  1       -2 0.16238201E+00 0.27492301E+04</pdfrwt>
<totfact> 0.18471743E+00</totfact>
</mgrwt>
</event>
<event>
 6    1  0.2436515E-005  0.4600650E+04  0.7818608E-02  0.7893249E-01
          2   -1    0    0  501    0  0.00000000000E+00  0.00000000000E+00  0.28638861339E+04  0.28638861339E+04  0.00000000000E+00 0.  1.
         -2   -1    0    0    0  501 -0.00000000000E+00 -0.00000000000E+00 -0.18476627333E+04  0.18476627333E+04  0.00000000000E+00 0. -1.
         23    2    1    2    0    0 -0.77753614448E+03 -0.11010236736E+04 -0.13995313528E+04  0.19451998990E+04  0.91099141633E+02 0.  0.
         11    1    3    3    0    0 -0.62501714611E+02 -0.89631927546E+02 -0.15210248428E+03  0.18728457622E+03  0.00000000000E+00 0.  1.
        -11    1    3    3    0    0 -0.71503442986E+03 -0.10113917460E+04 -0.12474288686E+04  0.17579153227E+04  0.00000000000E+00 0. -1.
         22    1    1    2    0    0  0.77753614448E+03  0.11010236736E+04  0.24157547533E+04  0.27663489682E+04  0.00000000000E+00 0.  1.
<mgrwt>
<rscale>  0 0.46006503E+04</rscale>
<asrwt>0</asrwt>
<pdfrwt beam="1">  1        2 0.44059786E+00 0.46006503E+04</pdfrwt>
<pdfrwt beam="2">  1       -2 0.28425581E+00 0.46006503E+04</pdfrwt>
<totfact> 0.63017630E-02</totfact>
</mgrwt>
</event>
<event>
 6    1  0.2436515E-005  0.3654307E+04  0.7818608E-02  0.8078164E-01
          2   -1    0    0  501    0  0.00000000000E+00  0.00000000000E+00  0.99945667786E+03  0.99945667786E+03  0.00000000000E+00 0.  1.
         -2   -1    0    0    0  501 -0.00000000000E+00 -0.00000000000E+00 -0.33403051939E+04  0.33403051939E+04  0.00000000000E+00 0. -1.
         23    2    1    2    0    0  0.15299204723E+04  0.25727395010E+03 -0.23148981317E+04  0.27881433750E+04  0.90241799505E+02 0.  0.
         11    1    3    3    0    0  0.93303452206E+03  0.12740991460E+03 -0.14630720738E+04  0.17399329294E+04  0.00000000000E+00 0. -1.
        -11    1    3    3    0    0  0.59688595028E+03  0.12986403549E+03 -0.85182605788E+03  0.10482104456E+04  0.00000000000E+00 0.  1.
         22    1    1    2    0    0 -0.15299204723E+04 -0.25727395010E+03 -0.25950384365E+02  0.15516184968E+04  0.00000000000E+00 0.  1.
<mgrwt>
<rscale>  0 0.36543072E+04</rscale>
<asrwt>0</asrwt>
<pdfrwt beam="1">  1        2 0.15376257E+00 0.36543072E+04</pdfrwt>
<pdfrwt beam="2">  1       -2 0.51389310E+00 0.36543072E+04</pdfrwt>
<totfact> 0.27745945E-02</totfact>
</mgrwt>
</event>
<event>
 6    1  0.2436515E-005  0.2048652E+04  0.7818608E-02  0.8584206E-01
          2   -1    0    0  501    0  0.00000000000E+00  0.00000000000E+00  0.23228216586E+04  0.23228216586E+04  0.00000000000E+00 0.  1.
         -2   -1    0    0    0  501 -0.00000000000E+00 -0.00000000000E+00 -0.45171103310E+03  0.45171103310E+03  0.00000000000E+00 0. -1.
         23    2    1    2    0    0  0.29832525075E+03 -0.72425695191E+03  0.47466713768E+02  0.78978504920E+03  0.89225822472E+02 0.  0.
         13    1    3    3    0    0  0.10222242667E+03 -0.36327913430E+03  0.14670153101E+02  0.37767230151E+03  0.00000000000E+00 0. -1.
        -13    1    3    3    0    0  0.19610282408E+03 -0.36097781761E+03  0.32796560667E+02  0.41211274769E+03  0.00000000000E+00 0.  1.
         22    1    1    2    0    0 -0.29832525075E+03  0.72425695191E+03  0.18236439118E+04  0.19847476425E+04  0.00000000000E+00 0.  1.
<mgrwt>
<rscale>  0 0.20486524E+04</rscale>
<asrwt>0</asrwt>
<pdfrwt beam="1">  1        2 0.35735717E+00 0.20486524E+04</pdfrwt>
<pdfrwt beam="2">  1       -2 0.69494006E-01 0.20486524E+04</pdfrwt>
<totfact> 0.76912970E+00</totfact>
</mgrwt>
</event>
<event>
 6    1  0.2436515E-005  0.3824191E+04  0.7818608E-02  0.8040983E-01
          2   -1    0    0  501    0  0.00000000000E+00  0.00000000000E+00  0.18806099100E+04  0.18806099100E+04  0.00000000000E+00 0.  1.
         -2   -1    0    0    0  501 -0.00000000000E+00 -0.00000000000E+00 -0.19441080909E+04  0.19441080909E+04  0.00000000000E+00 0. -1.
         23    2    1    2    0    0  0.70952779837E+03 -0.17530301192E+04  0.24291005979E+03  0.19088812893E+04  0.90984527318E+02 0.  0.
         13    1    3    3    0    0  0.48026483070E+03 -0.10688489548E+04  0.14936862718E+03  0.11812719342E+04  0.00000000000E+00 0.  1.
        -13    1    3    3    0    0  0.22926296767E+03 -0.68418116441E+03  0.93541432608E+02  0.72760935515E+03  0.00000000000E+00 0. -1.
         22    1    1    2    0    0 -0.70952779837E+03  0.17530301192E+04 -0.30640824065E+03  0.19158367116E+04  0.00000000000E+00 0. -1.
<mgrwt>
<rscale>  0 0.38241909E+04</rscale>
<asrwt>0</asrwt>
<pdfrwt beam="1">  1        2 0.28932460E+00 0.38241909E+04</pdfrwt>
<pdfrwt beam="2">  1       -2 0.29909355E+00 0.38241909E+04</pdfrwt>
<totfact> 0.20052417E-01</totfact>
</mgrwt>
</event>
<event>
 6    1  0.2436515E-005  0.2283824E+04  0.7818608E-02  0.8484327E-01
          2   -1    0    0  501    0  0.00000000000E+00  0.00000000000E+00  0.15950462775E+04  0.15950462775E+04  0.00000000000E+00 0.  1.
         -2   -1    0    0    0  501 -0.00000000000E+00 -0.00000000000E+00 -0.81750780236E+03  0.81750780236E+03  0.00000000000E+00 0. -1.
         23    2    1    2    0    0 -0.52953221583E+03 -0.95485202985E+03  0.73598215984E+03  0.13199088063E+04  0.91338660328E+02 0.  0.
         13    1    3    3    0    0 -0.35989445403E+03 -0.63022372351E+03  0.53912354256E+03  0.90407972760E+03  0.00000000000E+00 0. -1.
        -13    1    3    3    0    0 -0.16963776181E+03 -0.32462830634E+03  0.19685861728E+03  0.41582907872E+03  0.00000000000E+00 0.  1.
         22    1    1    2    0    0  0.52953221583E+03  0.95485202985E+03  0.41556315336E+02  0.10926452736E+04  0.00000000000E+00 0. -1.
<mgrwt>
<rscale>  0 0.22838238E+04</rscale>
<asrwt>0</asrwt>
<pdfrwt beam="1">  1        2 0.24539173E+00 0.22838238E+04</pdfrwt>
<pdfrwt beam="2">  1       -2 0.12577043E+00 0.22838238E+04</pdfrwt>
<totfact> 0.48111537E+00</totfact>
</mgrwt>
</event>
<event>
 6    1  0.2436515E-005  0.1942713E+04  0.7818608E-02  0.8633883E-01
          2   -1    0    0  501    0  0.00000000000E+00  0.00000000000E+00  0.40304257864E+03  0.40304257864E+03  0.00000000000E+00 0.  1.
         -2   -1    0    0    0  501 -0.00000000000E+00 -0.00000000000E+00 -0.23410272087E+04  0.23410272087E+04  0.00000000000E+00 0. -1.
         23    2    1    2    0    0  0.11427213375E+02  0.83771430792E+03 -0.28299342653E+03  0.88910571043E+03  0.92346315400E+02 0.  0.
         11    1    3    3    0    0 -0.33122466748E+02  0.54959665222E+03 -0.20256221173E+03  0.58667284543E+03  0.00000000000E+00 0.  1.
        -11    1    3    3    0    0  0.44549680123E+02  0.28811765569E+03 -0.80431214799E+02  0.30243286500E+03  0.00000000000E+00 0. -1.
         22    1    1    2    0    0 -0.11427213375E+02 -0.83771430792E+03 -0.16549912035E+04  0.18549640769E+04  0.00000000000E+00 0. -1.
<mgrwt>
<rscale>  0 0.19427132E+04</rscale>
<asrwt>0</asrwt>
<pdfrwt beam="1">  1        2 0.62006550E-01 0.19427132E+04</pdfrwt>
<pdfrwt beam="2">  1       -2 0.36015804E+00 0.19427132E+04</pdfrwt>
<totfact> 0.99019944E-01</totfact>
</mgrwt>
</event>
<event>
 6    1  0.2436515E-005  0.2419802E+04  0.7818608E-02  0.8432127E-01
          2   -1    0    0  501    0  0.00000000000E+00  0.00000000000E+00  0.98089026978E+03  0.98089026978E+03  0.00000000000E+00 0.  1.
         -2   -1    0    0    0  501 -0.00000000000E+00 -0.00000000000E+00 -0.14923798986E+04  0.14923798986E+04  0.00000000000E+00 0. -1.
         23    2    1    2    0    0 -0.94410620320E+03  0.49120378835E+03 -0.84142542905E+03  0.13590550559E+04  0.80101234631E+02 0.  0.
         11    1    3    3    0    0 -0.71484297132E+03  0.40950306997E+03 -0.65452082742E+03  0.10521838012E+04  0.00000000000E+00 0. -1.
        -11    1    3    3    0    0 -0.22926323188E+03  0.81700718384E+02 -0.18690460163E+03  0.30687125474E+03  0.00000000000E+00 0.  1.
         22    1    1    2    0    0  0.94410620320E+03 -0.49120378835E+03  0.32993580021E+03  0.11142151125E+04  0.00000000000E+00 0.  1.
<mgrwt>
<rscale>  0 0.24198024E+04</rscale>
<asrwt>0</asrwt>
<pdfrwt beam="1">  1        2 0.15090620E+00 0.24198024E+04</pdfrwt>
<pdfrwt beam="2">  1       -2 0.22959691E+00 0.24198024E+04</pdfrwt>
<totfact> 0.20004367E+00</totfact>
</mgrwt>
</event>
<event>
 6    1  0.2436515E-005  0.4731372E+04  0.7818608E-02  0.7871337E-01
          2   -1    0    0  501    0  0.00000000000E+00  0.00000000000E+00  0.30640601370E+04  0.30640601370E+04  0.00000000000E+00 0.  1.
         -2   -1    0    0    0  501 -0.00000000000E+00 -0.00000000000E+00 -0.18264881836E+04  0.18264881836E+04  0.00000000000E+00 0. -1.
         23    2    1    2    0    0 -0.20540576612E+03  0.23550728656E+04  0.68433302199E+03  0.24626617815E+04  0.88496520028E+02 0.  0.
         11    1    3    3    0    0 -0.17127614635E+02  0.36121358395E+03  0.13456401675E+03  0.38584463585E+03  0.00000000000E+00 0. -1.
        -11    1    3    3    0    0 -0.18827815148E+03  0.19938592817E+04  0.54976900524E+03  0.20768171457E+04  0.00000000000E+00 0.  1.
         22    1    1    2    0    0  0.20540576612E+03 -0.23550728656E+04  0.55323893141E+03  0.24278865390E+04  0.00000000000E+00 0.  1.
<mgrwt>
<rscale>  0 0.47313717E+04</rscale>
<asrwt>0</asrwt>
<pdfrwt beam="1">  1        2 0.47139387E+00 0.47313717E+04</pdfrwt>
<pdfrwt beam="2">  1       -2 0.28099818E+00 0.47313717E+04</pdfrwt>
<totfact> 0.48960348E-02</totfact>
</mgrwt>
</event>
<event>
 6    1  0.2436515E-005  0.1570883E+04  0.7818608E-02  0.8838638E-01
          2   -1    0    0  501    0  0.00000000000E+00  0.00000000000E+00  0.12229924000E+04  0.12229924000E+04  0.00000000000E+00 0.  1.
         -2   -1    0    0    0  501 -0.00000000000E+00 -0.00000000000E+00 -0.50443348808E+03  0.50443348808E+03  0.00000000000E+00 0. -1.
         23    2    1    2    0    0  0.46285753612E+02  0.73814547650E+03  0.78181834572E+02  0.74911923028E+03  0.89811505130E+02 0.  0.
         13    1    3    3    0    0  0.50850253879E+02  0.46616436822E+03  0.87116680382E+02  0.47695312403E+03  0.00000000000E+00 0.  1.
        -13    1    3    3    0    0 -0.45645002665E+01  0.27198110828E+03 -0.89348458096E+01  0.27216610625E+03  0.00000000000E+00 0. -1.
         22    1    1    2    0    0 -0.46285753612E+02 -0.73814547650E+03  0.64037707731E+03  0.97830665776E+03  0.00000000000E+00 0.  1.
<mgrwt>
<rscale>  0 0.15708830E+04</rscale>
<asrwt>0</asrwt>
<pdfrwt beam="1">  1        2 0.18815268E+00 0.15708830E+04</pdfrwt>
<pdfrwt beam="2">  1       -2 0.77605152E-01 0.15708830E+04</pdfrwt>
<totfact> 0.26103178E+01</totfact>
</mgrwt>
</event>
<event>
 6    1  0.2436515E-005  0.3395188E+04  0.7818608E-02  0.8139088E-01
          2   -1    0    0  501    0  0.00000000000E+00  0.00000000000E+00  0.17732590042E+04  0.17732590042E+04  0.00000000000E+00 0.  1.
         -2   -1    0    0    0  501 -0.00000000000E+00 -0.00000000000E+00 -0.16251572057E+04  0.16251572057E+04  0.00000000000E+00 0. -1.
         23    2    1    2    0    0  0.70623761288E+03 -0.15414074587E+04  0.20467993717E+02  0.16981224390E+04  0.92153998530E+02 0.  0.
         13    1    3    3    0    0  0.28100672513E+03 -0.65147960416E+03  0.51161197826E+02  0.71134233837E+03  0.00000000000E+00 0.  1.
        -13    1    3    3    0    0  0.42523088775E+03 -0.88992785451E+03 -0.30693204109E+02  0.98678010058E+03  0.00000000000E+00 0. -1.
         22    1    1    2    0    0 -0.70623761288E+03  0.15414074587E+04  0.12763380477E+03  0.17002937710E+04  0.00000000000E+00 0.  1.
<mgrwt>
<rscale>  0 0.33951876E+04</rscale>
<asrwt>0</asrwt>
<pdfrwt beam="1">  1        2 0.27280908E+00 0.33951876E+04</pdfrwt>
<pdfrwt beam="2">  1       -2 0.25002419E+00 0.33951876E+04</pdfrwt>
<totfact> 0.47539471E-01</totfact>
</mgrwt>
</event>
<event>
 6    1  0.2436515E-005  0.2082854E+04  0.7818608E-02  0.8568834E-01
         -2   -1    0    0    0  501 -0.00000000000E+00  0.00000000000E+00  0.19571898153E+04  0.19571898153E+04  0.00000000000E+00 0. -1.
          2   -1    0    0  501    0  0.00000000000E+00 -0.00000000000E+00 -0.55414663036E+03  0.55414663036E+03  0.00000000000E+00 0.  1.
         23    2    1    2    0    0 -0.79664000813E+03  0.41941890018E+03  0.13292151345E+04  0.16080103155E+04  0.91305994673E+02 0.  0.
         11    1    3    3    0    0 -0.21202553192E+03  0.14957003966E+03  0.34003082458E+03  0.42772302325E+03  0.00000000000E+00 0. -1.
        -11    1    3    3    0    0 -0.58461447621E+03  0.26984886052E+03  0.98918430994E+03  0.11802872923E+04  0.00000000000E+00 0.  1.
         22    1    1    2    0    0  0.79664000813E+03 -0.41941890018E+03  0.73828050444E+02  0.90332613015E+03  0.00000000000E+00 0.  1.
<mgrwt>
<rscale>  0 0.20828539E+04</rscale>
<asrwt>0</asrwt>
<pdfrwt beam="1">  1        2 0.85253329E-01 0.20828539E+04</pdfrwt>
<pdfrwt beam="2">  1       -2 0.30110612E+00 0.20828539E+04</pdfrwt>
<totfact> 0.15769491E+00</totfact>
</mgrwt>
</event>
<event>
 6    1  0.2436515E-005  0.2919274E+04  0.7818608E-02  0.8267166E-01
         -2   -1    0    0    0  501 -0.00000000000E+00  0.00000000000E+00  0.16258745941E+04  0.16258745941E+04  0.00000000000E+00 0. -1.
          2   -1    0    0  501    0  0.00000000000E+00 -0.00000000000E+00 -0.13103964982E+04  0.13103964982E+04  0.00000000000E+00 0.  1.
         23    2    1    2    0    0 -0.27430469727E+03 -0.47780954153E+03  0.15158185502E+04  0.16155280320E+04  0.93166088993E+02 0.  0.
         13    1    3    3    0    0 -0.10571733409E+03 -0.24362607932E+03  0.83081566963E+03  0.87222961320E+03  0.00000000000E+00 0. -1.
        -13    1    3    3    0    0 -0.16858736318E+03 -0.23418346222E+03  0.68500288058E+03  0.74329841881E+03  0.00000000000E+00 0.  1.
         22    1    1    2    0    0  0.27430469727E+03  0.47780954153E+03 -0.12003404544E+04  0.13207430603E+04  0.00000000000E+00 0.  1.
<mgrwt>
<rscale>  0 0.29192741E+04</rscale>
<asrwt>0</asrwt>
<pdfrwt beam="1">  1        2 0.20159946E+00 0.29192741E+04</pdfrwt>
<pdfrwt beam="2">  1       -2 0.25013455E+00 0.29192741E+04</pdfrwt>
<totfact> 0.90100860E-01</totfact>
</mgrwt>
</event>
<event>
 6    1  0.2436515E-005  0.1862361E+04  0.7818608E-02  0.8673822E-01
         -2   -1    0    0    0  501 -0.00000000000E+00  0.00000000000E+00  0.18901715299E+04  0.18901715299E+04  0.00000000000E+00 0. -1.
          2   -1    0    0  501    0  0.00000000000E+00 -0.00000000000E+00 -0.45873979483E+03  0.45873979483E+03  0.00000000000E+00 0.  1.
         23    2    1    2    0    0  0.18932140078E+03  0.20837282548E+03  0.18339759420E+04  0.18576846298E+04  0.90898849437E+02 0.  0.
         11    1    3    3    0    0  0.86690805448E+02  0.16070386190E+03  0.11099670778E+04  0.11248857457E+04  0.00000000000E+00 0. -1.
        -11    1    3    3    0    0  0.10263059533E+03  0.47668963578E+02  0.72400886423E+03  0.73279888419E+03  0.00000000000E+00 0.  1.
         22    1    1    2    0    0 -0.18932140078E+03 -0.20837282548E+03 -0.40254420697E+03  0.49122669487E+03  0.00000000000E+00 0.  1.
<mgrwt>
<rscale>  0 0.18623608E+04</rscale>
<asrwt>0</asrwt>
<pdfrwt beam="1">  1        2 0.70575354E-01 0.18623608E+04</pdfrwt>
<pdfrwt beam="2">  1       -2 0.29079562E+00 0.18623608E+04</pdfrwt>
<totfact> 0.23148865E+00</totfact>
</mgrwt>
</event>
<event>
 6    1  0.2436515E-005  0.2397665E+04  0.7818608E-02  0.8440378E-01
         -2   -1    0    0    0  501 -0.00000000000E+00  0.00000000000E+00  0.84598727820E+03  0.84598727820E+03  0.00000000000E+00 0. -1.
          2   -1    0    0  501    0  0.00000000000E+00 -0.00000000000E+00 -0.16988431416E+04  0.16988431416E+04  0.00000000000E+00 0.  1.
         23    2    1    2    0    0 -0.96281014796E+02  0.54179477401E+03  0.70147668452E+03  0.89596375435E+03  0.88712452444E+02 0.  0.
         11    1    3    3    0    0 -0.50785857252E+02  0.45591697175E+03  0.55292817809E+03  0.71844906468E+03  0.00000000000E+00 0. -1.
        -11    1    3    3    0    0 -0.45495157544E+02  0.85877802265E+02  0.14854850643E+03  0.17751468966E+03  0.00000000000E+00 0.  1.
         22    1    1    2    0    0  0.96281014796E+02 -0.54179477401E+03 -0.15543325479E+04  0.16488666655E+04  0.00000000000E+00 0.  1.
<mgrwt>
<rscale>  0 0.23976653E+04</rscale>
<asrwt>0</asrwt>
<pdfrwt beam="1">  1        2 0.26136048E+00 0.23976653E+04</pdfrwt>
<pdfrwt beam="2">  1       -2 0.13015189E+00 0.23976653E+04</pdfrwt>
<totfact> 0.38255642E+00</totfact>
</mgrwt>
</event>
<event>
 6    1  0.2436515E-005  0.3748681E+04  0.7818608E-02  0.8057258E-01
          2   -1    0    0  501    0  0.00000000000E+00  0.00000000000E+00  0.21786752793E+04  0.21786752793E+04  0.00000000000E+00 0.  1.
         -2   -1    0    0    0  501 -0.00000000000E+00 -0.00000000000E+00 -0.16125175225E+04  0.16125175225E+04  0.00000000000E+00 0. -1.
         23    2    1    2    0    0  0.37743139356E+03  0.17985255560E+04  0.65044119254E+03  0.19515590529E+04  0.91435001299E+02 0.  0.
         11    1    3    3    0    0  0.46361291405E+02  0.14328803427E+03  0.33132990999E+02  0.15420319451E+03  0.00000000000E+00 0. -1.
        -11    1    3    3    0    0  0.33107010216E+03  0.16552375218E+04  0.61730820154E+03  0.17973558584E+04  0.00000000000E+00 0.  1.
         22    1    1    2    0    0 -0.37743139356E+03 -0.17985255560E+04 -0.84283435695E+02  0.18396337489E+04  0.00000000000E+00 0.  1.
<mgrwt>
<rscale>  0 0.37486809E+04</rscale>
<asrwt>0</asrwt>
<pdfrwt beam="1">  1        2 0.33518081E+00 0.37486809E+04</pdfrwt>
<pdfrwt beam="2">  1       -2 0.24807962E+00 0.37486809E+04</pdfrwt>
<totfact> 0.28227586E-01</totfact>
</mgrwt>
</event>
<event>
 6    1  0.2436515E-005  0.8164432E+03  0.7818608E-02  0.9536517E-01
         -3   -1    0    0    0  501 -0.00000000000E+00  0.00000000000E+00  0.46385873718E+03  0.46385873718E+03  0.00000000000E+00 0. -1.
          3   -1    0    0  501    0  0.00000000000E+00 -0.00000000000E+00 -0.35925779760E+03  0.35925779760E+03  0.00000000000E+00 0.  1.
         23    2    1    2    0    0 -0.29895841026E+03  0.17566386330E+03  0.26029958289E+03  0.44301655916E+03  0.90960842670E+02 0.  0.
         11    1    3    3    0    0 -0.19001822485E+03  0.15948683669E+03  0.17231182346E+03  0.30205022986E+03  0.00000000000E+00 0. -1.
        -11    1    3    3    0    0 -0.10894018541E+03  0.16177026613E+02  0.87987759428E+02  0.14096632930E+03  0.00000000000E+00 0.  1.
         22    1    1    2    0    0  0.29895841026E+03 -0.17566386330E+03 -0.15569864331E+03  0.38009997562E+03  0.00000000000E+00 0.  1.
<mgrwt>
<rscale>  0 0.81644318E+03</rscale>
<asrwt>0</asrwt>
<pdfrwt beam="1">  1        3 0.55270430E-01 0.81644318E+03</pdfrwt>
<pdfrwt beam="2">  1       -3 0.71362883E-01 0.81644318E+03</pdfrwt>
<totfact> 0.15895333E+01</totfact>
</mgrwt>
</event>
<event>
 6    1  0.2436515E-005  0.2021821E+04  0.7818608E-02  0.8596486E-01
         -2   -1    0    0    0  501 -0.00000000000E+00  0.00000000000E+00  0.33982245753E+03  0.33982245753E+03  0.00000000000E+00 0. -1.
          2   -1    0    0  501    0  0.00000000000E+00 -0.00000000000E+00 -0.30072749468E+04  0.30072749468E+04  0.00000000000E+00 0.  1.
         23    2    1    2    0    0  0.53361188380E+03 -0.22419293167E+03  0.31258513918E+02  0.58701675481E+03  0.92776411861E+02 0.  0.
         13    1    3    3    0    0  0.44833875039E+03 -0.22312016728E+03  0.30795896813E+02  0.50173561903E+03  0.00000000000E+00 0. -1.
        -13    1    3    3    0    0  0.85273133414E+02 -0.10727643865E+01  0.46261710556E+00  0.85281135782E+02  0.00000000000E+00 0.  1.
         22    1    1    2    0    0 -0.53361188380E+03  0.22419293167E+03 -0.26987110032E+04  0.27600806495E+04  0.00000000000E+00 0.  1.
<mgrwt>
<rscale>  0 0.20218205E+04</rscale>
<asrwt>0</asrwt>
<pdfrwt beam="1">  1        2 0.46265767E+00 0.20218205E+04</pdfrwt>
<pdfrwt beam="2">  1       -2 0.52280380E-01 0.20218205E+04</pdfrwt>
<totfact> 0.55306770E+00</totfact>
</mgrwt>
</event>
<event>
 6    1  0.2436515E-005  0.1849711E+04  0.7818608E-02  0.8680302E-01
          2   -1    0    0  501    0  0.00000000000E+00  0.00000000000E+00  0.12151245940E+04  0.12151245940E+04  0.00000000000E+00 0.  1.
         -2   -1    0    0    0  501 -0.00000000000E+00 -0.00000000000E+00 -0.70392576804E+03  0.70392576804E+03  0.00000000000E+00 0. -1.
         23    2    1    2    0    0 -0.71219909783E+03 -0.11724783234E+03  0.85261229608E+03  0.11205907408E+04  0.88324808348E+02 0.  0.
         11    1    3    3    0    0 -0.54604853280E+03 -0.52594842370E+02  0.65732683370E+03  0.85616224159E+03  0.00000000000E+00 0. -1.
        -11    1    3    3    0    0 -0.16615056503E+03 -0.64652989969E+02  0.19528546239E+03  0.26442849920E+03  0.00000000000E+00 0.  1.
         22    1    1    2    0    0  0.71219909783E+03  0.11724783234E+03 -0.34141347014E+03  0.79845962123E+03  0.00000000000E+00 0. -1.
<mgrwt>
<rscale>  0 0.18497108E+04</rscale>
<asrwt>0</asrwt>
<pdfrwt beam="1">  1        2 0.18694224E+00 0.18497108E+04</pdfrwt>
<pdfrwt beam="2">  1       -2 0.10829627E+00 0.18497108E+04</pdfrwt>
<totfact> 0.11904408E+01</totfact>
</mgrwt>
</event>
<event>
 6    1  0.2436515E-005  0.4578266E+04  0.7818608E-02  0.7897076E-01
          2   -1    0    0  501    0  0.00000000000E+00  0.00000000000E+00  0.20207125803E+04  0.20207125803E+04  0.00000000000E+00 0.  1.
         -2   -1    0    0    0  501 -0.00000000000E+00 -0.00000000000E+00 -0.25932093466E+04  0.25932093466E+04  0.00000000000E+00 0. -1.
         23    2    1    2    0    0 -0.22876041056E+04  0.34232420609E+02 -0.24602983586E+03  0.23028864318E+04  0.91928424682E+02 0.  0.
         11    1    3    3    0    0 -0.12699899933E+04  0.25094158032E+02 -0.18211092988E+03  0.12832258923E+04  0.00000000000E+00 0. -1.
        -11    1    3    3    0    0 -0.10176141123E+04  0.91382625769E+01 -0.63918905985E+02  0.10196605395E+04  0.00000000000E+00 0.  1.
         22    1    1    2    0    0  0.22876041056E+04 -0.34232420609E+02 -0.32646693047E+03  0.23110354950E+04  0.00000000000E+00 0.  1.
<mgrwt>
<rscale>  0 0.45782664E+04</rscale>
<asrwt>0</asrwt>
<pdfrwt beam="1">  1        2 0.31087886E+00 0.45782664E+04</pdfrwt>
<pdfrwt beam="2">  1       -2 0.39895528E+00 0.45782664E+04</pdfrwt>
<totfact> 0.36944475E-02</totfact>
</mgrwt>
</event>
<event>
 6    1  0.2436515E-005  0.4052623E+04  0.7818608E-02  0.7994014E-01
         -2   -1    0    0    0  501 -0.00000000000E+00  0.00000000000E+00  0.15451979888E+04  0.15451979888E+04  0.00000000000E+00 0. -1.
          2   -1    0    0  501    0  0.00000000000E+00 -0.00000000000E+00 -0.26572246372E+04  0.26572246372E+04  0.00000000000E+00 0.  1.
         23    2    1    2    0    0 -0.13999454835E+04  0.12455084632E+04 -0.13531548394E+04  0.23131684098E+04  0.92635760344E+02 0.  0.
         11    1    3    3    0    0 -0.94546896748E+03  0.87767715582E+03 -0.88991987982E+03  0.15672224318E+04  0.00000000000E+00 0. -1.
        -11    1    3    3    0    0 -0.45447651603E+03  0.36783130742E+03 -0.46323495960E+03  0.74594597803E+03  0.00000000000E+00 0.  1.
         22    1    1    2    0    0  0.13999454835E+04 -0.12455084632E+04  0.24112819110E+03  0.18892542162E+04  0.00000000000E+00 0.  1.
<mgrwt>
<rscale>  0 0.40526229E+04</rscale>
<asrwt>0</asrwt>
<pdfrwt beam="1">  1        2 0.40880379E+00 0.40526229E+04</pdfrwt>
<pdfrwt beam="2">  1       -2 0.23772277E+00 0.40526229E+04</pdfrwt>
<totfact> 0.16923537E-01</totfact>
</mgrwt>
</event>
<event>
 6    1  0.2436515E-005  0.1999689E+04  0.7818608E-02  0.8606766E-01
         -2   -1    0    0    0  501 -0.00000000000E+00  0.00000000000E+00  0.29856385070E+03  0.29856385070E+03  0.00000000000E+00 0. -1.
          2   -1    0    0  501    0  0.00000000000E+00 -0.00000000000E+00 -0.33483256830E+04  0.33483256830E+04  0.00000000000E+00 0.  1.
         23    2    1    2    0    0  0.47746127938E+03 -0.23206100270E+03 -0.30687360501E+04  0.31156818500E+04  0.92254335766E+02 0.  0.
         13    1    3    3    0    0  0.18798895840E+03 -0.11704918525E+03 -0.10542906626E+04  0.10772971556E+04  0.00000000000E+00 0.  1.
        -13    1    3    3    0    0  0.28947232098E+03 -0.11501181745E+03 -0.20144453876E+04  0.20383846944E+04  0.00000000000E+00 0. -1.
         22    1    1    2    0    0 -0.47746127938E+03  0.23206100270E+03  0.18974217880E+02  0.53120768371E+03  0.00000000000E+00 0. -1.
<mgrwt>
<rscale>  0 0.19996890E+04</rscale>
<asrwt>0</asrwt>
<pdfrwt beam="1">  1        2 0.51512704E+00 0.19996890E+04</pdfrwt>
<pdfrwt beam="2">  1       -2 0.45932899E-01 0.19996890E+04</pdfrwt>
<totfact> 0.43355846E+00</totfact>
</mgrwt>
</event>
<event>
 6    1  0.2436515E-005  0.1406509E+04  0.7818608E-02  0.8949121E-01
          2   -1    0    0  501    0  0.00000000000E+00  0.00000000000E+00  0.10854681311E+04  0.10854681311E+04  0.00000000000E+00 0.  1.
         -2   -1    0    0    0  501 -0.00000000000E+00 -0.00000000000E+00 -0.45562525682E+03  0.45562525682E+03  0.00000000000E+00 0. -1.
         23    2    1    2    0    0 -0.25448715305E+03  0.53463605467E+02 -0.39615318288E+03  0.48265587089E+03  0.91636658726E+02 0.  0.
         13    1    3    3    0    0 -0.14415789979E+03  0.39325452816E+01 -0.14822128938E+03  0.20680066637E+03  0.00000000000E+00 0. -1.
        -13    1    3    3    0    0 -0.11032925325E+03  0.49531060186E+02 -0.24793189350E+03  0.27585520452E+03  0.00000000000E+00 0.  1.
         22    1    1    2    0    0  0.25448715305E+03 -0.53463605467E+02  0.10259960572E+04  0.10584375170E+04  0.00000000000E+00 0.  1.
<mgrwt>
<rscale>  0 0.14065087E+04</rscale>
<asrwt>0</asrwt>
<pdfrwt beam="1">  1        2 0.16699510E+00 0.14065087E+04</pdfrwt>
<pdfrwt beam="2">  1       -2 0.70096194E-01 0.14065087E+04</pdfrwt>
<totfact> 0.40110793E+01</totfact>
</mgrwt>
</event>
<event>
 6    1  0.2436515E-005  0.4605249E+04  0.7818608E-02  0.7892466E-01
         -2   -1    0    0    0  501 -0.00000000000E+00  0.00000000000E+00  0.18689819393E+04  0.18689819393E+04  0.00000000000E+00 0. -1.
          2   -1    0    0  501    0  0.00000000000E+00 -0.00000000000E+00 -0.28368806627E+04  0.28368806627E+04  0.00000000000E+00 0.  1.
         23    2    1    2    0    0 -0.12188346876E+04  0.60160888922E+03 -0.23822359096E+04  0.27442711747E+04  0.92114602113E+02 0.  0.
         13    1    3    3    0    0 -0.38358133689E+03  0.18290135399E+03 -0.83202776835E+03  0.93426856663E+03  0.00000000000E+00 0. -1.
        -13    1    3    3    0    0 -0.83525335075E+03  0.41870753524E+03 -0.15502081413E+04  0.18100026081E+04  0.00000000000E+00 0.  1.
         22    1    1    2    0    0  0.12188346876E+04 -0.60160888922E+03  0.14143371863E+04  0.19615914273E+04  0.00000000000E+00 0. -1.
<mgrwt>
<rscale>  0 0.46052486E+04</rscale>
<asrwt>0</asrwt>
<pdfrwt beam="1">  1        2 0.43644318E+00 0.46052486E+04</pdfrwt>
<pdfrwt beam="2">  1       -2 0.28753568E+00 0.46052486E+04</pdfrwt>
<totfact> 0.62485341E-02</totfact>
</mgrwt>
</event>
<event>
 6    1  0.2436515E-005  0.2130839E+04  0.7818608E-02  0.8547779E-01
         -4   -1    0    0    0  501 -0.00000000000E+00  0.00000000000E+00  0.40937833296E+03  0.40937833296E+03  0.00000000000E+00 0.  1.
          4   -1    0    0  501    0  0.00000000000E+00 -0.00000000000E+00 -0.27727862476E+04  0.27727862476E+04  0.00000000000E+00 0. -1.
         23    2    1    2    0    0 -0.94506444298E+03 -0.44098581425E+03 -0.14923851366E+04  0.18233798406E+04  0.99425134068E+02 0.  0.
         11    1    3    3    0    0 -0.88691431649E+03 -0.43799492951E+03 -0.14177108096E+04  0.17286875087E+04  0.00000000000E+00 0. -1.
        -11    1    3    3    0    0 -0.58150126485E+02 -0.29908847475E+01 -0.74674327024E+02  0.94692331887E+02  0.00000000000E+00 0.  1.
         22    1    1    2    0    0  0.94506444298E+03  0.44098581425E+03 -0.87102277800E+03  0.13587847400E+04  0.00000000000E+00 0. -1.
<mgrwt>
<rscale>  0 0.21308389E+04</rscale>
<asrwt>0</asrwt>
<pdfrwt beam="1">  1        4 0.42658250E+00 0.21308389E+04</pdfrwt>
<pdfrwt beam="2">  1       -4 0.62981282E-01 0.21308389E+04</pdfrwt>
<totfact> 0.19212941E-02</totfact>
</mgrwt>
</event>
<event>
 6    1  0.2436515E-005  0.3073434E+04  0.7818608E-02  0.8223067E-01
          2   -1    0    0  501    0  0.00000000000E+00  0.00000000000E+00  0.28752535872E+04  0.28752535872E+04  0.00000000000E+00 0.  1.
         -2   -1    0    0    0  501 -0.00000000000E+00 -0.00000000000E+00 -0.82131839175E+03  0.82131839175E+03  0.00000000000E+00 0. -1.
         23    2    1    2    0    0 -0.85375790849E+03 -0.29968992528E+03 -0.46372332557E+03  0.10212549798E+04  0.95946825944E+02 0.  0.
         11    1    3    3    0    0 -0.66274383394E+03 -0.27406921424E+03 -0.36590380271E+03  0.80512664622E+03  0.00000000000E+00 0. -1.
        -11    1    3    3    0    0 -0.19101407455E+03 -0.25620711038E+02 -0.97819522867E+02  0.21612833355E+03  0.00000000000E+00 0.  1.
         22    1    1    2    0    0  0.85375790849E+03  0.29968992528E+03  0.25176585211E+04  0.26753169992E+04  0.00000000000E+00 0.  1.
<mgrwt>
<rscale>  0 0.30734337E+04</rscale>
<asrwt>0</asrwt>
<pdfrwt beam="1">  1        2 0.44234670E+00 0.30734337E+04</pdfrwt>
<pdfrwt beam="2">  1       -2 0.12635668E+00 0.30734337E+04</pdfrwt>
<totfact> 0.82568695E-01</totfact>
</mgrwt>
</event>
<event>
 6    1  0.2436515E-005  0.3649847E+04  0.7818608E-02  0.8079168E-01
          2   -1    0    0  501    0  0.00000000000E+00  0.00000000000E+00  0.21160475088E+04  0.21160475088E+04  0.00000000000E+00 0.  1.
         -2   -1    0    0    0  501 -0.00000000000E+00 -0.00000000000E+00 -0.15738518398E+04  0.15738518398E+04  0.00000000000E+00 0. -1.
         23    2    1    2    0    0 -0.46052238746E+03  0.97132697272E+03  0.17607732256E+04  0.20649414358E+04  0.90021241997E+02 0.  0.
         13    1    3    3    0    0 -0.36227169916E+03  0.78541548490E+03  0.14791366690E+04  0.17134653640E+04  0.00000000000E+00 0. -1.
        -13    1    3    3    0    0 -0.98250688302E+02  0.18591148782E+03  0.28163655652E+03  0.35147607176E+03  0.00000000000E+00 0.  1.
         22    1    1    2    0    0  0.46052238746E+03 -0.97132697272E+03 -0.12185775566E+04  0.16249579129E+04  0.00000000000E+00 0. -1.
<mgrwt>
<rscale>  0 0.36498467E+04</rscale>
<asrwt>0</asrwt>
<pdfrwt beam="1">  1        2 0.32554577E+00 0.36498467E+04</pdfrwt>
<pdfrwt beam="2">  1       -2 0.24213105E+00 0.36498467E+04</pdfrwt>
<totfact> 0.33574688E-01</totfact>
</mgrwt>
</event>
<event>
 6    1  0.2436515E-005  0.1046817E+04  0.7818608E-02  0.9258636E-01
         -2   -1    0    0    0  501 -0.00000000000E+00  0.00000000000E+00  0.28872788511E+03  0.28872788511E+03  0.00000000000E+00 0. -1.
          2   -1    0    0  501    0  0.00000000000E+00 -0.00000000000E+00 -0.94883990452E+03  0.94883990452E+03  0.00000000000E+00 0.  1.
         23    2    1    2    0    0 -0.21091898052E+03  0.21431248925E+03  0.16698074526E+03  0.35751148419E+03  0.97546053974E+02 0.  0.
         11    1    3    3    0    0 -0.98225324397E+02  0.59948454886E+02  0.10716593679E+03  0.15724684290E+03  0.00000000000E+00 0. -1.
        -11    1    3    3    0    0 -0.11269365612E+03  0.15436403436E+03  0.59814808477E+02  0.20026464128E+03  0.00000000000E+00 0.  1.
         22    1    1    2    0    0  0.21091898052E+03 -0.21431248925E+03 -0.82709276467E+03  0.88005630545E+03  0.00000000000E+00 0.  1.
<mgrwt>
<rscale>  0 0.10468172E+04</rscale>
<asrwt>0</asrwt>
<pdfrwt beam="1">  1        2 0.14597537E+00 0.10468172E+04</pdfrwt>
<pdfrwt beam="2">  1       -2 0.44419674E-01 0.10468172E+04</pdfrwt>
<totfact> 0.13012162E+02</totfact>
</mgrwt>
</event>
<event>
 6    1  0.2436515E-005  0.1051182E+04  0.7818608E-02  0.9254125E-01
         -1   -1    0    0    0  501 -0.00000000000E+00  0.00000000000E+00  0.36142437644E+03  0.36142437644E+03  0.00000000000E+00 0. -1.
          1   -1    0    0  501    0  0.00000000000E+00 -0.00000000000E+00 -0.76432507389E+03  0.76432507389E+03  0.00000000000E+00 0.  1.
         23    2    1    2    0    0  0.48766349370E+03 -0.17382569584E+03 -0.27334860165E+03  0.59206902053E+03  0.88290494533E+02 0.  0.
         13    1    3    3    0    0  0.32849600543E+03 -0.13632934464E+03 -0.14455857635E+03  0.38391730593E+03  0.00000000000E+00 0.  1.
        -13    1    3    3    0    0  0.15916748828E+03 -0.37496351194E+02 -0.12879002530E+03  0.20815171461E+03  0.00000000000E+00 0. -1.
         22    1    1    2    0    0 -0.48766349370E+03  0.17382569584E+03 -0.12955209580E+03  0.53368042980E+03  0.00000000000E+00 0. -1.
<mgrwt>
<rscale>  0 0.10511816E+04</rscale>
<asrwt>0</asrwt>
<pdfrwt beam="1">  1        1 0.11758847E+00 0.10511816E+04</pdfrwt>
<pdfrwt beam="2">  1       -1 0.55603751E-01 0.10511816E+04</pdfrwt>
<totfact> 0.77727672E+01</totfact>
</mgrwt>
</event>
<event>
 6    1  0.2436515E-005  0.3417584E+04  0.7818608E-02  0.8133604E-01
          2   -1    0    0  501    0  0.00000000000E+00  0.00000000000E+00  0.40861088242E+04  0.40861088242E+04  0.00000000000E+00 0.  1.
         -2   -1    0    0    0  501 -0.00000000000E+00 -0.00000000000E+00 -0.71460901382E+03  0.71460901382E+03  0.00000000000E+00 0. -1.
         23    2    1    2    0    0 -0.63915677683E+03 -0.13832815636E+04  0.60440738135E+03  0.16417955882E+04  0.90527349823E+02 0.  0.
         11    1    3    3    0    0 -0.53234022711E+03 -0.10665025030E+04  0.48329053318E+03  0.12862283801E+04  0.00000000000E+00 0.  1.
        -11    1    3    3    0    0 -0.10681654971E+03 -0.31677906063E+03  0.12111684817E+03  0.35556720807E+03  0.00000000000E+00 0. -1.
         22    1    1    2    0    0  0.63915677683E+03  0.13832815636E+04  0.27670924290E+04  0.31589222498E+04  0.00000000000E+00 0. -1.
<mgrwt>
<rscale>  0 0.34175841E+04</rscale>
<asrwt>0</asrwt>
<pdfrwt beam="1">  1        2 0.62863212E+00 0.34175841E+04</pdfrwt>
<pdfrwt beam="2">  1       -2 0.10993985E+00 0.34175841E+04</pdfrwt>
<totfact> 0.15776874E-01</totfact>
</mgrwt>
</event>
<event>
 6    1  0.2436515E-005  0.2278046E+04  0.7818608E-02  0.8486628E-01
          1   -1    0    0  501    0  0.00000000000E+00  0.00000000000E+00  0.11016994952E+04  0.11016994952E+04  0.00000000000E+00 0.  1.
         -1   -1    0    0    0  501 -0.00000000000E+00 -0.00000000000E+00 -0.11776109541E+04  0.11776109541E+04  0.00000000000E+00 0. -1.
         23    2    1    2    0    0 -0.63259400766E+03  0.13671555102E+03 -0.97457857241E+03  0.11718498851E+04  0.67545828151E+02 0.  0.
         11    1    3    3    0    0 -0.33852727074E+03  0.38659637779E+02 -0.50877004893E+03  0.61232527575E+03  0.00000000000E+00 0. -1.
        -11    1    3    3    0    0 -0.29406673691E+03  0.98055913242E+02 -0.46580852348E+03  0.55952460931E+03  0.00000000000E+00 0.  1.
         22    1    1    2    0    0  0.63259400766E+03 -0.13671555102E+03  0.89866711350E+03  0.11074605642E+04  0.00000000000E+00 0.  1.
<mgrwt>
<rscale>  0 0.22780460E+04</rscale>
<asrwt>0</asrwt>
<pdfrwt beam="1">  1        1 0.16949223E+00 0.22780460E+04</pdfrwt>
<pdfrwt beam="2">  1       -1 0.18117091E+00 0.22780460E+04</pdfrwt>
<totfact> 0.23368517E+00</totfact>
</mgrwt>
</event>
<event>
 6    1  0.2436515E-005  0.4479872E+04  0.7818608E-02  0.7914170E-01
          2   -1    0    0  501    0  0.00000000000E+00  0.00000000000E+00  0.31711228548E+04  0.31711228548E+04  0.00000000000E+00 0.  1.
         -2   -1    0    0    0  501 -0.00000000000E+00 -0.00000000000E+00 -0.15821883310E+04  0.15821883310E+04  0.00000000000E+00 0. -1.
         23    2    1    2    0    0  0.15517261650E+04 -0.63352931941E+03  0.23698316879E+04  0.29042536229E+04  0.96816255193E+02 0.  0.
         13    1    3    3    0    0  0.11955072189E+04 -0.52389826667E+03  0.18033015272E+04  0.22261184386E+04  0.00000000000E+00 0. -1.
        -13    1    3    3    0    0  0.35621894609E+03 -0.10963105274E+03  0.56653016068E+03  0.67813518434E+03  0.00000000000E+00 0.  1.
         22    1    1    2    0    0 -0.15517261650E+04  0.63352931941E+03 -0.78089716413E+03  0.18490575628E+04  0.00000000000E+00 0. -1.
<mgrwt>
<rscale>  0 0.44798721E+04</rscale>
<asrwt>0</asrwt>
<pdfrwt beam="1">  1        2 0.48786505E+00 0.44798721E+04</pdfrwt>
<pdfrwt beam="2">  1       -2 0.24341359E+00 0.44798721E+04</pdfrwt>
<totfact> 0.72449277E-02</totfact>
</mgrwt>
</event>
<event>
 6    1  0.2436515E-005  0.2178788E+04  0.7818608E-02  0.8527309E-01
          2   -1    0    0  501    0  0.00000000000E+00  0.00000000000E+00  0.12926236038E+04  0.12926236038E+04  0.00000000000E+00 0.  1.
         -2   -1    0    0    0  501 -0.00000000000E+00 -0.00000000000E+00 -0.91811680388E+03  0.91811680388E+03  0.00000000000E+00 0. -1.
         23    2    1    2    0    0  0.52797062302E+03  0.73975083910E+03  0.79369221767E+03  0.12098904203E+04  0.88900000800E+02 0.  0.
         11    1    3    3    0    0  0.23978000171E+03  0.31355243890E+03  0.28924759762E+03  0.48936055612E+03  0.00000000000E+00 0.  1.
        -11    1    3    3    0    0  0.28819062131E+03  0.42619840020E+03  0.50444462005E+03  0.72052986423E+03  0.00000000000E+00 0. -1.
         22    1    1    2    0    0 -0.52797062302E+03 -0.73975083910E+03 -0.41918541775E+03  0.10008499873E+04  0.00000000000E+00 0. -1.
<mgrwt>
<rscale>  0 0.21787882E+04</rscale>
<asrwt>0</asrwt>
<pdfrwt beam="1">  1        2 0.19886517E+00 0.21787882E+04</pdfrwt>
<pdfrwt beam="2">  1       -2 0.14124874E+00 0.21787882E+04</pdfrwt>
<totfact> 0.53660168E+00</totfact>
</mgrwt>
</event>
<event>
 6    1  0.2436515E-005  0.3867534E+04  0.7818608E-02  0.8031816E-01
          2   -1    0    0  501    0  0.00000000000E+00  0.00000000000E+00  0.21161910823E+04  0.21161910823E+04  0.00000000000E+00 0.  1.
         -2   -1    0    0    0  501 -0.00000000000E+00 -0.00000000000E+00 -0.17670684179E+04  0.17670684179E+04  0.00000000000E+00 0. -1.
         23    2    1    2    0    0 -0.79680321190E+03 -0.73673754457E+03 -0.14310409158E+04  0.17983950106E+04  0.93107159522E+02 0.  0.
         13    1    3    3    0    0 -0.46308516089E+03 -0.36917095565E+03 -0.80570504293E+03  0.99994783711E+03  0.00000000000E+00 0. -1.
        -13    1    3    3    0    0 -0.33371805100E+03 -0.36756658891E+03 -0.62533587292E+03  0.79844717346E+03  0.00000000000E+00 0.  1.
         22    1    1    2    0    0  0.79680321190E+03  0.73673754457E+03  0.17801635802E+04  0.20848644897E+04  0.00000000000E+00 0.  1.
<mgrwt>
<rscale>  0 0.38675338E+04</rscale>
<asrwt>0</asrwt>
<pdfrwt beam="1">  1        2 0.32556786E+00 0.38675338E+04</pdfrwt>
<pdfrwt beam="2">  1       -2 0.27185668E+00 0.38675338E+04</pdfrwt>
<totfact> 0.21668177E-01</totfact>
</mgrwt>
</event>
<event>
 6    1  0.2436515E-005  0.3208661E+04  0.7818608E-02  0.8186534E-01
          2   -1    0    0  501    0  0.00000000000E+00  0.00000000000E+00  0.11527524925E+04  0.11527524925E+04  0.00000000000E+00 0.  1.
         -2   -1    0    0    0  501 -0.00000000000E+00 -0.00000000000E+00 -0.22328093157E+04  0.22328093157E+04  0.00000000000E+00 0. -1.
         23    2    1    2    0    0  0.14201638567E+04 -0.74034697757E+03 -0.46908338301E+03  0.16714242491E+04  0.92955759834E+02 0.  0.
         11    1    3    3    0    0  0.73636037849E+03 -0.36780177715E+03 -0.28709589050E+03  0.87173895441E+03  0.00000000000E+00 0. -1.
        -11    1    3    3    0    0  0.68380347816E+03 -0.37254520042E+03 -0.18198749251E+03  0.79968529468E+03  0.00000000000E+00 0.  1.
         22    1    1    2    0    0 -0.14201638567E+04  0.74034697757E+03 -0.61097344013E+03  0.17141375591E+04  0.00000000000E+00 0.  1.
<mgrwt>
<rscale>  0 0.32086611E+04</rscale>
<asrwt>0</asrwt>
<pdfrwt beam="1">  1        2 0.17734654E+00 0.32086611E+04</pdfrwt>
<pdfrwt beam="2">  1       -2 0.34350912E+00 0.32086611E+04</pdfrwt>
<totfact> 0.29077840E-01</totfact>
</mgrwt>
</event>
<event>
 6    1  0.2436515E-005  0.3358291E+04  0.7818608E-02  0.8148220E-01
         -2   -1    0    0    0  501 -0.00000000000E+00  0.00000000000E+00  0.96377321560E+03  0.96377321560E+03  0.00000000000E+00 0. -1.
          2   -1    0    0  501    0  0.00000000000E+00 -0.00000000000E+00 -0.29255120877E+04  0.29255120877E+04  0.00000000000E+00 0.  1.
         23    2    1    2    0    0 -0.12787309484E+04 -0.75825385740E+03 -0.80628441659E+02  0.14916451714E+04  0.91665812345E+02 0.  0.
         13    1    3    3    0    0 -0.94152063013E+03 -0.59725933170E+03 -0.81747394156E+02  0.11179724696E+04  0.00000000000E+00 0. -1.
        -13    1    3    3    0    0 -0.33721031825E+03 -0.16099452570E+03  0.11189524971E+01  0.37367270183E+03  0.00000000000E+00 0.  1.
         22    1    1    2    0    0  0.12787309484E+04  0.75825385740E+03 -0.18811104305E+04  0.23976401319E+04  0.00000000000E+00 0.  1.
<mgrwt>
<rscale>  0 0.33582913E+04</rscale>
<asrwt>0</asrwt>
<pdfrwt beam="1">  1        2 0.45007878E+00 0.33582913E+04</pdfrwt>
<pdfrwt beam="2">  1       -2 0.14827280E+00 0.33582913E+04</pdfrwt>
<totfact> 0.49727764E-01</totfact>
</mgrwt>
</event>
<event>
 6    1  0.2436515E-005  0.1690466E+04  0.7818608E-02  0.8766821E-01
          2   -1    0    0  501    0  0.00000000000E+00  0.00000000000E+00  0.15819209755E+04  0.15819209755E+04  0.00000000000E+00 0.  1.
         -2   -1    0    0    0  501 -0.00000000000E+00 -0.00000000000E+00 -0.45161490167E+03  0.45161490167E+03  0.00000000000E+00 0. -1.
         23    2    1    2    0    0  0.70579897519E+03 -0.24308282411E+03  0.96017034016E+02  0.75799862932E+03  0.90006657929E+02 0.  0.
         11    1    3    3    0    0  0.22886000976E+03 -0.66907293401E+02  0.71672284826E+02  0.24897872678E+03  0.00000000000E+00 0.  1.
        -11    1    3    3    0    0  0.47693896543E+03 -0.17617553071E+03  0.24344749191E+02  0.50901990254E+03  0.00000000000E+00 0. -1.
         22    1    1    2    0    0 -0.70579897519E+03  0.24308282411E+03  0.10342890398E+04  0.12755372478E+04  0.00000000000E+00 0.  1.
<mgrwt>
<rscale>  0 0.16904663E+04</rscale>
<asrwt>0</asrwt>
<pdfrwt beam="1">  1        2 0.24337245E+00 0.16904663E+04</pdfrwt>
<pdfrwt beam="2">  1       -2 0.69479217E-01 0.16904663E+04</pdfrwt>
<totfact> 0.20537263E+01</totfact>
</mgrwt>
</event>
<event>
 6    1  0.2436515E-005  0.1575106E+04  0.7818608E-02  0.8835989E-01
          2   -1    0    0  501    0  0.00000000000E+00  0.00000000000E+00  0.10559594992E+04  0.10559594992E+04  0.00000000000E+00 0.  1.
         -2   -1    0    0    0  501 -0.00000000000E+00 -0.00000000000E+00 -0.58737080708E+03  0.58737080708E+03  0.00000000000E+00 0. -1.
         23    2    1    2    0    0  0.64188810077E+03 -0.37075669014E+03 -0.32174348352E+02  0.74876645729E+03  0.10067354011E+03 0.  0.
         11    1    3    3    0    0  0.20989705770E+03 -0.11646306358E+03 -0.57549227045E+02  0.24684475595E+03  0.00000000000E+00 0. -1.
        -11    1    3    3    0    0  0.43199104307E+03 -0.25429362656E+03  0.25374878694E+02  0.50192170134E+03  0.00000000000E+00 0.  1.
         22    1    1    2    0    0 -0.64188810077E+03  0.37075669014E+03  0.50076304043E+03  0.89456384895E+03  0.00000000000E+00 0. -1.
<mgrwt>
<rscale>  0 0.15751061E+04</rscale>
<asrwt>0</asrwt>
<pdfrwt beam="1">  1        2 0.16245531E+00 0.15751061E+04</pdfrwt>
<pdfrwt beam="2">  1       -2 0.90364740E-01 0.15751061E+04</pdfrwt>
<totfact> 0.23348682E+01</totfact>
</mgrwt>
</event>
<event>
 6    1  0.2436515E-005  0.3396230E+04  0.7818608E-02  0.8138832E-01
         -2   -1    0    0    0  501 -0.00000000000E+00  0.00000000000E+00  0.88682269723E+03  0.88682269723E+03  0.00000000000E+00 0. -1.
          2   -1    0    0  501    0  0.00000000000E+00 -0.00000000000E+00 -0.32516028691E+04  0.32516028691E+04  0.00000000000E+00 0.  1.
         23    2    1    2    0    0  0.10764460562E+03 -0.10559443131E+03 -0.32427781366E+04  0.32475731817E+04  0.91564088718E+02 0.  0.
         13    1    3    3    0    0  0.38810957578E+02 -0.15220436292E+01 -0.14190920401E+04  0.14196234801E+04  0.00000000000E+00 0.  1.
        -13    1    3    3    0    0  0.68833648038E+02 -0.10407238768E+03 -0.18236860966E+04  0.18279497017E+04  0.00000000000E+00 0. -1.
         22    1    1    2    0    0 -0.10764460562E+03  0.10559443131E+03  0.87799796475E+03  0.89085238460E+03  0.00000000000E+00 0. -1.
<mgrwt>
<rscale>  0 0.33962304E+04</rscale>
<asrwt>0</asrwt>
<pdfrwt beam="1">  1        2 0.50024660E+00 0.33962304E+04</pdfrwt>
<pdfrwt beam="2">  1       -2 0.13643426E+00 0.33962304E+04</pdfrwt>
<totfact> 0.38123158E-01</totfact>
</mgrwt>
</event>
<event>
 6    1  0.2436515E-005  0.5266839E+04  0.7818608E-02  0.7788613E-01
         -2   -1    0    0    0  501 -0.00000000000E+00  0.00000000000E+00  0.17319391953E+04  0.17319391953E+04  0.00000000000E+00 0. -1.
          2   -1    0    0  501    0  0.00000000000E+00 -0.00000000000E+00 -0.40041226471E+04  0.40041226471E+04  0.00000000000E+00 0.  1.
         23    2    1    2    0    0 -0.13897626527E+04 -0.16803379448E+04  0.47004018211E+03  0.22325255863E+04  0.90867382085E+02 0.  0.
         13    1    3    3    0    0 -0.21630805372E+03 -0.24110994105E+03  0.39777513507E+02  0.32635169428E+03  0.00000000000E+00 0. -1.
        -13    1    3    3    0    0 -0.11734545990E+04 -0.14392280037E+04  0.43026266861E+03  0.19061738920E+04  0.00000000000E+00 0.  1.
         22    1    1    2    0    0  0.13897626527E+04  0.16803379448E+04 -0.27422236339E+04  0.35035362561E+04  0.00000000000E+00 0. -1.
<mgrwt>
<rscale>  0 0.52668385E+04</rscale>
<asrwt>0</asrwt>
<pdfrwt beam="1">  1        2 0.61601887E+00 0.52668385E+04</pdfrwt>
<pdfrwt beam="2">  1       -2 0.26645219E+00 0.52668385E+04</pdfrwt>
<totfact> 0.12268843E-02</totfact>
</mgrwt>
</event>
<event>
 6    1  0.2436515E-005  0.3922899E+04  0.7818608E-02  0.8020283E-01
         -2   -1    0    0    0  501 -0.00000000000E+00  0.00000000000E+00  0.20137787615E+04  0.20137787615E+04  0.00000000000E+00 0. -1.
          2   -1    0    0  501    0  0.00000000000E+00 -0.00000000000E+00 -0.19104798397E+04  0.19104798397E+04  0.00000000000E+00 0.  1.
         23    2    1    2    0    0 -0.18299441206E+04 -0.58233279081E+03 -0.34260023474E+03  0.19528040565E+04  0.90894435883E+02 0.  0.
         11    1    3    3    0    0 -0.90994170698E+03 -0.25026648858E+03 -0.14209685532E+03  0.95436824219E+03  0.00000000000E+00 0. -1.
        -11    1    3    3    0    0 -0.92000241364E+03 -0.33206630223E+03 -0.20050337942E+03  0.99843581433E+03  0.00000000000E+00 0.  1.
         22    1    1    2    0    0  0.18299441206E+04  0.58233279081E+03  0.44589915649E+03  0.19714545446E+04  0.00000000000E+00 0.  1.
<mgrwt>
<rscale>  0 0.39228988E+04</rscale>
<asrwt>0</asrwt>
<pdfrwt beam="1">  1        2 0.29391997E+00 0.39228988E+04</pdfrwt>
<pdfrwt beam="2">  1       -2 0.30981212E+00 0.39228988E+04</pdfrwt>
<totfact> 0.16455335E-01</totfact>
</mgrwt>
</event>
<event>
 6    1  0.2436515E-005  0.1917243E+04  0.7818608E-02  0.8646320E-01
         -2   -1    0    0    0  501 -0.00000000000E+00  0.00000000000E+00  0.57689864363E+03  0.57689864363E+03  0.00000000000E+00 0.  1.
          2   -1    0    0  501    0  0.00000000000E+00 -0.00000000000E+00 -0.15929239011E+04  0.15929239011E+04  0.00000000000E+00 0. -1.
         23    2    1    2    0    0 -0.92428265683E+03  0.24580621964E+03 -0.51750434916E+03  0.10912854692E+04  0.91510089800E+02 0.  0.
         11    1    3    3    0    0 -0.66473698395E+03  0.20916049178E+03 -0.34592426825E+03  0.77800190779E+03  0.00000000000E+00 0. -1.
        -11    1    3    3    0    0 -0.25954567288E+03  0.36645727857E+02 -0.17158008091E+03  0.31328356140E+03  0.00000000000E+00 0.  1.
         22    1    1    2    0    0  0.92428265683E+03 -0.24580621964E+03 -0.49852090833E+03  0.10785370756E+04  0.00000000000E+00 0. -1.
<mgrwt>
<rscale>  0 0.19172435E+04</rscale>
<asrwt>0</asrwt>
<pdfrwt beam="1">  1        2 0.24506521E+00 0.19172435E+04</pdfrwt>
<pdfrwt beam="2">  1       -2 0.88753639E-01 0.19172435E+04</pdfrwt>
<totfact> 0.11487323E+01</totfact>
</mgrwt>
</event>
<event>
 6    1  0.2436515E-005  0.2975381E+04  0.7818608E-02  0.8250796E-01
          2   -1    0    0  501    0  0.00000000000E+00  0.00000000000E+00  0.11502664869E+04  0.11502664869E+04  0.00000000000E+00 0.  1.
         -2   -1    0    0    0  501 -0.00000000000E+00 -0.00000000000E+00 -0.19240958080E+04  0.19240958080E+04  0.00000000000E+00 0. -1.
         23    2    1    2    0    0 -0.89012848054E+03 -0.11741688646E+04 -0.58944861487E+03  0.15894389032E+04  0.88685529760E+02 0.  0.
         11    1    3    3    0    0 -0.47923769468E+03 -0.58082529525E+03 -0.26685426688E+03  0.79889798558E+03  0.00000000000E+00 0.  1.
        -11    1    3    3    0    0 -0.41089078586E+03 -0.59334356931E+03 -0.32259434799E+03  0.79054091766E+03  0.00000000000E+00 0. -1.
         22    1    1    2    0    0  0.89012848054E+03  0.11741688646E+04 -0.18438070626E+03  0.14849233917E+04  0.00000000000E+00 0.  1.
<mgrwt>
<rscale>  0 0.29753809E+04</rscale>
<asrwt>0</asrwt>
<pdfrwt beam="1">  1        2 0.17696408E+00 0.29753809E+04</pdfrwt>
<pdfrwt beam="2">  1       -2 0.29601474E+00 0.29753809E+04</pdfrwt>
<totfact> 0.58520870E-01</totfact>
</mgrwt>
</event>
<event>
 6    1  0.2436515E-005  0.1503592E+04  0.7818608E-02  0.8882068E-01
         -2   -1    0    0    0  501 -0.00000000000E+00  0.00000000000E+00  0.13168596192E+03  0.13168596192E+03  0.00000000000E+00 0. -1.
          2   -1    0    0  501    0  0.00000000000E+00 -0.00000000000E+00 -0.42920106988E+04  0.42920106988E+04  0.00000000000E+00 0.  1.
         23    2    1    2    0    0 -0.55706330671E+03 -0.17371505404E+03 -0.34693637989E+04  0.35193054480E+04  0.92353776976E+02 0.  0.
         11    1    3    3    0    0 -0.46823553383E+03 -0.12361226393E+03 -0.30142829294E+04  0.30529372881E+04  0.00000000000E+00 0.  1.
        -11    1    3    3    0    0 -0.88827772882E+02 -0.50102790108E+02 -0.45508086947E+03  0.46636815990E+03  0.00000000000E+00 0. -1.
         22    1    1    2    0    0  0.55706330671E+03  0.17371505404E+03 -0.69096093803E+03  0.90439121268E+03  0.00000000000E+00 0. -1.
<mgrwt>
<rscale>  0 0.15035924E+04</rscale>
<asrwt>0</asrwt>
<pdfrwt beam="1">  1        2 0.66030926E+00 0.15035924E+04</pdfrwt>
<pdfrwt beam="2">  1       -2 0.20259381E-01 0.15035924E+04</pdfrwt>
<totfact> 0.40116974E+00</totfact>
</mgrwt>
</event>
<event>
 6    1  0.2436515E-005  0.7690302E+03  0.7818608E-02  0.9605959E-01
         -2   -1    0    0    0  501 -0.00000000000E+00  0.00000000000E+00  0.23223800353E+03  0.23223800353E+03  0.00000000000E+00 0. -1.
          2   -1    0    0  501    0  0.00000000000E+00 -0.00000000000E+00 -0.63663939358E+03  0.63663939358E+03  0.00000000000E+00 0.  1.
         23    2    1    2    0    0  0.12358913687E+03  0.81349380741E+02  0.18940236165E+03  0.25691751931E+03  0.90781940019E+02 0.  0.
         13    1    3    3    0    0  0.64651402728E+02  0.39861283585E+02  0.16358503225E+03  0.18035739125E+03  0.00000000000E+00 0.  1.
        -13    1    3    3    0    0  0.58937734146E+02  0.41488097156E+02  0.25817329400E+02  0.76560128065E+02  0.00000000000E+00 0. -1.
         22    1    1    2    0    0 -0.12358913687E+03 -0.81349380741E+02 -0.59380375169E+03  0.61195987779E+03  0.00000000000E+00 0.  1.
<mgrwt>
<rscale>  0 0.76903020E+03</rscale>
<asrwt>0</asrwt>
<pdfrwt beam="1">  1        2 0.97944521E-01 0.76903020E+03</pdfrwt>
<pdfrwt beam="2">  1       -2 0.35728924E-01 0.76903020E+03</pdfrwt>
<totfact> 0.34175311E+02</totfact>
</mgrwt>
</event>
<event>
 6    1  0.2436515E-005  0.2057720E+04  0.7818608E-02  0.8580100E-01
          2   -1    0    0  501    0  0.00000000000E+00  0.00000000000E+00  0.10415248826E+04  0.10415248826E+04  0.00000000000E+00 0.  1.
         -2   -1    0    0    0  501 -0.00000000000E+00 -0.00000000000E+00 -0.10163490498E+04  0.10163490498E+04  0.00000000000E+00 0. -1.
         23    2    1    2    0    0 -0.20918047682E+03 -0.53721502496E+03 -0.83695369886E+03  0.10207510928E+04  0.95314450783E+02 0.  0.
         11    1    3    3    0    0 -0.11364128593E+03 -0.29350160583E+03 -0.37299741734E+03  0.48804160461E+03  0.00000000000E+00 0.  1.
        -11    1    3    3    0    0 -0.95539190891E+02 -0.24371341913E+03 -0.46395628152E+03  0.53270948820E+03  0.00000000000E+00 0. -1.
         22    1    1    2    0    0  0.20918047682E+03  0.53721502496E+03  0.86212953173E+03  0.10371228396E+04  0.00000000000E+00 0.  1.
<mgrwt>
<rscale>  0 0.20577199E+04</rscale>
<asrwt>0</asrwt>
<pdfrwt beam="1">  1        2 0.16023460E+00 0.20577199E+04</pdfrwt>
<pdfrwt beam="2">  1       -2 0.15636139E+00 0.20577199E+04</pdfrwt>
<totfact> 0.58752689E+00</totfact>
</mgrwt>
</event>
<event>
 6    1  0.2436515E-005  0.3228067E+04  0.7818608E-02  0.8181444E-01
          1   -1    0    0  501    0  0.00000000000E+00  0.00000000000E+00  0.12592922542E+04  0.12592922542E+04  0.00000000000E+00 0.  1.
         -1   -1    0    0    0  501 -0.00000000000E+00 -0.00000000000E+00 -0.20687053409E+04  0.20687053409E+04  0.00000000000E+00 0. -1.
         23    2    1    2    0    0  0.30291737215E+03  0.31099240386E+03 -0.20063441159E+04  0.20547658415E+04  0.90392158111E+02 0.  0.
         11    1    3    3    0    0  0.27807010609E+03  0.23995260479E+03 -0.16132172529E+04  0.16544999672E+04  0.00000000000E+00 0.  1.
        -11    1    3    3    0    0  0.24847266065E+02  0.71039799075E+02 -0.39312686306E+03  0.40026587432E+03  0.00000000000E+00 0. -1.
         22    1    1    2    0    0 -0.30291737215E+03 -0.31099240386E+03  0.11969310292E+04  0.12732317536E+04  0.00000000000E+00 0.  1.
<mgrwt>
<rscale>  0 0.32280673E+04</rscale>
<asrwt>0</asrwt>
<pdfrwt beam="1">  1        1 0.19373727E+00 0.32280673E+04</pdfrwt>
<pdfrwt beam="2">  1       -1 0.31826236E+00 0.32280673E+04</pdfrwt>
<totfact> 0.20284703E-01</totfact>
</mgrwt>
</event>
<event>
 6    1  0.2436515E-005  0.1560803E+04  0.7818608E-02  0.8844997E-01
          2   -1    0    0  501    0  0.00000000000E+00  0.00000000000E+00  0.31826243461E+04  0.31826243461E+04  0.00000000000E+00 0.  1.
         -2   -1    0    0    0  501 -0.00000000000E+00 -0.00000000000E+00 -0.19135991713E+03  0.19135991713E+03  0.00000000000E+00 0. -1.
         23    2    1    2    0    0  0.42181702048E+03  0.42643212005E+03  0.43092398366E+03  0.74432323038E+03  0.92453446782E+02 0.  0.
         11    1    3    3    0    0  0.30922543206E+03  0.25744226321E+03  0.31048470132E+03  0.50822990513E+03  0.00000000000E+00 0. -1.
        -11    1    3    3    0    0  0.11259158842E+03  0.16898985684E+03  0.12043928234E+03  0.23609332525E+03  0.00000000000E+00 0.  1.
         22    1    1    2    0    0 -0.42181702048E+03 -0.42643212005E+03  0.25603404453E+04  0.26296610328E+04  0.00000000000E+00 0.  1.
<mgrwt>
<rscale>  0 0.15608033E+04</rscale>
<asrwt>0</asrwt>
<pdfrwt beam="1">  1        2 0.48963448E+00 0.15608033E+04</pdfrwt>
<pdfrwt beam="2">  1       -2 0.29439990E-01 0.15608033E+04</pdfrwt>
<totfact> 0.13713014E+01</totfact>
</mgrwt>
</event>
<event>
 6    1  0.2436515E-005  0.1718017E+04  0.7818608E-02  0.8751155E-01
         -2   -1    0    0    0  501 -0.00000000000E+00  0.00000000000E+00  0.41891885437E+03  0.41891885437E+03  0.00000000000E+00 0. -1.
          2   -1    0    0  501    0  0.00000000000E+00 -0.00000000000E+00 -0.17614286018E+04  0.17614286018E+04  0.00000000000E+00 0.  1.
         23    2    1    2    0    0  0.63292718415E+03 -0.50102836069E+03 -0.30923314281E+03  0.86913169195E+03  0.90213761089E+02 0.  0.
         11    1    3    3    0    0  0.17236804918E+03 -0.14998754152E+03 -0.13028800307E+03  0.26302465803E+03  0.00000000000E+00 0. -1.
        -11    1    3    3    0    0  0.46055913497E+03 -0.35104081917E+03 -0.17894513974E+03  0.60610703392E+03  0.00000000000E+00 0.  1.
         22    1    1    2    0    0 -0.63292718415E+03  0.50102836069E+03 -0.10332766046E+04  0.13112157642E+04  0.00000000000E+00 0.  1.
<mgrwt>
<rscale>  0 0.17180171E+04</rscale>
<asrwt>0</asrwt>
<pdfrwt beam="1">  1        2 0.27098902E+00 0.17180171E+04</pdfrwt>
<pdfrwt beam="2">  1       -2 0.64449054E-01 0.17180171E+04</pdfrwt>
<totfact> 0.19150496E+01</totfact>
</mgrwt>
</event>
<event>
 6    1  0.2436515E-005  0.3271378E+04  0.7818608E-02  0.8170217E-01
         -2   -1    0    0    0  501 -0.00000000000E+00  0.00000000000E+00  0.11713196840E+04  0.11713196840E+04  0.00000000000E+00 0. -1.
          2   -1    0    0  501    0  0.00000000000E+00 -0.00000000000E+00 -0.22841567509E+04  0.22841567509E+04  0.00000000000E+00 0.  1.
         23    2    1    2    0    0  0.14097620978E+04 -0.15667748027E+03 -0.14145028712E+04  0.20053111812E+04  0.92073642697E+02 0.  0.
         13    1    3    3    0    0  0.56499525028E+03 -0.96805728009E+02 -0.61348746822E+03  0.83961768411E+03  0.00000000000E+00 0. -1.
        -13    1    3    3    0    0  0.84476684751E+03 -0.59871752258E+02 -0.80101540303E+03  0.11656934971E+04  0.00000000000E+00 0.  1.
         22    1    1    2    0    0 -0.14097620978E+04  0.15667748027E+03  0.30166580433E+03  0.14501652536E+04  0.00000000000E+00 0. -1.
<mgrwt>
<rscale>  0 0.32713775E+04</rscale>
<asrwt>0</asrwt>
<pdfrwt beam="1">  1        2 0.35140873E+00 0.32713775E+04</pdfrwt>
<pdfrwt beam="2">  1       -2 0.18020303E+00 0.32713775E+04</pdfrwt>
<totfact> 0.70030093E-01</totfact>
</mgrwt>
</event>
<event>
 6    1  0.2436515E-005  0.5394947E+04  0.7818608E-02  0.7770312E-01
          1   -1    0    0  501    0  0.00000000000E+00  0.00000000000E+00  0.28636865665E+04  0.28636865665E+04  0.00000000000E+00 0.  1.
         -1   -1    0    0    0  501 -0.00000000000E+00 -0.00000000000E+00 -0.25409073392E+04  0.25409073392E+04  0.00000000000E+00 0. -1.
         23    2    1    2    0    0  0.21273114265E+04  0.15591004291E+04 -0.40143305937E+03  0.26695013132E+04  0.94025031470E+02 0.  0.
         13    1    3    3    0    0  0.14009144759E+04  0.10615227523E+04 -0.30212426601E+03  0.17834435776E+04  0.00000000000E+00 0.  1.
        -13    1    3    3    0    0  0.72639695069E+03  0.49757767673E+03 -0.99308793366E+02  0.88605773559E+03  0.00000000000E+00 0. -1.
         22    1    1    2    0    0 -0.21273114265E+04 -0.15591004291E+04  0.72421228674E+03  0.27350925925E+04  0.00000000000E+00 0.  1.
<mgrwt>
<rscale>  0 0.53949466E+04</rscale>
<asrwt>0</asrwt>
<pdfrwt beam="1">  1        1 0.44056716E+00 0.53949466E+04</pdfrwt>
<pdfrwt beam="2">  1       -1 0.39090882E+00 0.53949466E+04</pdfrwt>
<totfact> 0.43354700E-03</totfact>
</mgrwt>
</event>
<event>
 6    1  0.2436515E-005  0.1085092E+04  0.7818608E-02  0.9219845E-01
          2   -1    0    0  501    0  0.00000000000E+00  0.00000000000E+00  0.64834183079E+03  0.64834183079E+03  0.00000000000E+00 0. -1.
         -2   -1    0    0    0  501 -0.00000000000E+00 -0.00000000000E+00 -0.45401424243E+03  0.45401424243E+03  0.00000000000E+00 0.  1.
         23    2    1    2    0    0 -0.16307365453E+03 -0.45900301013E+03  0.33150757606E+03  0.59629764859E+03  0.91634232828E+02 0.  0.
         13    1    3    3    0    0 -0.28816750787E+02 -0.90562883020E+02  0.11205091672E+03  0.14692667847E+03  0.00000000000E+00 0.  1.
        -13    1    3    3    0    0 -0.13425690375E+03 -0.36844012711E+03  0.21945665933E+03  0.44937097013E+03  0.00000000000E+00 0. -1.
         22    1    1    2    0    0  0.16307365453E+03  0.45900301013E+03 -0.13717998770E+03  0.50605842462E+03  0.00000000000E+00 0.  1.
<mgrwt>
<rscale>  0 0.10850925E+04</rscale>
<asrwt>0</asrwt>
<pdfrwt beam="1">  1        2 0.99744897E-01 0.10850925E+04</pdfrwt>
<pdfrwt beam="2">  1       -2 0.69848345E-01 0.10850925E+04</pdfrwt>
<totfact> 0.83770496E+01</totfact>
</mgrwt>
</event>
<event>
 6    1  0.2436515E-005  0.5602728E+04  0.7818608E-02  0.7741710E-01
          2   -1    0    0  501    0  0.00000000000E+00  0.00000000000E+00  0.36584687561E+04  0.36584687561E+04  0.00000000000E+00 0.  1.
         -2   -1    0    0    0  501 -0.00000000000E+00 -0.00000000000E+00 -0.21450617990E+04  0.21450617990E+04  0.00000000000E+00 0. -1.
         23    2    1    2    0    0  0.87941262634E+03  0.18469154386E+04  0.27383210468E+04  0.34192323918E+04  0.91020819272E+02 0.  0.
         13    1    3    3    0    0  0.25567824672E+03  0.46155976684E+03  0.74488716142E+03  0.91283386630E+03  0.00000000000E+00 0. -1.
        -13    1    3    3    0    0  0.62373437962E+03  0.13853556717E+04  0.19934338853E+04  0.25063985255E+04  0.00000000000E+00 0.  1.
         22    1    1    2    0    0 -0.87941262634E+03 -0.18469154386E+04 -0.12249140896E+04  0.23842981633E+04  0.00000000000E+00 0. -1.
<mgrwt>
<rscale>  0 0.56027285E+04</rscale>
<asrwt>0</asrwt>
<pdfrwt beam="1">  1        2 0.56284134E+00 0.56027285E+04</pdfrwt>
<pdfrwt beam="2">  1       -2 0.33000951E+00 0.56027285E+04</pdfrwt>
<totfact> 0.89964539E-03</totfact>
</mgrwt>
</event>
<event>
 6    1  0.2436515E-005  0.6282859E+03  0.7818608E-02  0.9848400E-01
         -2   -1    0    0    0  501 -0.00000000000E+00  0.00000000000E+00  0.22230142256E+03  0.22230142256E+03  0.00000000000E+00 0. -1.
          2   -1    0    0  501    0  0.00000000000E+00 -0.00000000000E+00 -0.44392778877E+03  0.44392778877E+03  0.00000000000E+00 0.  1.
         23    2    1    2    0    0 -0.59993989750E+02 -0.28434203894E+03 -0.21971062402E+03  0.37562063614E+03  0.91479123702E+02 0.  0.
         11    1    3    3    0    0 -0.69415925628E+02 -0.22791275552E+03 -0.13632092271E+03  0.27449260250E+03  0.00000000000E+00 0. -1.
        -11    1    3    3    0    0  0.94219358775E+01 -0.56429283411E+02 -0.83389701308E+02  0.10112803363E+03  0.00000000000E+00 0.  1.
         22    1    1    2    0    0  0.59993989750E+02  0.28434203894E+03 -0.19157421954E+01  0.29060857520E+03  0.00000000000E+00 0. -1.
<mgrwt>
<rscale>  0 0.62828586E+03</rscale>
<asrwt>0</asrwt>
<pdfrwt beam="1">  1        2 0.68296582E-01 0.62828586E+03</pdfrwt>
<pdfrwt beam="2">  1       -2 0.34200219E-01 0.62828586E+03</pdfrwt>
<totfact> 0.56945634E+02</totfact>
</mgrwt>
</event>
<event>
 6    1  0.2436515E-005  0.1082273E+04  0.7818608E-02  0.9222644E-01
         -2   -1    0    0    0  501 -0.00000000000E+00  0.00000000000E+00  0.22798758884E+03  0.22798758884E+03  0.00000000000E+00 0. -1.
          2   -1    0    0  501    0  0.00000000000E+00 -0.00000000000E+00 -0.12844062671E+04  0.12844062671E+04  0.00000000000E+00 0.  1.
         23    2    1    2    0    0 -0.12919466118E+03 -0.33471654812E+03 -0.10899841753E+04  0.11520425404E+04  0.10202982141E+03 0.  0.
         11    1    3    3    0    0 -0.33901147858E+00 -0.11502264695E+02 -0.13770765042E+03  0.13818760439E+03  0.00000000000E+00 0.  1.
        -11    1    3    3    0    0 -0.12885564970E+03 -0.32321428342E+03 -0.95227652484E+03  0.10138549360E+04  0.00000000000E+00 0. -1.
         22    1    1    2    0    0  0.12919466118E+03  0.33471654812E+03  0.33565496978E+02  0.36035131559E+03  0.00000000000E+00 0. -1.
<mgrwt>
<rscale>  0 0.10822730E+04</rscale>
<asrwt>0</asrwt>
<pdfrwt beam="1">  1        2 0.19760096E+00 0.10822730E+04</pdfrwt>
<pdfrwt beam="2">  1       -2 0.35075014E-01 0.10822730E+04</pdfrwt>
<totfact> 0.12788492E+02</totfact>
</mgrwt>
</event>
<event>
 6    1  0.2436515E-005  0.2712749E+04  0.7818608E-02  0.8330880E-01
         -2   -1    0    0    0  501 -0.00000000000E+00  0.00000000000E+00  0.57315461917E+03  0.57315461917E+03  0.00000000000E+00 0. -1.
          2   -1    0    0  501    0  0.00000000000E+00 -0.00000000000E+00 -0.32098707616E+04  0.32098707616E+04  0.00000000000E+00 0.  1.
         23    2    1    2    0    0 -0.32103603567E+03 -0.42828379214E+03  0.41636454585E+03  0.68338139605E+03  0.84614151431E+02 0.  0.
         13    1    3    3    0    0 -0.14643416027E+03 -0.17892550685E+03  0.23176832863E+03  0.32737418721E+03  0.00000000000E+00 0. -1.
        -13    1    3    3    0    0 -0.17460187540E+03 -0.24935828529E+03  0.18459621721E+03  0.35600720884E+03  0.00000000000E+00 0.  1.
         22    1    1    2    0    0  0.32103603567E+03  0.42828379214E+03 -0.30530806882E+04  0.30996439847E+04  0.00000000000E+00 0.  1.
<mgrwt>
<rscale>  0 0.27127493E+04</rscale>
<asrwt>0</asrwt>
<pdfrwt beam="1">  1        2 0.49382628E+00 0.27127493E+04</pdfrwt>
<pdfrwt beam="2">  1       -2 0.88177632E-01 0.27127493E+04</pdfrwt>
<totfact> 0.12401889E+00</totfact>
</mgrwt>
</event>
<event>
 6    1  0.2436515E-005  0.1463451E+04  0.7818608E-02  0.8909128E-01
         -2   -1    0    0    0  501 -0.00000000000E+00  0.00000000000E+00  0.88345050784E+03  0.88345050784E+03  0.00000000000E+00 0. -1.
          2   -1    0    0  501    0  0.00000000000E+00 -0.00000000000E+00 -0.60605785676E+03  0.60605785676E+03  0.00000000000E+00 0.  1.
         23    2    1    2    0    0 -0.43022029641E+02 -0.58596296024E+03  0.57831378670E+03  0.82938942406E+03  0.90755137862E+02 0.  0.
         11    1    3    3    0    0 -0.55791684444E+02 -0.55960245694E+03  0.56512485984E+03  0.79726641035E+03  0.00000000000E+00 0. -1.
        -11    1    3    3    0    0  0.12769654803E+02 -0.26360503300E+02  0.13188926861E+02  0.32123013709E+02  0.00000000000E+00 0.  1.
         22    1    1    2    0    0  0.43022029641E+02  0.58596296024E+03 -0.30092113562E+03  0.66011894055E+03  0.00000000000E+00 0.  1.
<mgrwt>
<rscale>  0 0.14634509E+04</rscale>
<asrwt>0</asrwt>
<pdfrwt beam="1">  1        2 0.93239670E-01 0.14634509E+04</pdfrwt>
<pdfrwt beam="2">  1       -2 0.13591546E+00 0.14634509E+04</pdfrwt>
<totfact> 0.18395897E+01</totfact>
</mgrwt>
</event>
<event>
 6    1  0.2436515E-005  0.6019507E+04  0.7818608E-02  0.7687988E-01
          2   -1    0    0  501    0  0.00000000000E+00  0.00000000000E+00  0.33998161228E+04  0.33998161228E+04  0.00000000000E+00 0.  1.
         -2   -1    0    0    0  501 -0.00000000000E+00 -0.00000000000E+00 -0.26644426743E+04  0.26644426743E+04  0.00000000000E+00 0. -1.
         23    2    1    2    0    0  0.25029750104E+04 -0.12496470015E+04  0.14842615788E+04  0.31681691985E+04  0.88102808280E+02 0.  0.
         11    1    3    3    0    0  0.23839886313E+04 -0.11763938928E+04  0.13931614442E+04  0.30013668878E+04  0.00000000000E+00 0.  1.
        -11    1    3    3    0    0  0.11898637912E+03 -0.73253108755E+02  0.91100134551E+02  0.16680231076E+03  0.00000000000E+00 0. -1.
         22    1    1    2    0    0 -0.25029750104E+04  0.12496470015E+04 -0.74888813022E+03  0.28960895986E+04  0.00000000000E+00 0. -1.
<mgrwt>
<rscale>  0 0.60195067E+04</rscale>
<asrwt>0</asrwt>
<pdfrwt beam="1">  1        2 0.52304863E+00 0.60195067E+04</pdfrwt>
<pdfrwt beam="2">  1       -2 0.40991426E+00 0.60195067E+04</pdfrwt>
<totfact> 0.40961724E-03</totfact>
</mgrwt>
</event>
<event>
 6    1  0.2436515E-005  0.2396234E+04  0.7818608E-02  0.8440915E-01
          2   -1    0    0  501    0  0.00000000000E+00  0.00000000000E+00  0.12514046146E+04  0.12514046146E+04  0.00000000000E+00 0.  1.
         -2   -1    0    0    0  501 -0.00000000000E+00 -0.00000000000E+00 -0.11470980215E+04  0.11470980215E+04  0.00000000000E+00 0. -1.
         23    2    1    2    0    0  0.11263670936E+04  0.21601035159E+03 -0.28838709713E+03  0.11862437380E+04  0.92971967414E+02 0.  0.
         11    1    3    3    0    0  0.88698574479E+03  0.14633382393E+03 -0.25680087512E+03  0.93493528597E+03  0.00000000000E+00 0. -1.
        -11    1    3    3    0    0  0.23938134877E+03  0.69676527664E+02 -0.31586222009E+02  0.25130845204E+03  0.00000000000E+00 0.  1.
         22    1    1    2    0    0 -0.11263670936E+04 -0.21601035159E+03  0.39269369027E+03  0.12122588980E+04  0.00000000000E+00 0.  1.
<mgrwt>
<rscale>  0 0.23962335E+04</rscale>
<asrwt>0</asrwt>
<pdfrwt beam="1">  1        2 0.19252379E+00 0.23962335E+04</pdfrwt>
<pdfrwt beam="2">  1       -2 0.17647662E+00 0.23962335E+04</pdfrwt>
<totfact> 0.30467145E+00</totfact>
</mgrwt>
</event>
<event>
 6    1  0.2448081E-005  0.3227645E+04  0.7818608E-02  0.8181554E-01
         -2   -1    0    0    0  501 -0.00000000000E+00  0.00000000000E+00  0.10690647271E+04  0.10690647271E+04  0.00000000000E+00 0. -1.
          2   -1    0    0  501    0  0.00000000000E+00 -0.00000000000E+00 -0.24361696088E+04  0.24361696088E+04  0.00000000000E+00 0.  1.
         23    2    1    2    0    0  0.10253077374E+04 -0.97692532198E+03  0.15350917536E+03  0.14272771295E+04  0.88971323013E+02 0.  0.
         13    1    3    3    0    0  0.59060776308E+03 -0.51669184849E+03  0.11418881628E+03  0.79298618012E+03  0.00000000000E+00 0.  1.
        -13    1    3    3    0    0  0.43469997433E+03 -0.46023347350E+03  0.39320359082E+02  0.63429094937E+03  0.00000000000E+00 0. -1.
         22    1    1    2    0    0 -0.10253077374E+04  0.97692532198E+03 -0.15206140571E+04  0.20779572064E+04  0.00000000000E+00 0. -1.
<mgrwt>
<rscale>  0 0.32276450E+04</rscale>
<asrwt>0</asrwt>
<pdfrwt beam="1">  1        2 0.37479532E+00 0.32276450E+04</pdfrwt>
<pdfrwt beam="2">  1       -2 0.16447150E+00 0.32276450E+04</pdfrwt>
<totfact> 0.74357445E-01</totfact>
</mgrwt>
</event>
<event>
 6    1  0.2436515E-005  0.2419465E+04  0.7818608E-02  0.8432252E-01
          1   -1    0    0  501    0  0.00000000000E+00  0.00000000000E+00  0.14438166361E+04  0.14438166361E+04  0.00000000000E+00 0. -1.
         -1   -1    0    0    0  501 -0.00000000000E+00 -0.00000000000E+00 -0.10136002122E+04  0.10136002122E+04  0.00000000000E+00 0.  1.
         23    2    1    2    0    0 -0.11177102956E+04 -0.39044597949E+03 -0.28235341111E+02  0.11878096694E+04  0.91488842569E+02 0.  0.
         13    1    3    3    0    0 -0.28287634560E+03 -0.14069843534E+03  0.77822949215E+00  0.31593619965E+03  0.00000000000E+00 0.  1.
        -13    1    3    3    0    0 -0.83483395004E+03 -0.24974754415E+03 -0.29013570603E+02  0.87187346974E+03  0.00000000000E+00 0. -1.
         22    1    1    2    0    0  0.11177102956E+04  0.39044597949E+03  0.45845176506E+03  0.12696071789E+04  0.00000000000E+00 0. -1.
<mgrwt>
<rscale>  0 0.24194651E+04</rscale>
<asrwt>0</asrwt>
<pdfrwt beam="1">  1        1 0.22212564E+00 0.24194651E+04</pdfrwt>
<pdfrwt beam="2">  1       -1 0.15593849E+00 0.24194651E+04</pdfrwt>
<totfact> 0.20100754E+00</totfact>
</mgrwt>
</event>
<event>
 6    1  0.2436515E-005  0.2898587E+04  0.7818608E-02  0.8273298E-01
          1   -1    0    0  501    0  0.00000000000E+00  0.00000000000E+00  0.19108602006E+04  0.19108602006E+04  0.00000000000E+00 0.  1.
         -1   -1    0    0    0  501 -0.00000000000E+00 -0.00000000000E+00 -0.10992179751E+04  0.10992179751E+04  0.00000000000E+00 0. -1.
         23    2    1    2    0    0 -0.11584438054E+04  0.76119349293E+03  0.84056676679E+03  0.16236279555E+04  0.90596161092E+02 0.  0.
         13    1    3    3    0    0 -0.22476957239E+03  0.15735248832E+03  0.12622079198E+03  0.30201465955E+03  0.00000000000E+00 0. -1.
        -13    1    3    3    0    0 -0.93367423305E+03  0.60384100461E+03  0.71434597481E+03  0.13216132960E+04  0.00000000000E+00 0.  1.
         22    1    1    2    0    0  0.11584438054E+04 -0.76119349293E+03 -0.28924541226E+02  0.13864502202E+04  0.00000000000E+00 0. -1.
<mgrwt>
<rscale>  0 0.28985872E+04</rscale>
<asrwt>0</asrwt>
<pdfrwt beam="1">  1        1 0.29397849E+00 0.28985872E+04</pdfrwt>
<pdfrwt beam="2">  1       -1 0.16911046E+00 0.28985872E+04</pdfrwt>
<totfact> 0.73457761E-01</totfact>
</mgrwt>
</event>
<event>
 6    1  0.2436515E-005  0.9827708E+03  0.7818608E-02  0.9327646E-01
         -2   -1    0    0    0  501 -0.00000000000E+00  0.00000000000E+00  0.23057516271E+03  0.23057516271E+03  0.00000000000E+00 0. -1.
          2   -1    0    0  501    0  0.00000000000E+00 -0.00000000000E+00 -0.10472057464E+04  0.10472057464E+04  0.00000000000E+00 0.  1.
         23    2    1    2    0    0 -0.10137537413E+03  0.30880064289E+03  0.59584726200E+02  0.34322857092E+03  0.92847772021E+02 0.  0.
         11    1    3    3    0    0 -0.29159492019E+02  0.18669986190E+03  0.68733712942E+02  0.20107570142E+03  0.00000000000E+00 0.  1.
        -11    1    3    3    0    0 -0.72215882108E+02  0.12210078099E+03 -0.91489867421E+01  0.14215286950E+03  0.00000000000E+00 0. -1.
         22    1    1    2    0    0  0.10137537413E+03 -0.30880064289E+03 -0.87621530993E+03  0.93455233823E+03  0.00000000000E+00 0.  1.
<mgrwt>
<rscale>  0 0.98277085E+03</rscale>
<asrwt>0</asrwt>
<pdfrwt beam="1">  1        2 0.16110858E+00 0.98277085E+03</pdfrwt>
<pdfrwt beam="2">  1       -2 0.35473102E-01 0.98277085E+03</pdfrwt>
<totfact> 0.17512442E+02</totfact>
</mgrwt>
</event>
<event>
 6    1  0.2436515E-005  0.2928825E+04  0.7818608E-02  0.8264353E-01
          2   -1    0    0  501    0  0.00000000000E+00  0.00000000000E+00  0.10889132442E+04  0.10889132442E+04  0.00000000000E+00 0.  1.
         -2   -1    0    0    0  501 -0.00000000000E+00 -0.00000000000E+00 -0.19693983682E+04  0.19693983682E+04  0.00000000000E+00 0. -1.
         23    2    1    2    0    0  0.82350021333E+03  0.13097909112E+03 -0.16959148515E+04  0.18920210123E+04  0.91149348453E+02 0.  0.
         11    1    3    3    0    0  0.24398084369E+03  0.57103294472E+02 -0.59734192757E+03  0.64776910760E+03  0.00000000000E+00 0. -1.
        -11    1    3    3    0    0  0.57951936965E+03  0.73875796648E+02 -0.10985729239E+04  0.12442519047E+04  0.00000000000E+00 0.  1.
         22    1    1    2    0    0 -0.82350021333E+03 -0.13097909112E+03  0.81542972738E+03  0.11662906001E+04  0.00000000000E+00 0.  1.
<mgrwt>
<rscale>  0 0.29288250E+04</rscale>
<asrwt>0</asrwt>
<pdfrwt beam="1">  1        2 0.16752512E+00 0.29288250E+04</pdfrwt>
<pdfrwt beam="2">  1       -2 0.30298436E+00 0.29288250E+04</pdfrwt>
<totfact> 0.58070677E-01</totfact>
</mgrwt>
</event>
<event>
 6    1  0.2436515E-005  0.2349079E+04  0.7818608E-02  0.8458817E-01
         -2   -1    0    0    0  501 -0.00000000000E+00  0.00000000000E+00  0.39631326846E+03  0.39631326846E+03  0.00000000000E+00 0. -1.
          2   -1    0    0  501    0  0.00000000000E+00 -0.00000000000E+00 -0.34809417411E+04  0.34809417411E+04  0.00000000000E+00 0.  1.
         23    2    1    2    0    0  0.10864178661E+04  0.73086099629E+02 -0.22634108850E+04  0.25134208246E+04  0.92790352950E+02 0.  0.
         11    1    3    3    0    0  0.74231381350E+03  0.51037981359E+02 -0.14443789162E+04  0.16247661761E+04  0.00000000000E+00 0.  1.
        -11    1    3    3    0    0  0.34410405259E+03  0.22048118269E+02 -0.81903196878E+03  0.88865464857E+03  0.00000000000E+00 0. -1.
         22    1    1    2    0    0 -0.10864178661E+04 -0.73086099629E+02 -0.82121758763E+03  0.13638341849E+04  0.00000000000E+00 0. -1.
<mgrwt>
<rscale>  0 0.23490793E+04</rscale>
<asrwt>0</asrwt>
<pdfrwt beam="1">  1        2 0.53552947E+00 0.23490793E+04</pdfrwt>
<pdfrwt beam="2">  1       -2 0.60971275E-01 0.23490793E+04</pdfrwt>
<totfact> 0.18991285E+00</totfact>
</mgrwt>
</event>
<event>
 6    1  0.2436515E-005  0.3356269E+04  0.7818608E-02  0.8148723E-01
          2   -1    0    0  501    0  0.00000000000E+00  0.00000000000E+00  0.18743508029E+04  0.18743508029E+04  0.00000000000E+00 0.  1.
         -2   -1    0    0    0  501 -0.00000000000E+00 -0.00000000000E+00 -0.15024592754E+04  0.15024592754E+04  0.00000000000E+00 0. -1.
         23    2    1    2    0    0 -0.25369105324E+03  0.34283796698E+03  0.18178231626E+04  0.18692904879E+04  0.88706569447E+02 0.  0.
         11    1    3    3    0    0 -0.45666271575E+02  0.93134420138E+02  0.31189165011E+03  0.32868804356E+03  0.00000000000E+00 0.  1.
        -11    1    3    3    0    0 -0.20802478166E+03  0.24970354684E+03  0.15059315125E+04  0.15406024443E+04  0.00000000000E+00 0. -1.
         22    1    1    2    0    0  0.25369105324E+03 -0.34283796698E+03 -0.14459316352E+04  0.15075195905E+04  0.00000000000E+00 0. -1.
<mgrwt>
<rscale>  0 0.33562692E+04</rscale>
<asrwt>0</asrwt>
<pdfrwt beam="1">  1        2 0.28836166E+00 0.33562692E+04</pdfrwt>
<pdfrwt beam="2">  1       -2 0.23114758E+00 0.33562692E+04</pdfrwt>
<totfact> 0.54864659E-01</totfact>
</mgrwt>
</event>
<event>
 6    1  0.2436515E-005  0.4515479E+04  0.7818608E-02  0.7907932E-01
         -1   -1    0    0    0  501 -0.00000000000E+00  0.00000000000E+00  0.21822426762E+04  0.21822426762E+04  0.00000000000E+00 0. -1.
          1   -1    0    0  501    0  0.00000000000E+00 -0.00000000000E+00 -0.23358480889E+04  0.23358480889E+04  0.00000000000E+00 0.  1.
         23    2    1    2    0    0 -0.14130096382E+04 -0.40327905546E+03 -0.17907340769E+04  0.23182224742E+04  0.90535469599E+02 0.  0.
         11    1    3    3    0    0 -0.21403371156E+03 -0.91606581127E+02 -0.30756138454E+03  0.38574110573E+03  0.00000000000E+00 0.  1.
        -11    1    3    3    0    0 -0.11989759266E+04 -0.31167247433E+03 -0.14831726924E+04  0.19324813684E+04  0.00000000000E+00 0. -1.
         22    1    1    2    0    0  0.14130096382E+04  0.40327905546E+03  0.16371286642E+04  0.21998682909E+04  0.00000000000E+00 0. -1.
<mgrwt>
<rscale>  0 0.45154789E+04</rscale>
<asrwt>0</asrwt>
<pdfrwt beam="1">  1        1 0.35936124E+00 0.45154789E+04</pdfrwt>
<pdfrwt beam="2">  1       -1 0.33572964E+00 0.45154789E+04</pdfrwt>
<totfact> 0.25479006E-02</totfact>
</mgrwt>
</event>
<event>
 6    1  0.2436515E-005  0.2096240E+04  0.7818608E-02  0.8562901E-01
          1   -1    0    0  501    0  0.00000000000E+00  0.00000000000E+00  0.20277703776E+04  0.20277703776E+04  0.00000000000E+00 0. -1.
         -1   -1    0    0    0  501 -0.00000000000E+00 -0.00000000000E+00 -0.54175556988E+03  0.54175556988E+03  0.00000000000E+00 0.  1.
         23    2    1    2    0    0 -0.63392663666E+03 -0.80612173439E+03  0.99700230024E+03  0.14333796260E+04  0.94171833791E+02 0.  0.
         11    1    3    3    0    0 -0.44162590913E+03 -0.58215034161E+03  0.76519371340E+03  0.10580424769E+04  0.00000000000E+00 0. -1.
        -11    1    3    3    0    0 -0.19230072753E+03 -0.22397139278E+03  0.23180858684E+03  0.37533714914E+03  0.00000000000E+00 0.  1.
         22    1    1    2    0    0  0.63392663666E+03  0.80612173439E+03  0.48901250750E+03  0.11361463215E+04  0.00000000000E+00 0. -1.
<mgrwt>
<rscale>  0 0.20962403E+04</rscale>
<asrwt>0</asrwt>
<pdfrwt beam="1">  1        1 0.31196467E+00 0.20962403E+04</pdfrwt>
<pdfrwt beam="2">  1       -1 0.83347012E-01 0.20962403E+04</pdfrwt>
<totfact> 0.37496123E+00</totfact>
</mgrwt>
</event>
<event>
 6    1  0.3991463E-005  0.4302029E+04  0.7818608E-02  0.7946243E-01
          2   -1    0    0  501    0  0.00000000000E+00  0.00000000000E+00  0.21353178073E+04  0.21353178073E+04  0.00000000000E+00 0.  1.
         -2   -1    0    0    0  501 -0.00000000000E+00 -0.00000000000E+00 -0.21668267795E+04  0.21668267795E+04  0.00000000000E+00 0. -1.
         23    2    1    2    0    0 -0.33173709392E+03  0.65529098356E+03  0.20049168730E+04  0.21373152643E+04  0.94705326057E+02 0.  0.
         11    1    3    3    0    0 -0.12203537785E+03  0.22763873964E+03  0.83915268435E+03  0.87800299367E+03  0.00000000000E+00 0. -1.
        -11    1    3    3    0    0 -0.20970171608E+03  0.42765224392E+03  0.11657641887E+04  0.12593122707E+04  0.00000000000E+00 0.  1.
         22    1    1    2    0    0  0.33173709392E+03 -0.65529098356E+03 -0.20364258451E+04  0.21648293225E+04  0.00000000000E+00 0. -1.
<mgrwt>
<rscale>  0 0.43020292E+04</rscale>
<asrwt>0</asrwt>
<pdfrwt beam="1">  1        2 0.32851043E+00 0.43020292E+04</pdfrwt>
<pdfrwt beam="2">  1       -2 0.33335796E+00 0.43020292E+04</pdfrwt>
<totfact> 0.85509476E-02</totfact>
</mgrwt>
</event>
<event>
 6    1  0.2436515E-005  0.1943603E+04  0.7818608E-02  0.8633452E-01
         -2   -1    0    0    0  501 -0.00000000000E+00  0.00000000000E+00  0.98012401769E+03  0.98012401769E+03  0.00000000000E+00 0. -1.
          2   -1    0    0  501    0  0.00000000000E+00 -0.00000000000E+00 -0.96354920840E+03  0.96354920840E+03  0.00000000000E+00 0.  1.
         23    2    1    2    0    0 -0.14458722579E+03 -0.62285099623E+02  0.96503015758E+03  0.98224072861E+03  0.93427749750E+02 0.  0.
         13    1    3    3    0    0 -0.47738894988E+02  0.23558627773E+02  0.25212589005E+03  0.25768483749E+03  0.00000000000E+00 0. -1.
        -13    1    3    3    0    0 -0.96848330803E+02 -0.85843727396E+02  0.71290426752E+03  0.72455589112E+03  0.00000000000E+00 0.  1.
         22    1    1    2    0    0  0.14458722579E+03  0.62285099623E+02 -0.94845534829E+03  0.96143249747E+03  0.00000000000E+00 0.  1.
<mgrwt>
<rscale>  0 0.19436026E+04</rscale>
<asrwt>0</asrwt>
<pdfrwt beam="1">  1        2 0.14823834E+00 0.19436026E+04</pdfrwt>
<pdfrwt beam="2">  1       -2 0.15078831E+00 0.19436026E+04</pdfrwt>
<totfact> 0.73339397E+00</totfact>
</mgrwt>
</event>
<event>
 6    1  0.2436515E-005  0.3390175E+04  0.7818608E-02  0.8140322E-01
         -2   -1    0    0    0  501 -0.00000000000E+00  0.00000000000E+00  0.23122384597E+04  0.23122384597E+04  0.00000000000E+00 0. -1.
          2   -1    0    0  501    0  0.00000000000E+00 -0.00000000000E+00 -0.12426577866E+04  0.12426577866E+04  0.00000000000E+00 0.  1.
         23    2    1    2    0    0  0.95985110951E+03  0.11029101629E+04  0.14319740890E+04  0.20485583136E+04  0.91194257367E+02 0.  0.
         13    1    3    3    0    0  0.77768638874E+03  0.93040272006E+03  0.11513950875E+04  0.16721710403E+04  0.00000000000E+00 0.  1.
        -13    1    3    3    0    0  0.18216472077E+03  0.17250744287E+03  0.28057900152E+03  0.37638727321E+03  0.00000000000E+00 0. -1.
         22    1    1    2    0    0 -0.95985110951E+03 -0.11029101629E+04 -0.36239341591E+03  0.15063379328E+04  0.00000000000E+00 0.  1.
<mgrwt>
<rscale>  0 0.33901747E+04</rscale>
<asrwt>0</asrwt>
<pdfrwt beam="1">  1        2 0.19117812E+00 0.33901747E+04</pdfrwt>
<pdfrwt beam="2">  1       -2 0.35572899E+00 0.33901747E+04</pdfrwt>
<totfact> 0.21191359E-01</totfact>
</mgrwt>
</event>
<event>
 6    1  0.2436515E-005  0.1207377E+04  0.7818608E-02  0.9106424E-01
         -2   -1    0    0    0  501 -0.00000000000E+00  0.00000000000E+00  0.94804623334E+02  0.94804623334E+02  0.00000000000E+00 0. -1.
          2   -1    0    0  501    0  0.00000000000E+00 -0.00000000000E+00 -0.38441144581E+04  0.38441144581E+04  0.00000000000E+00 0.  1.
         23    2    1    2    0    0  0.33866335520E+03  0.42965421157E+03 -0.26917444442E+04  0.27482301359E+04  0.89359483671E+02 0.  0.
         11    1    3    3    0    0  0.24712481501E+03  0.24769086930E+03 -0.17692952381E+04  0.18035595583E+04  0.00000000000E+00 0. -1.
        -11    1    3    3    0    0  0.91538540192E+02  0.18196334227E+03 -0.92244920615E+03  0.94467057760E+03  0.00000000000E+00 0.  1.
         22    1    1    2    0    0 -0.33866335520E+03 -0.42965421157E+03 -0.10575653905E+04  0.11906889455E+04  0.00000000000E+00 0.  1.
<mgrwt>
<rscale>  0 0.12073770E+04</rscale>
<asrwt>0</asrwt>
<pdfrwt beam="1">  1        2 0.59140236E+00 0.12073770E+04</pdfrwt>
<pdfrwt beam="2">  1       -2 0.14585323E-01 0.12073770E+04</pdfrwt>
<totfact> 0.17084857E+01</totfact>
</mgrwt>
</event>
<event>
 6    1  0.2436515E-005  0.1979398E+04  0.7818608E-02  0.8616314E-01
          2   -1    0    0  501    0  0.00000000000E+00  0.00000000000E+00  0.39072556419E+04  0.39072556419E+04  0.00000000000E+00 0.  1.
         -2   -1    0    0    0  501 -0.00000000000E+00 -0.00000000000E+00 -0.25068862137E+03  0.25068862137E+03  0.00000000000E+00 0. -1.
         23    2    1    2    0    0  0.55144987494E+03 -0.28747493450E+03  0.34437718605E+04  0.35006615367E+04  0.91256589309E+02 0.  0.
         11    1    3    3    0    0  0.31720273140E+03 -0.18486419962E+03  0.22551224751E+04  0.22848128420E+04  0.00000000000E+00 0.  1.
        -11    1    3    3    0    0  0.23424714354E+03 -0.10261073489E+03  0.11886493854E+04  0.12158486947E+04  0.00000000000E+00 0. -1.
         22    1    1    2    0    0 -0.55144987494E+03  0.28747493450E+03  0.21279516009E+03  0.65728272660E+03  0.00000000000E+00 0. -1.
<mgrwt>
<rscale>  0 0.19793984E+04</rscale>
<asrwt>0</asrwt>
<pdfrwt beam="1">  1        2 0.60111621E+00 0.19793984E+04</pdfrwt>
<pdfrwt beam="2">  1       -2 0.38567483E-01 0.19793984E+04</pdfrwt>
<totfact> 0.24217027E+00</totfact>
</mgrwt>
</event>
<event>
 6    1  0.2436515E-005  0.2474624E+04  0.7818608E-02  0.8412082E-01
         -2   -1    0    0    0  501 -0.00000000000E+00  0.00000000000E+00  0.68115901567E+03  0.68115901567E+03  0.00000000000E+00 0. -1.
          2   -1    0    0  501    0  0.00000000000E+00 -0.00000000000E+00 -0.22475532885E+04  0.22475532885E+04  0.00000000000E+00 0.  1.
         23    2    1    2    0    0 -0.99406950535E+03  0.33942132716E+03 -0.15541708541E+04  0.18782217374E+04  0.94280605180E+02 0.  0.
         11    1    3    3    0    0 -0.79791359174E+03  0.24665958689E+03 -0.12837526588E+04  0.15315116522E+04  0.00000000000E+00 0. -1.
        -11    1    3    3    0    0 -0.19615591361E+03  0.92761740271E+02 -0.27041819525E+03  0.34671008526E+03  0.00000000000E+00 0.  1.
         22    1    1    2    0    0  0.99406950535E+03 -0.33942132716E+03 -0.12223418748E+02  0.10504905667E+04  0.00000000000E+00 0.  1.
<mgrwt>
<rscale>  0 0.24746242E+04</rscale>
<asrwt>0</asrwt>
<pdfrwt beam="1">  1        2 0.34577743E+00 0.24746242E+04</pdfrwt>
<pdfrwt beam="2">  1       -2 0.10479369E+00 0.24746242E+04</pdfrwt>
<totfact> 0.32039781E+00</totfact>
</mgrwt>
</event>
<event>
 6    1  0.2436515E-005  0.2146166E+04  0.7818608E-02  0.8541175E-01
          2   -1    0    0  501    0  0.00000000000E+00  0.00000000000E+00  0.14423462616E+04  0.14423462616E+04  0.00000000000E+00 0.  1.
         -2   -1    0    0    0  501 -0.00000000000E+00 -0.00000000000E+00 -0.79835694681E+03  0.79835694681E+03  0.00000000000E+00 0. -1.
         23    2    1    2    0    0 -0.71594867444E+03 -0.57026378260E+03  0.90345581747E+03  0.12893325381E+04  0.91447764382E+02 0.  0.
         13    1    3    3    0    0 -0.13774497853E+03 -0.15447567280E+03  0.22502965949E+03  0.30573642283E+03  0.00000000000E+00 0.  1.
        -13    1    3    3    0    0 -0.57820369591E+03 -0.41578810980E+03  0.67842615799E+03  0.98359611531E+03  0.00000000000E+00 0. -1.
         22    1    1    2    0    0  0.71594867444E+03  0.57026378260E+03 -0.25946650270E+03  0.95137067025E+03  0.00000000000E+00 0. -1.
<mgrwt>
<rscale>  0 0.21461660E+04</rscale>
<asrwt>0</asrwt>
<pdfrwt beam="1">  1        2 0.22189942E+00 0.21461660E+04</pdfrwt>
<pdfrwt beam="2">  1       -2 0.12282415E+00 0.21461660E+04</pdfrwt>
<totfact> 0.62972083E+00</totfact>
</mgrwt>
</event>
<event>
 6    1  0.2436515E-005  0.4749952E+03  0.7818608E-02  0.1020520E+00
         -2   -1    0    0    0  501 -0.00000000000E+00  0.00000000000E+00  0.14454708777E+03  0.14454708777E+03  0.00000000000E+00 0. -1.
          2   -1    0    0  501    0  0.00000000000E+00 -0.00000000000E+00 -0.39021967852E+03  0.39021967852E+03  0.00000000000E+00 0.  1.
         23    2    1    2    0    0 -0.16901075487E+03  0.10427197295E+03  0.88567324343E+00  0.21817829974E+03  0.90353231555E+02 0.  0.
         11    1    3    3    0    0 -0.14430154867E+02  0.68503475516E+00  0.26660179245E+02  0.30322661484E+02  0.00000000000E+00 0.  1.
        -11    1    3    3    0    0 -0.15458060001E+03  0.10358693820E+03 -0.25774506002E+02  0.18785563825E+03  0.00000000000E+00 0. -1.
         22    1    1    2    0    0  0.16901075487E+03 -0.10427197295E+03 -0.24655826399E+03  0.31658846655E+03  0.00000000000E+00 0.  1.
<mgrwt>
<rscale>  0 0.47499523E+03</rscale>
<asrwt>0</asrwt>
<pdfrwt beam="1">  1        2 0.60033796E-01 0.47499523E+03</pdfrwt>
<pdfrwt beam="2">  1       -2 0.22238014E-01 0.47499523E+03</pdfrwt>
<totfact> 0.14429328E+03</totfact>
</mgrwt>
</event>
<event>
 6    1  0.2436515E-005  0.4984356E+03  0.7818608E-02  0.1014188E+00
          2   -1    0    0  501    0  0.00000000000E+00  0.00000000000E+00  0.84231315819E+03  0.84231315819E+03  0.00000000000E+00 0.  1.
         -2   -1    0    0    0  501 -0.00000000000E+00 -0.00000000000E+00 -0.73736838872E+02  0.73736838872E+02  0.00000000000E+00 0. -1.
         23    2    1    2    0    0 -0.78721690220E+02  0.13445488205E+03  0.59348075082E+02  0.18990956833E+03  0.90929809796E+02 0.  0.
         13    1    3    3    0    0 -0.61898578060E+02  0.99743731233E+02 -0.20419408715E+01  0.11740705008E+03  0.00000000000E+00 0. -1.
        -13    1    3    3    0    0 -0.16823112160E+02  0.34711150815E+02  0.61390015953E+02  0.72502518249E+02  0.00000000000E+00 0.  1.
         22    1    1    2    0    0  0.78721690220E+02 -0.13445488205E+03  0.70922824424E+03  0.72614042873E+03  0.00000000000E+00 0.  1.
<mgrwt>
<rscale>  0 0.49843559E+03</rscale>
<asrwt>0</asrwt>
<pdfrwt beam="1">  1        2 0.12958663E+00 0.49843559E+03</pdfrwt>
<pdfrwt beam="2">  1       -2 0.11344130E-01 0.49843559E+03</pdfrwt>
<totfact> 0.17998654E+03</totfact>
</mgrwt>
</event>
<event>
 6    1  0.2436515E-005  0.5949457E+04  0.7818608E-02  0.7696700E-01
         -2   -1    0    0    0  501 -0.00000000000E+00  0.00000000000E+00  0.25609223246E+04  0.25609223246E+04  0.00000000000E+00 0. -1.
          2   -1    0    0  501    0  0.00000000000E+00 -0.00000000000E+00 -0.34553991469E+04  0.34553991469E+04  0.00000000000E+00 0.  1.
         23    2    1    2    0    0 -0.19728281072E+04 -0.20746800333E+04 -0.12616563387E+04  0.31299450618E+04  0.91822611116E+02 0.  0.
         11    1    3    3    0    0 -0.56773840027E+03 -0.58513523286E+03 -0.31516316299E+03  0.87409264451E+03  0.00000000000E+00 0. -1.
        -11    1    3    3    0    0 -0.14050897069E+04 -0.14895448004E+04 -0.94649317572E+03  0.22558524173E+04  0.00000000000E+00 0.  1.
         22    1    1    2    0    0  0.19728281072E+04  0.20746800333E+04  0.36717951644E+03  0.28863764097E+04  0.00000000000E+00 0.  1.
<mgrwt>
<rscale>  0 0.59494567E+04</rscale>
<asrwt>0</asrwt>
<pdfrwt beam="1">  1        2 0.53159987E+00 0.59494567E+04</pdfrwt>
<pdfrwt beam="2">  1       -2 0.39398805E+00 0.59494567E+04</pdfrwt>
<totfact> 0.47902251E-03</totfact>
</mgrwt>
</event>
<event>
 6    1  0.2436515E-005  0.2372876E+04  0.7818608E-02  0.8449729E-01
         -2   -1    0    0    0  501 -0.00000000000E+00  0.00000000000E+00  0.10326952397E+04  0.10326952397E+04  0.00000000000E+00 0. -1.
          2   -1    0    0  501    0  0.00000000000E+00 -0.00000000000E+00 -0.13630694625E+04  0.13630694625E+04  0.00000000000E+00 0.  1.
         23    2    1    2    0    0  0.62723232831E+03  0.19144627665E+03 -0.11614567831E+04  0.13371003114E+04  0.93719331698E+02 0.  0.
         13    1    3    3    0    0  0.37283729201E+03  0.15857223572E+03 -0.74275924196E+03  0.84607570097E+03  0.00000000000E+00 0. -1.
        -13    1    3    3    0    0  0.25439503630E+03  0.32874040934E+02 -0.41869754113E+03  0.49102461039E+03  0.00000000000E+00 0.  1.
         22    1    1    2    0    0 -0.62723232831E+03 -0.19144627665E+03  0.83108256024E+03  0.10586643909E+04  0.00000000000E+00 0. -1.
<mgrwt>
<rscale>  0 0.23728762E+04</rscale>
<asrwt>0</asrwt>
<pdfrwt beam="1">  1        2 0.20970299E+00 0.23728762E+04</pdfrwt>
<pdfrwt beam="2">  1       -2 0.15887619E+00 0.23728762E+04</pdfrwt>
<totfact> 0.35168881E+00</totfact>
</mgrwt>
</event>
<event>
 6    1  0.2436515E-005  0.1851942E+04  0.7818608E-02  0.8679155E-01
          4   -1    0    0  501    0  0.00000000000E+00  0.00000000000E+00  0.66290981194E+03  0.66290981194E+03  0.00000000000E+00 0.  1.
         -4   -1    0    0    0  501 -0.00000000000E+00 -0.00000000000E+00 -0.12934221060E+04  0.12934221060E+04  0.00000000000E+00 0. -1.
         23    2    1    2    0    0 -0.34012590962E+03  0.49366927999E+03 -0.10585426441E+04  0.12197146681E+04  0.88296940678E+02 0.  0.
         11    1    3    3    0    0 -0.27634749182E+03  0.45106348315E+03 -0.91186810305E+03  0.10541962054E+04  0.00000000000E+00 0. -1.
        -11    1    3    3    0    0 -0.63778417803E+02  0.42605796835E+02 -0.14667454103E+03  0.16551846268E+03  0.00000000000E+00 0.  1.
         22    1    1    2    0    0  0.34012590962E+03 -0.49366927999E+03  0.42803034997E+03  0.73661724993E+03  0.00000000000E+00 0.  1.
<mgrwt>
<rscale>  0 0.18519419E+04</rscale>
<asrwt>0</asrwt>
<pdfrwt beam="1">  1        4 0.10198613E+00 0.18519419E+04</pdfrwt>
<pdfrwt beam="2">  1       -4 0.19898801E+00 0.18519419E+04</pdfrwt>
<totfact> 0.19797669E-01</totfact>
</mgrwt>
</event>
<event>
 6    1  0.2436515E-005  0.1838001E+04  0.7818608E-02  0.8686348E-01
         -2   -1    0    0    0  501 -0.00000000000E+00  0.00000000000E+00  0.46231262703E+03  0.46231262703E+03  0.00000000000E+00 0. -1.
          2   -1    0    0  501    0  0.00000000000E+00 -0.00000000000E+00 -0.18268190740E+04  0.18268190740E+04  0.00000000000E+00 0.  1.
         23    2    1    2    0    0  0.12630575636E+03 -0.86989076522E+03 -0.10076922602E+04  0.13404592331E+04  0.93403302106E+02 0.  0.
         11    1    3    3    0    0  0.81827617450E+02 -0.60854814770E+03 -0.76596509457E+03  0.98169706792E+03  0.00000000000E+00 0.  1.
        -11    1    3    3    0    0  0.44478138910E+02 -0.26134261752E+03 -0.24172716567E+03  0.35876216522E+03  0.00000000000E+00 0. -1.
         22    1    1    2    0    0 -0.12630575636E+03  0.86989076522E+03 -0.35681418675E+03  0.94867246791E+03  0.00000000000E+00 0.  1.
<mgrwt>
<rscale>  0 0.18380006E+04</rscale>
<asrwt>0</asrwt>
<pdfrwt beam="1">  1        2 0.28104909E+00 0.18380006E+04</pdfrwt>
<pdfrwt beam="2">  1       -2 0.71125019E-01 0.18380006E+04</pdfrwt>
<totfact> 0.14086181E+01</totfact>
</mgrwt>
</event>
<event>
 6    1  0.2436515E-005  0.9646145E+03  0.7818608E-02  0.9348230E-01
         -2   -1    0    0    0  501 -0.00000000000E+00  0.00000000000E+00  0.36427406290E+03  0.36427406290E+03  0.00000000000E+00 0. -1.
          2   -1    0    0  501    0  0.00000000000E+00 -0.00000000000E+00 -0.63858592295E+03  0.63858592295E+03  0.00000000000E+00 0.  1.
         23    2    1    2    0    0  0.26309698377E+03 -0.39758179467E+03 -0.10349685317E+03  0.49643222901E+03  0.91880645719E+02 0.  0.
         13    1    3    3    0    0  0.11399910122E+03 -0.12577070771E+03 -0.73464771323E+02  0.18496253302E+03  0.00000000000E+00 0. -1.
        -13    1    3    3    0    0  0.14909788255E+03 -0.27181108697E+03 -0.30032081852E+02  0.31146969599E+03  0.00000000000E+00 0.  1.
         22    1    1    2    0    0 -0.26309698377E+03  0.39758179467E+03 -0.17081500687E+03  0.50642775684E+03  0.00000000000E+00 0.  1.
<mgrwt>
<rscale>  0 0.96461451E+03</rscale>
<asrwt>0</asrwt>
<pdfrwt beam="1">  1        2 0.98243987E-01 0.96461451E+03</pdfrwt>
<pdfrwt beam="2">  1       -2 0.56042164E-01 0.96461451E+03</pdfrwt>
<totfact> 0.13748479E+02</totfact>
</mgrwt>
</event>
<event>
 6    1  0.2436515E-005  0.2018994E+04  0.7818608E-02  0.8597792E-01
         -2   -1    0    0    0  501 -0.00000000000E+00  0.00000000000E+00  0.62363713200E+03  0.62363713200E+03  0.00000000000E+00 0. -1.
          2   -1    0    0  501    0  0.00000000000E+00 -0.00000000000E+00 -0.16340975030E+04  0.16340975030E+04  0.00000000000E+00 0.  1.
         23    2    1    2    0    0 -0.64769266418E+03 -0.34659832014E+03 -0.12769017718E+04  0.14763082451E+04  0.96807629721E+02 0.  0.
         13    1    3    3    0    0 -0.33429004810E+03 -0.23079225149E+03 -0.73048792783E+03  0.83583940582E+03  0.00000000000E+00 0.  1.
        -13    1    3    3    0    0 -0.31340261608E+03 -0.11580606865E+03 -0.54641384394E+03  0.64046883933E+03  0.00000000000E+00 0. -1.
         22    1    1    2    0    0  0.64769266418E+03  0.34659832014E+03  0.26644140075E+03  0.78142638987E+03  0.00000000000E+00 0. -1.
<mgrwt>
<rscale>  0 0.20189937E+04</rscale>
<asrwt>0</asrwt>
<pdfrwt beam="1">  1        2 0.25139962E+00 0.20189937E+04</pdfrwt>
<pdfrwt beam="2">  1       -2 0.95944174E-01 0.20189937E+04</pdfrwt>
<totfact> 0.90164835E+00</totfact>
</mgrwt>
</event>
<event>
 6    1  0.2436515E-005  0.1574126E+04  0.7818608E-02  0.8836603E-01
         -2   -1    0    0    0  501 -0.00000000000E+00  0.00000000000E+00  0.25580015375E+03  0.25580015375E+03  0.00000000000E+00 0. -1.
          2   -1    0    0  501    0  0.00000000000E+00 -0.00000000000E+00 -0.24216869405E+04  0.24216869405E+04  0.00000000000E+00 0.  1.
         23    2    1    2    0    0  0.67178569340E+03  0.81074888355E+02 -0.17623842312E+04  0.18896524240E+04  0.83180224059E+02 0.  0.
         11    1    3    3    0    0  0.21245690320E+03 -0.11586512415E+02 -0.58070545313E+03  0.61845857281E+03  0.00000000000E+00 0.  1.
        -11    1    3    3    0    0  0.45932879020E+03  0.92661400770E+02 -0.11816787781E+04  0.12711938512E+04  0.00000000000E+00 0. -1.
         22    1    1    2    0    0 -0.67178569340E+03 -0.81074888355E+02 -0.40350255558E+03  0.78783467031E+03  0.00000000000E+00 0. -1.
<mgrwt>
<rscale>  0 0.15741257E+04</rscale>
<asrwt>0</asrwt>
<pdfrwt beam="1">  1        2 0.37256722E+00 0.15741257E+04</pdfrwt>
<pdfrwt beam="2">  1       -2 0.39353870E-01 0.15741257E+04</pdfrwt>
<totfact> 0.22705607E+01</totfact>
</mgrwt>
</event>
<event>
 6    1  0.2436515E-005  0.1963489E+04  0.7818608E-02  0.8623884E-01
          2   -1    0    0  501    0  0.00000000000E+00  0.00000000000E+00  0.13633390698E+04  0.13633390698E+04  0.00000000000E+00 0.  1.
         -2   -1    0    0    0  501 -0.00000000000E+00 -0.00000000000E+00 -0.70695706737E+03  0.70695706737E+03  0.00000000000E+00 0. -1.
         23    2    1    2    0    0 -0.65807849092E+03  0.61087476585E+03 -0.84169060286E+02  0.90640131533E+03  0.90794459992E+02 0.  0.
         11    1    3    3    0    0 -0.63759759074E+03  0.56393773913E+03 -0.76866309352E+02  0.85467238802E+03  0.00000000000E+00 0.  1.
        -11    1    3    3    0    0 -0.20480900179E+02  0.46937026726E+02 -0.73027509343E+01  0.51728927315E+02  0.00000000000E+00 0. -1.
         22    1    1    2    0    0  0.65807849092E+03 -0.61087476585E+03  0.74055106269E+03  0.11638948218E+04  0.00000000000E+00 0.  1.
<mgrwt>
<rscale>  0 0.19634889E+04</rscale>
<asrwt>0</asrwt>
<pdfrwt beam="1">  1        2 0.20974447E+00 0.19634889E+04</pdfrwt>
<pdfrwt beam="2">  1       -2 0.10876263E+00 0.19634889E+04</pdfrwt>
<totfact> 0.95594223E+00</totfact>
</mgrwt>
</event>
<event>
 6    1  0.2436515E-005  0.2607841E+04  0.7818608E-02  0.8365543E-01
         -2   -1    0    0    0  501 -0.00000000000E+00  0.00000000000E+00  0.13578452730E+04  0.13578452730E+04  0.00000000000E+00 0. -1.
          2   -1    0    0  501    0  0.00000000000E+00 -0.00000000000E+00 -0.12521373408E+04  0.12521373408E+04  0.00000000000E+00 0.  1.
         23    2    1    2    0    0 -0.58032968643E+03 -0.12007564247E+03 -0.11079701567E+04  0.12593475009E+04  0.84602334427E+02 0.  0.
         11    1    3    3    0    0 -0.60617088453E+02 -0.31369746622E+02 -0.90066797787E+02  0.11300672758E+03  0.00000000000E+00 0. -1.
        -11    1    3    3    0    0 -0.51971259797E+03 -0.88705895849E+02 -0.10179033589E+04  0.11463407733E+04  0.00000000000E+00 0.  1.
         22    1    1    2    0    0  0.58032968643E+03  0.12007564247E+03  0.12136780888E+04  0.13506351129E+04  0.00000000000E+00 0. -1.
<mgrwt>
<rscale>  0 0.26078411E+04</rscale>
<asrwt>0</asrwt>
<pdfrwt beam="1">  1        2 0.19263651E+00 0.26078411E+04</pdfrwt>
<pdfrwt beam="2">  1       -2 0.20889927E+00 0.26078411E+04</pdfrwt>
<totfact> 0.18146348E+00</totfact>
</mgrwt>
</event>
<event>
 6    1  0.2436515E-005  0.2974366E+04  0.7818608E-02  0.8251089E-01
          2   -1    0    0  501    0  0.00000000000E+00  0.00000000000E+00  0.35401064372E+04  0.35401064372E+04  0.00000000000E+00 0.  1.
         -2   -1    0    0    0  501 -0.00000000000E+00 -0.00000000000E+00 -0.62475895545E+03  0.62475895545E+03  0.00000000000E+00 0. -1.
         23    2    1    2    0    0 -0.36524456670E+02 -0.14514814038E+04  0.19004441824E+04  0.23933798554E+04  0.91906149507E+02 0.  0.
         11    1    3    3    0    0 -0.61274174443E+02 -0.11797399338E+04  0.15153668493E+04  0.19214259090E+04  0.00000000000E+00 0. -1.
        -11    1    3    3    0    0  0.24749717773E+02 -0.27174147001E+03  0.38507733316E+03  0.47195394645E+03  0.00000000000E+00 0.  1.
         22    1    1    2    0    0  0.36524456670E+02  0.14514814038E+04  0.10149032993E+04  0.17714855372E+04  0.00000000000E+00 0. -1.
<mgrwt>
<rscale>  0 0.29743659E+04</rscale>
<asrwt>0</asrwt>
<pdfrwt beam="1">  1        2 0.54463175E+00 0.29743659E+04</pdfrwt>
<pdfrwt beam="2">  1       -2 0.96116764E-01 0.29743659E+04</pdfrwt>
<totfact> 0.59217176E-01</totfact>
</mgrwt>
</event>
<event>
 6    1  0.2436515E-005  0.2006237E+04  0.7818608E-02  0.8603710E-01
         -2   -1    0    0    0  501 -0.00000000000E+00  0.00000000000E+00  0.83305157865E+03  0.83305157865E+03  0.00000000000E+00 0. -1.
          2   -1    0    0  501    0  0.00000000000E+00 -0.00000000000E+00 -0.12079046677E+04  0.12079046677E+04  0.00000000000E+00 0.  1.
         23    2    1    2    0    0 -0.41520162577E+03  0.12463431998E+03 -0.11056653470E+04  0.11912429653E+04  0.92939976455E+02 0.  0.
         13    1    3    3    0    0 -0.26381554246E+03  0.11767374825E+03 -0.65782363080E+03  0.71845506520E+03  0.00000000000E+00 0.  1.
        -13    1    3    3    0    0 -0.15138608331E+03  0.69605717338E+01 -0.44784171616E+03  0.47278790013E+03  0.00000000000E+00 0. -1.
         22    1    1    2    0    0  0.41520162577E+03 -0.12463431998E+03  0.73081225786E+03  0.84971328106E+03  0.00000000000E+00 0. -1.
<mgrwt>
<rscale>  0 0.20062372E+04</rscale>
<asrwt>0</asrwt>
<pdfrwt beam="1">  1        2 0.18583149E+00 0.20062372E+04</pdfrwt>
<pdfrwt beam="2">  1       -2 0.12816178E+00 0.20062372E+04</pdfrwt>
<totfact> 0.78343544E+00</totfact>
</mgrwt>
</event>
<event>
 6    1  0.2436515E-005  0.2662109E+04  0.7818608E-02  0.8347405E-01
         -2   -1    0    0    0  501 -0.00000000000E+00  0.00000000000E+00  0.74896584765E+03  0.74896584765E+03  0.00000000000E+00 0. -1.
          2   -1    0    0  501    0  0.00000000000E+00 -0.00000000000E+00 -0.23655369103E+04  0.23655369103E+04  0.00000000000E+00 0.  1.
         23    2    1    2    0    0 -0.97403165376E+02 -0.47724047910E+03 -0.22564528415E+04  0.23103295536E+04  0.93794289998E+02 0.  0.
         11    1    3    3    0    0 -0.42271601547E+02 -0.91138833528E+02 -0.61683945312E+03  0.62496726810E+03  0.00000000000E+00 0.  1.
        -11    1    3    3    0    0 -0.55131563829E+02 -0.38610164557E+03 -0.16396133884E+04  0.16853622855E+04  0.00000000000E+00 0. -1.
         22    1    1    2    0    0  0.97403165376E+02  0.47724047910E+03  0.63988177890E+03  0.80417320428E+03  0.00000000000E+00 0. -1.
<mgrwt>
<rscale>  0 0.26621092E+04</rscale>
<asrwt>0</asrwt>
<pdfrwt beam="1">  1        2 0.36392875E+00 0.26621092E+04</pdfrwt>
<pdfrwt beam="2">  1       -2 0.11522552E+00 0.26621092E+04</pdfrwt>
<totfact> 0.21481033E+00</totfact>
</mgrwt>
</event>
<event>
 6    1  0.2436515E-005  0.1802172E+04  0.7818608E-02  0.8705145E-01
          2   -1    0    0  501    0  0.00000000000E+00  0.00000000000E+00  0.20530687201E+03  0.20530687201E+03  0.00000000000E+00 0.  1.
         -2   -1    0    0    0  501 -0.00000000000E+00 -0.00000000000E+00 -0.39548427584E+04  0.39548427584E+04  0.00000000000E+00 0. -1.
         23    2    1    2    0    0  0.45545456046E+03  0.73939550336E+03 -0.24144497295E+04  0.25674790388E+04  0.90755448103E+02 0.  0.
         11    1    3    3    0    0  0.17490050634E+03  0.22474179319E+03 -0.70593467149E+03  0.76121141685E+03  0.00000000000E+00 0. -1.
        -11    1    3    3    0    0  0.28055405412E+03  0.51465371018E+03 -0.17085150580E+04  0.18062676219E+04  0.00000000000E+00 0.  1.
         22    1    1    2    0    0 -0.45545456046E+03 -0.73939550336E+03 -0.13350861569E+04  0.15926705916E+04  0.00000000000E+00 0. -1.
<mgrwt>
<rscale>  0 0.18021725E+04</rscale>
<asrwt>0</asrwt>
<pdfrwt beam="1">  1        2 0.31585673E-01 0.18021725E+04</pdfrwt>
<pdfrwt beam="2">  1       -2 0.60843733E+00 0.18021725E+04</pdfrwt>
<totfact> 0.73053289E-02</totfact>
</mgrwt>
</event>
<event>
 6    1  0.2436515E-005  0.1475953E+04  0.7818608E-02  0.8900603E-01
          2   -1    0    0  501    0  0.00000000000E+00  0.00000000000E+00  0.84348327705E+03  0.84348327705E+03  0.00000000000E+00 0.  1.
         -2   -1    0    0    0  501 -0.00000000000E+00 -0.00000000000E+00 -0.64566689341E+03  0.64566689341E+03  0.00000000000E+00 0. -1.
         23    2    1    2    0    0  0.39229742816E+03 -0.40354802296E+03 -0.37874234999E+03  0.68344038878E+03  0.83046483083E+02 0.  0.
         11    1    3    3    0    0  0.16689933919E+03 -0.12655045482E+03 -0.17025142118E+03  0.26991841999E+03  0.00000000000E+00 0.  1.
        -11    1    3    3    0    0  0.22539808897E+03 -0.27699756815E+03 -0.20849092882E+03  0.41352196879E+03  0.00000000000E+00 0. -1.
         22    1    1    2    0    0 -0.39229742816E+03  0.40354802296E+03  0.57655873364E+03  0.80570978169E+03  0.00000000000E+00 0.  1.
<mgrwt>
<rscale>  0 0.14759529E+04</rscale>
<asrwt>0</asrwt>
<pdfrwt beam="1">  1        2 0.12976666E+00 0.14759529E+04</pdfrwt>
<pdfrwt beam="2">  1       -2 0.99333369E-01 0.14759529E+04</pdfrwt>
<totfact> 0.26058837E+01</totfact>
</mgrwt>
</event>
<event>
 6    1  0.2436515E-005  0.1031806E+04  0.7818608E-02  0.9274333E-01
          2   -1    0    0  501    0  0.00000000000E+00  0.00000000000E+00  0.32216927813E+03  0.32216927813E+03  0.00000000000E+00 0.  1.
         -2   -1    0    0    0  501 -0.00000000000E+00 -0.00000000000E+00 -0.82613659666E+03  0.82613659666E+03  0.00000000000E+00 0. -1.
         23    2    1    2    0    0 -0.43667406111E+03 -0.14379126691E+03 -0.38693424604E+01  0.46899876474E+03  0.92653685498E+02 0.  0.
         11    1    3    3    0    0 -0.91247082467E+02  0.78192767586E+01 -0.57227444437E+01  0.91760127243E+02  0.00000000000E+00 0. -1.
        -11    1    3    3    0    0 -0.34542697864E+03 -0.15161054367E+03  0.18534019833E+01  0.37723863750E+03  0.00000000000E+00 0.  1.
         22    1    1    2    0    0  0.43667406111E+03  0.14379126691E+03 -0.50009797607E+03  0.67930711004E+03  0.00000000000E+00 0. -1.
<mgrwt>
<rscale>  0 0.10318059E+04</rscale>
<asrwt>0</asrwt>
<pdfrwt beam="1">  1        2 0.49564504E-01 0.10318059E+04</pdfrwt>
<pdfrwt beam="2">  1       -2 0.12709794E+00 0.10318059E+04</pdfrwt>
<totfact> 0.46437489E+01</totfact>
</mgrwt>
</event>
<event>
 6    1  0.2436515E-005  0.3380002E+04  0.7818608E-02  0.8142832E-01
          2   -1    0    0  501    0  0.00000000000E+00  0.00000000000E+00  0.19542818610E+04  0.19542818610E+04  0.00000000000E+00 0.  1.
         -2   -1    0    0    0  501 -0.00000000000E+00 -0.00000000000E+00 -0.14614589296E+04  0.14614589296E+04  0.00000000000E+00 0. -1.
         23    2    1    2    0    0  0.16019646191E+03 -0.42023149205E+03 -0.13983867278E+04  0.14717934178E+04  0.91831426499E+02 0.  0.
         13    1    3    3    0    0  0.59793415944E+02 -0.26966924744E+03 -0.77961885252E+03  0.82710477620E+03  0.00000000000E+00 0. -1.
        -13    1    3    3    0    0  0.10040304597E+03 -0.15056224461E+03 -0.61876787523E+03  0.64468864156E+03  0.00000000000E+00 0.  1.
         22    1    1    2    0    0 -0.16019646191E+03  0.42023149205E+03  0.18912096592E+04  0.19439473729E+04  0.00000000000E+00 0.  1.
<mgrwt>
<rscale>  0 0.33800016E+04</rscale>
<asrwt>0</asrwt>
<pdfrwt beam="1">  1        2 0.30065875E+00 0.33800016E+04</pdfrwt>
<pdfrwt beam="2">  1       -2 0.22483983E+00 0.33800016E+04</pdfrwt>
<totfact> 0.54153215E-01</totfact>
</mgrwt>
</event>
<event>
 6    1  0.2436515E-005  0.1585775E+04  0.7818608E-02  0.8829335E-01
          2   -1    0    0  501    0  0.00000000000E+00  0.00000000000E+00  0.17654105834E+04  0.17654105834E+04  0.00000000000E+00 0.  1.
         -2   -1    0    0    0  501 -0.00000000000E+00 -0.00000000000E+00 -0.35610465158E+03  0.35610465158E+03  0.00000000000E+00 0. -1.
         23    2    1    2    0    0  0.54271446011E+03 -0.35833464311E+03  0.13079158918E+04  0.14633187279E+04  0.87835174650E+02 0.  0.
         13    1    3    3    0    0  0.45915663952E+03 -0.28120868111E+03  0.11368481066E+04  0.12579057037E+04  0.00000000000E+00 0. -1.
        -13    1    3    3    0    0  0.83557820585E+02 -0.77125961995E+02  0.17106778513E+03  0.20541302419E+03  0.00000000000E+00 0.  1.
         22    1    1    2    0    0 -0.54271446011E+03  0.35833464311E+03  0.10139004005E+03  0.65819650704E+03  0.00000000000E+00 0. -1.
<mgrwt>
<rscale>  0 0.15857754E+04</rscale>
<asrwt>0</asrwt>
<pdfrwt beam="1">  1        2 0.27160162E+00 0.15857754E+04</pdfrwt>
<pdfrwt beam="2">  1       -2 0.54785332E-01 0.15857754E+04</pdfrwt>
<totfact> 0.27135227E+01</totfact>
</mgrwt>
</event>
<event>
 6    1  0.2436515E-005  0.3365249E+04  0.7818608E-02  0.8146488E-01
         -2   -1    0    0    0  501 -0.00000000000E+00  0.00000000000E+00  0.21269730230E+04  0.21269730230E+04  0.00000000000E+00 0. -1.
          2   -1    0    0  501    0  0.00000000000E+00 -0.00000000000E+00 -0.13311052969E+04  0.13311052969E+04  0.00000000000E+00 0.  1.
         23    2    1    2    0    0  0.43564951021E+03  0.56206387529E+03  0.19637578830E+04  0.20907181939E+04  0.95138044025E+02 0.  0.
         13    1    3    3    0    0  0.16850505692E+03  0.23458226831E+03  0.93299743740E+03  0.97668163340E+03  0.00000000000E+00 0. -1.
        -13    1    3    3    0    0  0.26714445329E+03  0.32748160698E+03  0.10307604456E+04  0.11140365605E+04  0.00000000000E+00 0.  1.
         22    1    1    2    0    0 -0.43564951021E+03 -0.56206387529E+03 -0.11678901569E+04  0.13673601260E+04  0.00000000000E+00 0.  1.
<mgrwt>
<rscale>  0 0.33652489E+04</rscale>
<asrwt>0</asrwt>
<pdfrwt beam="1">  1        2 0.20478543E+00 0.33652489E+04</pdfrwt>
<pdfrwt beam="2">  1       -2 0.32722662E+00 0.33652489E+04</pdfrwt>
<totfact> 0.28445321E-01</totfact>
</mgrwt>
</event>
<event>
 6    1  0.3333139E-005  0.4071483E+04  0.7818608E-02  0.7990279E-01
          2   -1    0    0  501    0  0.00000000000E+00  0.00000000000E+00  0.19995821532E+04  0.19995821532E+04  0.00000000000E+00 0.  1.
         -2   -1    0    0    0  501 -0.00000000000E+00 -0.00000000000E+00 -0.20725548289E+04  0.20725548289E+04  0.00000000000E+00 0. -1.
         23    2    1    2    0    0 -0.49814802108E+03  0.13542384493E+04  0.13982855320E+04  0.20113813095E+04  0.91318753299E+02 0.  0.
         13    1    3    3    0    0 -0.53494472111E+02  0.11203566446E+03  0.90193702081E+02  0.15345537642E+03  0.00000000000E+00 0. -1.
        -13    1    3    3    0    0 -0.44465354897E+03  0.12422027848E+04  0.13080918299E+04  0.18579259331E+04  0.00000000000E+00 0.  1.
         22    1    1    2    0    0  0.49814802108E+03 -0.13542384493E+04 -0.14712582077E+04  0.20607556726E+04  0.00000000000E+00 0. -1.
<mgrwt>
<rscale>  0 0.40714831E+04</rscale>
<asrwt>0</asrwt>
<pdfrwt beam="1">  1        2 0.30762802E+00 0.40714831E+04</pdfrwt>
<pdfrwt beam="2">  1       -2 0.31885459E+00 0.40714831E+04</pdfrwt>
<totfact> 0.12760151E-01</totfact>
</mgrwt>
</event>
<event>
 6    1  0.2436515E-005  0.9523211E+03  0.7818608E-02  0.9362442E-01
         -1   -1    0    0    0  501 -0.00000000000E+00  0.00000000000E+00  0.71131594640E+03  0.71131594640E+03  0.00000000000E+00 0.  1.
          1   -1    0    0  501    0  0.00000000000E+00 -0.00000000000E+00 -0.31874564586E+03  0.31874564586E+03  0.00000000000E+00 0. -1.
         23    2    1    2    0    0  0.36993367493E+03 -0.10440236130E+02  0.51459503254E+03  0.64038229131E+03  0.91222306059E+02 0.  0.
         13    1    3    3    0    0  0.31330093119E+03 -0.32062735233E+02  0.46718408262E+03  0.56342387199E+03  0.00000000000E+00 0.  1.
        -13    1    3    3    0    0  0.56632743738E+02  0.21622499103E+02  0.47410949922E+02  0.76958419313E+02  0.00000000000E+00 0. -1.
         22    1    1    2    0    0 -0.36993367493E+03  0.10440236130E+02 -0.12202473200E+03  0.38967930096E+03  0.00000000000E+00 0. -1.
<mgrwt>
<rscale>  0 0.95232108E+03</rscale>
<asrwt>0</asrwt>
<pdfrwt beam="1">  1        1 0.49037792E-01 0.95232108E+03</pdfrwt>
<pdfrwt beam="2">  1       -1 0.10943322E+00 0.95232108E+03</pdfrwt>
<totfact> 0.62931456E+01</totfact>
</mgrwt>
</event>
<event>
 6    1  0.2436515E-005  0.3212460E+04  0.7818608E-02  0.8185534E-01
          2   -1    0    0  501    0  0.00000000000E+00  0.00000000000E+00  0.26029812981E+04  0.26029812981E+04  0.00000000000E+00 0.  1.
         -2   -1    0    0    0  501 -0.00000000000E+00 -0.00000000000E+00 -0.99116126166E+03  0.99116126166E+03  0.00000000000E+00 0. -1.
         23    2    1    2    0    0 -0.33475096992E+03 -0.31638586217E+03 -0.91349027307E+03  0.10271695593E+04  0.91948893258E+02 0.  0.
         13    1    3    3    0    0 -0.17022237804E+03 -0.13271613965E+03 -0.51709650467E+03  0.56033742232E+03  0.00000000000E+00 0.  1.
        -13    1    3    3    0    0 -0.16452859188E+03 -0.18366972252E+03 -0.39639376840E+03  0.46683213701E+03  0.00000000000E+00 0. -1.
         22    1    1    2    0    0  0.33475096992E+03  0.31638586217E+03  0.25253103095E+04  0.25669730004E+04  0.00000000000E+00 0.  1.
<mgrwt>
<rscale>  0 0.32124596E+04</rscale>
<asrwt>0</asrwt>
<pdfrwt beam="1">  1        2 0.40045866E+00 0.32124596E+04</pdfrwt>
<pdfrwt beam="2">  1       -2 0.15248635E+00 0.32124596E+04</pdfrwt>
<totfact> 0.73102249E-01</totfact>
</mgrwt>
</event>
<event>
 6    1  0.2436515E-005  0.2238388E+04  0.7818608E-02  0.8502618E-01
          2   -1    0    0  501    0  0.00000000000E+00  0.00000000000E+00  0.19273196071E+04  0.19273196071E+04  0.00000000000E+00 0.  1.
         -2   -1    0    0    0  501 -0.00000000000E+00 -0.00000000000E+00 -0.64991538868E+03  0.64991538868E+03  0.00000000000E+00 0. -1.
         23    2    1    2    0    0  0.92976670559E+03  0.23141339731E+03  0.13034904709E+04  0.16187472390E+04  0.56894012943E+02 0.  0.
         13    1    3    3    0    0  0.52529939989E+03  0.15834791519E+03  0.73058018076E+03  0.91365251726E+03  0.00000000000E+00 0.  1.
        -13    1    3    3    0    0  0.40446730570E+03  0.73065482119E+02  0.57291029016E+03  0.70509472174E+03  0.00000000000E+00 0. -1.
         22    1    1    2    0    0 -0.92976670559E+03 -0.23141339731E+03 -0.26086252519E+02  0.95848775675E+03  0.00000000000E+00 0. -1.
<mgrwt>
<rscale>  0 0.22383875E+04</rscale>
<asrwt>0</asrwt>
<pdfrwt beam="1">  1        2 0.29651071E+00 0.22383875E+04</pdfrwt>
<pdfrwt beam="2">  1       -2 0.99986984E-01 0.22383875E+04</pdfrwt>
<totfact> 0.55204469E+00</totfact>
</mgrwt>
</event>
<event>
 6    1  0.2436515E-005  0.3369412E+04  0.7818608E-02  0.8145455E-01
         -2   -1    0    0    0  501 -0.00000000000E+00  0.00000000000E+00  0.20962622428E+04  0.20962622428E+04  0.00000000000E+00 0. -1.
          2   -1    0    0  501    0  0.00000000000E+00 -0.00000000000E+00 -0.13539499106E+04  0.13539499106E+04  0.00000000000E+00 0.  1.
         23    2    1    2    0    0  0.12378583907E+04  0.10877836976E+04  0.72411336365E+03  0.18022139828E+04  0.89823762508E+02 0.  0.
         11    1    3    3    0    0  0.94915485736E+03  0.78988905841E+03  0.51960296875E+03  0.13397040393E+04  0.00000000000E+00 0. -1.
        -11    1    3    3    0    0  0.28870353331E+03  0.29789463918E+03  0.20451039491E+03  0.46250994348E+03  0.00000000000E+00 0.  1.
         22    1    1    2    0    0 -0.12378583907E+04 -0.10877836976E+04  0.18198968535E+02  0.16479981707E+04  0.00000000000E+00 0.  1.
<mgrwt>
<rscale>  0 0.33694119E+04</rscale>
<asrwt>0</asrwt>
<pdfrwt beam="1">  1        2 0.20829999E+00 0.33694119E+04</pdfrwt>
<pdfrwt beam="2">  1       -2 0.32250188E+00 0.33694119E+04</pdfrwt>
<totfact> 0.29508280E-01</totfact>
</mgrwt>
</event>
<event>
 6    1  0.2436515E-005  0.1792952E+04  0.7818608E-02  0.8710056E-01
         -2   -1    0    0    0  501 -0.00000000000E+00  0.00000000000E+00  0.11434960390E+04  0.11434960390E+04  0.00000000000E+00 0. -1.
          2   -1    0    0  501    0  0.00000000000E+00 -0.00000000000E+00 -0.70281769934E+03  0.70281769934E+03  0.00000000000E+00 0.  1.
         23    2    1    2    0    0  0.83971463570E+03  0.30687339167E+03  0.24949937442E+03  0.93207014683E+03  0.84928633895E+02 0.  0.
         11    1    3    3    0    0  0.64073864248E+03  0.25497331795E+03  0.16070346489E+03  0.70808403771E+03  0.00000000000E+00 0. -1.
        -11    1    3    3    0    0  0.19897599322E+03  0.51900073728E+02  0.88795909533E+02  0.22398610912E+03  0.00000000000E+00 0.  1.
         22    1    1    2    0    0 -0.83971463570E+03 -0.30687339167E+03  0.19117896529E+03  0.91424359155E+03  0.00000000000E+00 0. -1.
<mgrwt>
<rscale>  0 0.17929520E+04</rscale>
<asrwt>0</asrwt>
<pdfrwt beam="1">  1        2 0.10812580E+00 0.17929520E+04</pdfrwt>
<pdfrwt beam="2">  1       -2 0.17592247E+00 0.17929520E+04</pdfrwt>
<totfact> 0.74484667E+00</totfact>
</mgrwt>
</event>
<event>
 6    1  0.2436515E-005  0.3760765E+04  0.7818608E-02  0.8054627E-01
         -2   -1    0    0    0  501 -0.00000000000E+00  0.00000000000E+00  0.12821919489E+04  0.12821919489E+04  0.00000000000E+00 0. -1.
          2   -1    0    0  501    0  0.00000000000E+00 -0.00000000000E+00 -0.27576515712E+04  0.27576515712E+04  0.00000000000E+00 0.  1.
         23    2    1    2    0    0 -0.14760961340E+04  0.91913835516E+03  0.27446631867E+02  0.17414957827E+04  0.91537591813E+02 0.  0.
         13    1    3    3    0    0 -0.93030859000E+03  0.60184916072E+03 -0.22162905682E+02  0.11082362922E+04  0.00000000000E+00 0. -1.
        -13    1    3    3    0    0 -0.54578754405E+03  0.31728919445E+03  0.49609537549E+02  0.63325949054E+03  0.00000000000E+00 0.  1.
         22    1    1    2    0    0  0.14760961340E+04 -0.91913835516E+03 -0.15029062542E+04  0.22983477373E+04  0.00000000000E+00 0. -1.
<mgrwt>
<rscale>  0 0.37607652E+04</rscale>
<asrwt>0</asrwt>
<pdfrwt beam="1">  1        2 0.42425409E+00 0.37607652E+04</pdfrwt>
<pdfrwt beam="2">  1       -2 0.19726030E+00 0.37607652E+04</pdfrwt>
<totfact> 0.27345196E-01</totfact>
</mgrwt>
</event>
<event>
 6    1  0.2436515E-005  0.1341225E+04  0.7818608E-02  0.8997498E-01
          2   -1    0    0  501    0  0.00000000000E+00  0.00000000000E+00  0.16443424744E+04  0.16443424744E+04  0.00000000000E+00 0.  1.
         -2   -1    0    0    0  501 -0.00000000000E+00 -0.00000000000E+00 -0.27349581996E+03  0.27349581996E+03  0.00000000000E+00 0. -1.
         23    2    1    2    0    0 -0.28479803637E+03  0.54316762643E+03  0.10656360026E+04  0.12327875415E+04  0.89688576000E+02 0.  0.
         13    1    3    3    0    0 -0.13330903739E+03  0.26635673093E+03  0.60621326658E+03  0.67543447657E+03  0.00000000000E+00 0. -1.
        -13    1    3    3    0    0 -0.15148899899E+03  0.27681089550E+03  0.45942273599E+03  0.55735306497E+03  0.00000000000E+00 0.  1.
         22    1    1    2    0    0  0.28479803637E+03 -0.54316762643E+03  0.30521065184E+03  0.68505075281E+03  0.00000000000E+00 0. -1.
<mgrwt>
<rscale>  0 0.13412245E+04</rscale>
<asrwt>0</asrwt>
<pdfrwt beam="1">  1        2 0.25297576E+00 0.13412245E+04</pdfrwt>
<pdfrwt beam="2">  1       -2 0.42076281E-01 0.13412245E+04</pdfrwt>
<totfact> 0.55098836E+01</totfact>
</mgrwt>
</event>
<event>
 6    1  0.2436515E-005  0.4321204E+04  0.7818608E-02  0.7942709E-01
          2   -1    0    0  501    0  0.00000000000E+00  0.00000000000E+00  0.34312106320E+04  0.34312106320E+04  0.00000000000E+00 0.  1.
         -2   -1    0    0    0  501 -0.00000000000E+00 -0.00000000000E+00 -0.13605115651E+04  0.13605115651E+04  0.00000000000E+00 0. -1.
         23    2    1    2    0    0  0.78966894211E+03 -0.20096159423E+04  0.10845716203E+04  0.24179950404E+04  0.90945819572E+02 0.  0.
         13    1    3    3    0    0  0.17728542494E+03 -0.36255431327E+03  0.18664807216E+03  0.44464958654E+03  0.00000000000E+00 0. -1.
        -13    1    3    3    0    0  0.61238351717E+03 -0.16470616291E+04  0.89792354815E+03  0.19733454539E+04  0.00000000000E+00 0.  1.
         22    1    1    2    0    0 -0.78966894211E+03  0.20096159423E+04  0.98612744661E+03  0.23737271568E+04  0.00000000000E+00 0.  1.
<mgrwt>
<rscale>  0 0.43212043E+04</rscale>
<asrwt>0</asrwt>
<pdfrwt beam="1">  1        2 0.52787856E+00 0.43212043E+04</pdfrwt>
<pdfrwt beam="2">  1       -2 0.20930947E+00 0.43212043E+04</pdfrwt>
<totfact> 0.80575269E-02</totfact>
</mgrwt>
</event>
<event>
 6    1  0.2436515E-005  0.2218955E+04  0.7818608E-02  0.8510580E-01
         -2   -1    0    0    0  501 -0.00000000000E+00  0.00000000000E+00  0.57881848562E+03  0.57881848562E+03  0.00000000000E+00 0. -1.
          2   -1    0    0  501    0  0.00000000000E+00 -0.00000000000E+00 -0.21266429048E+04  0.21266429048E+04  0.00000000000E+00 0.  1.
         23    2    1    2    0    0  0.58257838043E+03  0.66640732590E+03 -0.15858990144E+04  0.18194896255E+04  0.10940987267E+03 0.  0.
         11    1    3    3    0    0  0.20825644465E+03  0.16921354064E+03 -0.43524778503E+03  0.51131653939E+03  0.00000000000E+00 0. -1.
        -11    1    3    3    0    0  0.37432193578E+03  0.49719378526E+03 -0.11506512293E+04  0.13081730861E+04  0.00000000000E+00 0.  1.
         22    1    1    2    0    0 -0.58257838043E+03 -0.66640732590E+03  0.38074595224E+02  0.88597176488E+03  0.00000000000E+00 0. -1.
<mgrwt>
<rscale>  0 0.22189549E+04</rscale>
<asrwt>0</asrwt>
<pdfrwt beam="1">  1        2 0.32717583E+00 0.22189549E+04</pdfrwt>
<pdfrwt beam="2">  1       -2 0.89048997E-01 0.22189549E+04</pdfrwt>
<totfact> 0.56109504E+00</totfact>
</mgrwt>
</event>
<event>
 6    1  0.2436515E-005  0.8086581E+03  0.7818608E-02  0.9547569E-01
          2   -1    0    0  501    0  0.00000000000E+00  0.00000000000E+00  0.44749692199E+03  0.44749692199E+03  0.00000000000E+00 0.  1.
         -2   -1    0    0    0  501 -0.00000000000E+00 -0.00000000000E+00 -0.36532537411E+03  0.36532537411E+03  0.00000000000E+00 0. -1.
         23    2    1    2    0    0 -0.77365240067E+02  0.26811372915E+03 -0.24451175954E+03  0.38318019450E+03  0.95763817668E+02 0.  0.
         13    1    3    3    0    0  0.11741616160E+02  0.32224003079E+02 -0.65515234610E+02  0.73949292698E+02  0.00000000000E+00 0. -1.
        -13    1    3    3    0    0 -0.89106856227E+02  0.23588972607E+03 -0.17899652493E+03  0.30923090180E+03  0.00000000000E+00 0.  1.
         22    1    1    2    0    0  0.77365240067E+02 -0.26811372915E+03  0.32668330742E+03  0.42964210161E+03  0.00000000000E+00 0.  1.
<mgrwt>
<rscale>  0 0.80865810E+03</rscale>
<asrwt>0</asrwt>
<pdfrwt beam="1">  1        2 0.68845680E-01 0.80865810E+03</pdfrwt>
<pdfrwt beam="2">  1       -2 0.56203904E-01 0.80865810E+03</pdfrwt>
<totfact> 0.20949933E+02</totfact>
</mgrwt>
</event>
<event>
 6    1  0.2436515E-005  0.3378969E+04  0.7818608E-02  0.8143087E-01
          2   -1    0    0  501    0  0.00000000000E+00  0.00000000000E+00  0.17603527890E+04  0.17603527890E+04  0.00000000000E+00 0.  1.
         -2   -1    0    0    0  501 -0.00000000000E+00 -0.00000000000E+00 -0.16214691334E+04  0.16214691334E+04  0.00000000000E+00 0. -1.
         23    2    1    2    0    0  0.11708359602E+04 -0.25536269542E+03 -0.11206687795E+04  0.16432767580E+04  0.91613525385E+02 0.  0.
         11    1    3    3    0    0  0.87274031964E+02 -0.11417723950E+02 -0.11605841744E+03  0.14565945673E+03  0.00000000000E+00 0.  1.
        -11    1    3    3    0    0  0.10835619283E+04 -0.24394497147E+03 -0.10046103621E+04  0.14976173013E+04  0.00000000000E+00 0. -1.
         22    1    1    2    0    0 -0.11708359602E+04  0.25536269542E+03  0.12595524351E+04  0.17385451645E+04  0.00000000000E+00 0.  1.
<mgrwt>
<rscale>  0 0.33789689E+04</rscale>
<asrwt>0</asrwt>
<pdfrwt beam="1">  1        2 0.27082350E+00 0.33789689E+04</pdfrwt>
<pdfrwt beam="2">  1       -2 0.24945679E+00 0.33789689E+04</pdfrwt>
<totfact> 0.48785511E-01</totfact>
</mgrwt>
</event>
<event>
 6    1  0.2436515E-005  0.8668496E+03  0.7818608E-02  0.9467997E-01
          2   -1    0    0  501    0  0.00000000000E+00  0.00000000000E+00  0.77229749036E+03  0.77229749036E+03  0.00000000000E+00 0. -1.
         -2   -1    0    0    0  501 -0.00000000000E+00 -0.00000000000E+00 -0.24324439499E+03  0.24324439499E+03  0.00000000000E+00 0.  1.
         23    2    1    2    0    0  0.32874214782E+03 -0.15808855378E+03  0.36657710757E+01  0.37593635760E+03  0.90836757419E+02 0.  0.
         13    1    3    3    0    0  0.44111742436E+02  0.65051582566E+01 -0.13809130384E+02  0.46678206764E+02  0.00000000000E+00 0.  1.
        -13    1    3    3    0    0  0.28463040539E+03 -0.16459371204E+03  0.17474901460E+02  0.32925815084E+03  0.00000000000E+00 0. -1.
         22    1    1    2    0    0 -0.32874214782E+03  0.15808855378E+03  0.52538732430E+03  0.63960552775E+03  0.00000000000E+00 0. -1.
<mgrwt>
<rscale>  0 0.86684955E+03</rscale>
<asrwt>0</asrwt>
<pdfrwt beam="1">  1        2 0.11881500E+00 0.86684955E+03</pdfrwt>
<pdfrwt beam="2">  1       -2 0.37422215E-01 0.86684955E+03</pdfrwt>
<totfact> 0.24384155E+02</totfact>
</mgrwt>
</event>
<event>
 6    1  0.2436515E-005  0.2870050E+04  0.7818608E-02  0.8281845E-01
          2   -1    0    0  501    0  0.00000000000E+00  0.00000000000E+00  0.32711315514E+04  0.32711315514E+04  0.00000000000E+00 0.  1.
         -2   -1    0    0    0  501 -0.00000000000E+00 -0.00000000000E+00 -0.62953640887E+03  0.62953640887E+03  0.00000000000E+00 0. -1.
         23    2    1    2    0    0  0.11489622213E+04 -0.39699100407E+03  0.28938126029E+03  0.12529092494E+04  0.91236122586E+02 0.  0.
         13    1    3    3    0    0  0.43451699767E+03 -0.15944051518E+03  0.65723018308E+02  0.46748883867E+03  0.00000000000E+00 0. -1.
        -13    1    3    3    0    0  0.71444522363E+03 -0.23755048889E+03  0.22365824198E+03  0.78542041070E+03  0.00000000000E+00 0.  1.
         22    1    1    2    0    0 -0.11489622213E+04  0.39699100407E+03  0.23522138823E+04  0.26477587109E+04  0.00000000000E+00 0.  1.
<mgrwt>
<rscale>  0 0.28700498E+04</rscale>
<asrwt>0</asrwt>
<pdfrwt beam="1">  1        2 0.50325100E+00 0.28700498E+04</pdfrwt>
<pdfrwt beam="2">  1       -2 0.96851757E-01 0.28700498E+04</pdfrwt>
<totfact> 0.89679941E-01</totfact>
</mgrwt>
</event>
<event>
 6    1  0.2436515E-005  0.2623866E+04  0.7818608E-02  0.8360140E-01
          2   -1    0    0  501    0  0.00000000000E+00  0.00000000000E+00  0.15684438596E+04  0.15684438596E+04  0.00000000000E+00 0.  1.
         -2   -1    0    0    0  501 -0.00000000000E+00 -0.00000000000E+00 -0.10973727445E+04  0.10973727445E+04  0.00000000000E+00 0. -1.
         23    2    1    2    0    0  0.32568114184E+03  0.89450836073E+02  0.15223740031E+04  0.15615940628E+04  0.82968387818E+02 0.  0.
         11    1    3    3    0    0  0.14642299918E+03 -0.20416146974E+01  0.62375248384E+03  0.64071134216E+03  0.00000000000E+00 0. -1.
        -11    1    3    3    0    0  0.17925814266E+03  0.91492450771E+02  0.89862151929E+03  0.92088272065E+03  0.00000000000E+00 0.  1.
         22    1    1    2    0    0 -0.32568114184E+03 -0.89450836073E+02 -0.10513028881E+04  0.11042225413E+04  0.00000000000E+00 0. -1.
<mgrwt>
<rscale>  0 0.26238655E+04</rscale>
<asrwt>0</asrwt>
<pdfrwt beam="1">  1        2 0.24129905E+00 0.26238655E+04</pdfrwt>
<pdfrwt beam="2">  1       -2 0.16882658E+00 0.26238655E+04</pdfrwt>
<totfact> 0.22284825E+00</totfact>
</mgrwt>
</event>
<event>
 6    1  0.2436515E-005  0.1680633E+04  0.7818608E-02  0.8772488E-01
          2   -1    0    0  501    0  0.00000000000E+00  0.00000000000E+00  0.17817152579E+04  0.17817152579E+04  0.00000000000E+00 0. -1.
         -2   -1    0    0    0  501 -0.00000000000E+00 -0.00000000000E+00 -0.39632133931E+03  0.39632133931E+03  0.00000000000E+00 0.  1.
         23    2    1    2    0    0  0.55242186418E+03  0.51787646449E+03  0.22979277683E+03  0.79645057118E+03  0.90348456339E+02 0.  0.
         13    1    3    3    0    0  0.24012393680E+03  0.21989092816E+03  0.52475610152E+02  0.32979571703E+03  0.00000000000E+00 0. -1.
        -13    1    3    3    0    0  0.31229792738E+03  0.29798553633E+03  0.17731716668E+03  0.46665485415E+03  0.00000000000E+00 0.  1.
         22    1    1    2    0    0 -0.55242186418E+03 -0.51787646449E+03  0.11556011418E+04  0.13815860261E+04  0.00000000000E+00 0. -1.
<mgrwt>
<rscale>  0 0.16806329E+04</rscale>
<asrwt>0</asrwt>
<pdfrwt beam="1">  1        2 0.27411004E+00 0.16806329E+04</pdfrwt>
<pdfrwt beam="2">  1       -2 0.60972515E-01 0.16806329E+04</pdfrwt>
<totfact> 0.21068510E+01</totfact>
</mgrwt>
</event>
<event>
 6    1  0.2436515E-005  0.1646857E+04  0.7818608E-02  0.8792268E-01
          2   -1    0    0  501    0  0.00000000000E+00  0.00000000000E+00  0.85782351667E+03  0.85782351667E+03  0.00000000000E+00 0.  1.
         -2   -1    0    0    0  501 -0.00000000000E+00 -0.00000000000E+00 -0.79041302188E+03  0.79041302188E+03  0.00000000000E+00 0. -1.
         23    2    1    2    0    0 -0.58530187330E+03  0.54216509577E+03 -0.16023211915E+03  0.81857248990E+03  0.88686612589E+02 0.  0.
         11    1    3    3    0    0 -0.44617397254E+03  0.37784659411E+03 -0.14695874815E+03  0.60285664640E+03  0.00000000000E+00 0. -1.
        -11    1    3    3    0    0 -0.13912790076E+03  0.16431850167E+03 -0.13273370997E+02  0.21571584350E+03  0.00000000000E+00 0.  1.
         22    1    1    2    0    0  0.58530187330E+03 -0.54216509577E+03  0.22764261394E+03  0.82966404866E+03  0.00000000000E+00 0.  1.
<mgrwt>
<rscale>  0 0.16468575E+04</rscale>
<asrwt>0</asrwt>
<pdfrwt beam="1">  1        2 0.13197285E+00 0.16468575E+04</pdfrwt>
<pdfrwt beam="2">  1       -2 0.12160200E+00 0.16468575E+04</pdfrwt>
<totfact> 0.15384606E+01</totfact>
</mgrwt>
</event>
<event>
 6    1  0.2436515E-005  0.2644699E+04  0.7818608E-02  0.8353175E-01
          1   -1    0    0  501    0  0.00000000000E+00  0.00000000000E+00  0.16320269687E+04  0.16320269687E+04  0.00000000000E+00 0.  1.
         -1   -1    0    0    0  501 -0.00000000000E+00 -0.00000000000E+00 -0.10714333198E+04  0.10714333198E+04  0.00000000000E+00 0. -1.
         23    2    1    2    0    0 -0.11649521802E+04  0.62109381664E+03  0.24414451693E+03  0.13458848157E+04  0.94489580916E+02 0.  0.
         11    1    3    3    0    0 -0.55516418913E+03  0.24815448183E+03  0.91002776576E+02  0.61487350658E+03  0.00000000000E+00 0. -1.
        -11    1    3    3    0    0 -0.60978799103E+03  0.37293933481E+03  0.15314174035E+03  0.73101130914E+03  0.00000000000E+00 0.  1.
         22    1    1    2    0    0  0.11649521802E+04 -0.62109381664E+03  0.31644913202E+03  0.13575754728E+04  0.00000000000E+00 0. -1.
<mgrwt>
<rscale>  0 0.26446989E+04</rscale>
<asrwt>0</asrwt>
<pdfrwt beam="1">  1        1 0.25108107E+00 0.26446989E+04</pdfrwt>
<pdfrwt beam="2">  1       -1 0.16483590E+00 0.26446989E+04</pdfrwt>
<totfact> 0.12507621E+00</totfact>
</mgrwt>
</event>
<event>
 6    1  0.2436515E-005  0.2866259E+04  0.7818608E-02  0.8282988E-01
          2   -1    0    0  501    0  0.00000000000E+00  0.00000000000E+00  0.23090680437E+04  0.23090680437E+04  0.00000000000E+00 0.  1.
         -2   -1    0    0    0  501 -0.00000000000E+00 -0.00000000000E+00 -0.88947596551E+03  0.88947596551E+03  0.00000000000E+00 0. -1.
         23    2    1    2    0    0  0.43146278868E+03  0.60322298101E+03  0.20770643127E+04  0.22074295647E+04  0.92255196158E+02 0.  0.
         11    1    3    3    0    0  0.16715661186E+03  0.17876261355E+03  0.77143411860E+03  0.80932564782E+03  0.00000000000E+00 0.  1.
        -11    1    3    3    0    0  0.26430617682E+03  0.42446036746E+03  0.13056301941E+04  0.13981039169E+04  0.00000000000E+00 0. -1.
         22    1    1    2    0    0 -0.43146278868E+03 -0.60322298101E+03 -0.65747223454E+03  0.99111444447E+03  0.00000000000E+00 0. -1.
<mgrwt>
<rscale>  0 0.28662593E+04</rscale>
<asrwt>0</asrwt>
<pdfrwt beam="1">  1        2 0.35524124E+00 0.28662593E+04</pdfrwt>
<pdfrwt beam="2">  1       -2 0.13684246E+00 0.28662593E+04</pdfrwt>
<totfact> 0.14772833E+00</totfact>
</mgrwt>
</event>
<event>
 6    1  0.2436515E-005  0.3636126E+04  0.7818608E-02  0.8082266E-01
          2   -1    0    0  501    0  0.00000000000E+00  0.00000000000E+00  0.23628962998E+04  0.23628962998E+04  0.00000000000E+00 0.  1.
         -2   -1    0    0    0  501 -0.00000000000E+00 -0.00000000000E+00 -0.13988563923E+04  0.13988563923E+04  0.00000000000E+00 0. -1.
         23    2    1    2    0    0  0.10393116280E+04  0.14120693631E+04 -0.10387513836E+02  0.17558570453E+04  0.93901634109E+02 0.  0.
         13    1    3    3    0    0  0.45709873981E+03  0.69954975924E+03 -0.10732617383E+02  0.83571784273E+03  0.00000000000E+00 0.  1.
        -13    1    3    3    0    0  0.58221288815E+03  0.71251960387E+03  0.34510354742E+00  0.92013920258E+03  0.00000000000E+00 0. -1.
         22    1    1    2    0    0 -0.10393116280E+04 -0.14120693631E+04  0.97442742132E+03  0.20058956468E+04  0.00000000000E+00 0.  1.
<mgrwt>
<rscale>  0 0.36361257E+04</rscale>
<asrwt>0</asrwt>
<pdfrwt beam="1">  1        2 0.36352251E+00 0.36361257E+04</pdfrwt>
<pdfrwt beam="2">  1       -2 0.21520868E+00 0.36361257E+04</pdfrwt>
<totfact> 0.35968860E-01</totfact>
</mgrwt>
</event>
<event>
 6    1  0.2436515E-005  0.1219994E+04  0.7818608E-02  0.9095533E-01
          2   -1    0    0  501    0  0.00000000000E+00  0.00000000000E+00  0.48318747483E+03  0.48318747483E+03  0.00000000000E+00 0.  1.
         -2   -1    0    0    0  501 -0.00000000000E+00 -0.00000000000E+00 -0.77008713233E+03  0.77008713233E+03  0.00000000000E+00 0. -1.
         23    2    1    2    0    0 -0.14369244868E+03 -0.53911576976E+03  0.99592723226E+02  0.57454808389E+03  0.94305128017E+02 0.  0.
         13    1    3    3    0    0 -0.10625880714E+03 -0.23729376796E+03  0.23627296749E+02  0.26106994381E+03  0.00000000000E+00 0.  1.
        -13    1    3    3    0    0 -0.37433641537E+02 -0.30182200180E+03  0.75965426477E+02  0.31347814009E+03  0.00000000000E+00 0. -1.
         22    1    1    2    0    0  0.14369244868E+03  0.53911576976E+03 -0.38649238073E+03  0.67872652326E+03  0.00000000000E+00 0. -1.
<mgrwt>
<rscale>  0 0.12199942E+04</rscale>
<asrwt>0</asrwt>
<pdfrwt beam="1">  1        2 0.74336535E-01 0.12199942E+04</pdfrwt>
<pdfrwt beam="2">  1       -2 0.11847494E+00 0.12199942E+04</pdfrwt>
<totfact> 0.34602171E+01</totfact>
</mgrwt>
</event>
<event>
 6    1  0.2436515E-005  0.4597063E+04  0.7818608E-02  0.7893861E-01
         -2   -1    0    0    0  501 -0.00000000000E+00  0.00000000000E+00  0.18385306860E+04  0.18385306860E+04  0.00000000000E+00 0. -1.
          2   -1    0    0  501    0  0.00000000000E+00 -0.00000000000E+00 -0.28736247369E+04  0.28736247369E+04  0.00000000000E+00 0.  1.
         23    2    1    2    0    0  0.70526840544E+03 -0.13134579527E+04  0.12743020774E+04  0.19633582687E+04  0.91403442462E+02 0.  0.
         13    1    3    3    0    0  0.41757109505E+03 -0.85374548199E+03  0.84429579206E+03  0.12712522771E+04  0.00000000000E+00 0. -1.
        -13    1    3    3    0    0  0.28769731039E+03 -0.45971247070E+03  0.43000628538E+03  0.69210599159E+03  0.00000000000E+00 0.  1.
         22    1    1    2    0    0 -0.70526840544E+03  0.13134579527E+04 -0.23093961283E+04  0.27487971542E+04  0.00000000000E+00 0.  1.
<mgrwt>
<rscale>  0 0.45970631E+04</rscale>
<asrwt>0</asrwt>
<pdfrwt beam="1">  1        2 0.44209611E+00 0.45970631E+04</pdfrwt>
<pdfrwt beam="2">  1       -2 0.28285088E+00 0.45970631E+04</pdfrwt>
<totfact> 0.63414568E-02</totfact>
</mgrwt>
</event>
<event>
 6    1  0.2436515E-005  0.3259109E+04  0.7818608E-02  0.8173379E-01
          2   -1    0    0  501    0  0.00000000000E+00  0.00000000000E+00  0.27076642004E+04  0.27076642004E+04  0.00000000000E+00 0.  1.
         -2   -1    0    0    0  501 -0.00000000000E+00 -0.00000000000E+00 -0.98071558364E+03  0.98071558364E+03  0.00000000000E+00 0. -1.
         23    2    1    2    0    0 -0.11644562698E+04 -0.69802328787E+03  0.18811664086E+04  0.23220057350E+04  0.98633980395E+02 0.  0.
         11    1    3    3    0    0 -0.75081590177E+03 -0.47114660617E+03  0.11524872441E+04  0.14539362059E+04  0.00000000000E+00 0.  1.
        -11    1    3    3    0    0 -0.41364036798E+03 -0.22687668170E+03  0.72867916443E+03  0.86806952913E+03  0.00000000000E+00 0. -1.
         22    1    1    2    0    0  0.11644562698E+04  0.69802328787E+03 -0.15421779181E+03  0.13663740490E+04  0.00000000000E+00 0. -1.
<mgrwt>
<rscale>  0 0.32591094E+04</rscale>
<asrwt>0</asrwt>
<pdfrwt beam="1">  1        2 0.41656372E+00 0.32591094E+04</pdfrwt>
<pdfrwt beam="2">  1       -2 0.15087932E+00 0.32591094E+04</pdfrwt>
<totfact> 0.64934439E-01</totfact>
</mgrwt>
</event>
<event>
 6    1  0.2436515E-005  0.4994599E+03  0.7818608E-02  0.1013920E+00
          2   -1    0    0  501    0  0.00000000000E+00  0.00000000000E+00  0.15564464655E+04  0.15564464655E+04  0.00000000000E+00 0.  1.
         -2   -1    0    0    0  501 -0.00000000000E+00 -0.00000000000E+00 -0.40068867308E+02  0.40068867308E+02  0.00000000000E+00 0. -1.
         23    2    1    2    0    0 -0.67553115754E+02  0.23624231511E+03  0.74851754769E+03  0.79030015555E+03  0.62625567884E+02 0.  0.
         13    1    3    3    0    0 -0.36819707067E+02  0.75464199688E+02  0.17882109759E+03  0.19755384382E+03  0.00000000000E+00 0. -1.
        -13    1    3    3    0    0 -0.30733408687E+02  0.16077811542E+03  0.56969645010E+03  0.59274631173E+03  0.00000000000E+00 0.  1.
         22    1    1    2    0    0  0.67553115754E+02 -0.23624231511E+03  0.76786005046E+03  0.80621517722E+03  0.00000000000E+00 0.  1.
<mgrwt>
<rscale>  0 0.49945990E+03</rscale>
<asrwt>0</asrwt>
<pdfrwt beam="1">  1        2 0.23945326E+00 0.49945990E+03</pdfrwt>
<pdfrwt beam="2">  1       -2 0.61644423E-02 0.49945990E+03</pdfrwt>
<totfact> 0.17926311E+03</totfact>
</mgrwt>
</event>
<event>
 6    1  0.2436515E-005  0.1456452E+04  0.7818608E-02  0.8913939E-01
         -2   -1    0    0    0  501 -0.00000000000E+00  0.00000000000E+00  0.28290333328E+03  0.28290333328E+03  0.00000000000E+00 0. -1.
          2   -1    0    0  501    0  0.00000000000E+00 -0.00000000000E+00 -0.18745393260E+04  0.18745393260E+04  0.00000000000E+00 0.  1.
         23    2    1    2    0    0 -0.51549243056E+03  0.65819437489E+02 -0.49457001618E+02  0.53005804435E+03  0.91928728126E+02 0.  0.
         11    1    3    3    0    0 -0.74511277111E+02 -0.12350509690E+02  0.16672397685E+02  0.77346198038E+02  0.00000000000E+00 0. -1.
        -11    1    3    3    0    0 -0.44098115345E+03  0.78169947179E+02 -0.66129399303E+02  0.45271184631E+03  0.00000000000E+00 0.  1.
         22    1    1    2    0    0  0.51549243056E+03 -0.65819437489E+02 -0.15421789911E+04  0.16273846149E+04  0.00000000000E+00 0.  1.
<mgrwt>
<rscale>  0 0.14564524E+04</rscale>
<asrwt>0</asrwt>
<pdfrwt beam="1">  1        2 0.28839066E+00 0.14564524E+04</pdfrwt>
<pdfrwt beam="2">  1       -2 0.43523591E-01 0.14564524E+04</pdfrwt>
<totfact> 0.38068993E+01</totfact>
</mgrwt>
</event>
<event>
 6    1  0.2436515E-005  0.3128016E+04  0.7818608E-02  0.8208091E-01
          2   -1    0    0  501    0  0.00000000000E+00  0.00000000000E+00  0.29338469870E+04  0.29338469870E+04  0.00000000000E+00 0.  1.
         -2   -1    0    0    0  501 -0.00000000000E+00 -0.00000000000E+00 -0.83375874828E+03  0.83375874828E+03  0.00000000000E+00 0. -1.
         23    2    1    2    0    0 -0.22334491078E+03  0.10492798741E+04  0.24195171209E+04  0.26482728920E+04  0.91733356625E+02 0.  0.
         11    1    3    3    0    0 -0.21809616771E+03  0.86339180269E+03  0.20217922550E+04  0.22092205108E+04  0.00000000000E+00 0.  1.
        -11    1    3    3    0    0 -0.52487430622E+01  0.18588807136E+03  0.39772486598E+03  0.43905238115E+03  0.00000000000E+00 0. -1.
         22    1    1    2    0    0  0.22334491078E+03 -0.10492798741E+04 -0.31942888221E+03  0.11193328433E+04  0.00000000000E+00 0. -1.
<mgrwt>
<rscale>  0 0.31280157E+04</rscale>
<asrwt>0</asrwt>
<pdfrwt beam="1">  1        2 0.45136107E+00 0.31280157E+04</pdfrwt>
<pdfrwt beam="2">  1       -2 0.12827058E+00 0.31280157E+04</pdfrwt>
<totfact> 0.72818529E-01</totfact>
</mgrwt>
</event>
<event>
 6    1  0.2436515E-005  0.5440404E+03  0.7818608E-02  0.1002883E+00
          2   -1    0    0  501    0  0.00000000000E+00  0.00000000000E+00  0.55306609415E+03  0.55306609415E+03  0.00000000000E+00 0.  1.
         -2   -1    0    0    0  501 -0.00000000000E+00 -0.00000000000E+00 -0.13379052398E+03  0.13379052398E+03  0.00000000000E+00 0. -1.
         23    2    1    2    0    0 -0.21887556650E+03 -0.13219848154E+03  0.13015563762E+03  0.30088603955E+03  0.90603347943E+02 0.  0.
         11    1    3    3    0    0 -0.89437574266E+02 -0.10690988515E+03  0.67865879132E+02  0.15503090267E+03  0.00000000000E+00 0. -1.
        -11    1    3    3    0    0 -0.12943799224E+03 -0.25288596397E+02  0.62289758489E+02  0.14585513688E+03  0.00000000000E+00 0.  1.
         22    1    1    2    0    0  0.21887556650E+03  0.13219848154E+03  0.28911993254E+03  0.38597057858E+03  0.00000000000E+00 0. -1.
<mgrwt>
<rscale>  0 0.54404045E+03</rscale>
<asrwt>0</asrwt>
<pdfrwt beam="1">  1        2 0.85087090E-01 0.54404045E+03</pdfrwt>
<pdfrwt beam="2">  1       -2 0.20583158E-01 0.54404045E+03</pdfrwt>
<totfact> 0.11120749E+03</totfact>
</mgrwt>
</event>
<event>
 6    1  0.2436515E-005  0.1155042E+04  0.7818608E-02  0.9153144E-01
         -2   -1    0    0    0  501 -0.00000000000E+00  0.00000000000E+00  0.15268612952E+03  0.15268612952E+03  0.00000000000E+00 0. -1.
          2   -1    0    0  501    0  0.00000000000E+00 -0.00000000000E+00 -0.21844204605E+04  0.21844204605E+04  0.00000000000E+00 0.  1.
         23    2    1    2    0    0 -0.50452616964E+03 -0.27046176812E+03 -0.11055381863E+04  0.12482835914E+04  0.91109930077E+02 0.  0.
         11    1    3    3    0    0 -0.39670943183E+03 -0.16772900391E+03 -0.81718166822E+03  0.92374091115E+03  0.00000000000E+00 0. -1.
        -11    1    3    3    0    0 -0.10781673781E+03 -0.10273276421E+03 -0.28835651803E+03  0.32454268022E+03  0.00000000000E+00 0.  1.
         22    1    1    2    0    0  0.50452616964E+03  0.27046176812E+03 -0.92619614470E+03  0.10888229986E+04  0.00000000000E+00 0. -1.
<mgrwt>
<rscale>  0 0.11550423E+04</rscale>
<asrwt>0</asrwt>
<pdfrwt beam="1">  1        2 0.33606466E+00 0.11550423E+04</pdfrwt>
<pdfrwt beam="2">  1       -2 0.23490176E-01 0.11550423E+04</pdfrwt>
<totfact> 0.84000285E+01</totfact>
</mgrwt>
</event>
<event>
 6    1  0.2436515E-005  0.2351906E+04  0.7818608E-02  0.8457732E-01
         -2   -1    0    0    0  501 -0.00000000000E+00  0.00000000000E+00  0.67033137188E+03  0.67033137188E+03  0.00000000000E+00 0. -1.
          2   -1    0    0  501    0  0.00000000000E+00 -0.00000000000E+00 -0.20629576181E+04  0.20629576181E+04  0.00000000000E+00 0.  1.
         23    2    1    2    0    0  0.11431302657E+04 -0.23600938353E+03 -0.84593563029E+03  0.14443677888E+04  0.90244031453E+02 0.  0.
         13    1    3    3    0    0  0.71646849151E+03 -0.14234731873E+03 -0.47528310051E+03  0.87148372567E+03  0.00000000000E+00 0. -1.
        -13    1    3    3    0    0  0.42666177414E+03 -0.93662064806E+02 -0.37065252978E+03  0.57288406308E+03  0.00000000000E+00 0.  1.
         22    1    1    2    0    0 -0.11431302657E+04  0.23600938353E+03 -0.54669061588E+03  0.12889212012E+04  0.00000000000E+00 0. -1.
<mgrwt>
<rscale>  0 0.23519058E+04</rscale>
<asrwt>0</asrwt>
<pdfrwt beam="1">  1        2 0.31737809E+00 0.23519058E+04</pdfrwt>
<pdfrwt beam="2">  1       -2 0.10312791E+00 0.23519058E+04</pdfrwt>
<totfact> 0.42696094E+00</totfact>
</mgrwt>
</event>
<event>
 6    1  0.2436515E-005  0.4980887E+04  0.7818608E-02  0.7831462E-01
          2   -1    0    0  501    0  0.00000000000E+00  0.00000000000E+00  0.41291301768E+04  0.41291301768E+04  0.00000000000E+00 0.  1.
         -2   -1    0    0    0  501 -0.00000000000E+00 -0.00000000000E+00 -0.15020858485E+04  0.15020858485E+04  0.00000000000E+00 0. -1.
         23    2    1    2    0    0  0.50360760137E+03  0.20991730358E+04 -0.86639929134E+02  0.21636188315E+04  0.11658439084E+03 0.  0.
         13    1    3    3    0    0  0.13306802339E+03  0.74367990602E+03 -0.64188882363E+02  0.75821310598E+03  0.00000000000E+00 0. -1.
        -13    1    3    3    0    0  0.37053957798E+03  0.13554931298E+04 -0.22451046771E+02  0.14054057255E+04  0.00000000000E+00 0.  1.
         22    1    1    2    0    0 -0.50360760137E+03 -0.20991730358E+04  0.27136842574E+04  0.34675971939E+04  0.00000000000E+00 0.  1.
<mgrwt>
<rscale>  0 0.49808867E+04</rscale>
<asrwt>0</asrwt>
<pdfrwt beam="1">  1        2 0.63525079E+00 0.49808867E+04</pdfrwt>
<pdfrwt beam="2">  1       -2 0.23109013E+00 0.49808867E+04</pdfrwt>
<totfact> 0.16320194E-02</totfact>
</mgrwt>
</event>
<event>
 6    1  0.2436515E-005  0.2142827E+04  0.7818608E-02  0.8542609E-01
          2   -1    0    0  501    0  0.00000000000E+00  0.00000000000E+00  0.28245555959E+04  0.28245555959E+04  0.00000000000E+00 0.  1.
         -2   -1    0    0    0  501 -0.00000000000E+00 -0.00000000000E+00 -0.40640962762E+03  0.40640962762E+03  0.00000000000E+00 0. -1.
         23    2    1    2    0    0  0.40370287731E+03  0.36249260053E+03  0.26007318559E+04  0.26585016832E+04  0.97201414014E+02 0.  0.
         13    1    3    3    0    0  0.29932595220E+03  0.20956369513E+03  0.16638269600E+04  0.17034767744E+04  0.00000000000E+00 0. -1.
        -13    1    3    3    0    0  0.10437692510E+03  0.15292890540E+03  0.93690489588E+03  0.95502490885E+03  0.00000000000E+00 0.  1.
         22    1    1    2    0    0 -0.40370287731E+03 -0.36249260053E+03 -0.18258588763E+03  0.57246354028E+03  0.00000000000E+00 0. -1.
<mgrwt>
<rscale>  0 0.21428267E+04</rscale>
<asrwt>0</asrwt>
<pdfrwt beam="1">  1        2 0.43454700E+00 0.21428267E+04</pdfrwt>
<pdfrwt beam="2">  1       -2 0.62524560E-01 0.21428267E+04</pdfrwt>
<totfact> 0.48731556E+00</totfact>
</mgrwt>
</event>
<event>
 6    1  0.2436515E-005  0.2179717E+04  0.7818608E-02  0.8526918E-01
         -2   -1    0    0    0  501 -0.00000000000E+00  0.00000000000E+00  0.37744764702E+03  0.37744764702E+03  0.00000000000E+00 0. -1.
          2   -1    0    0  501    0  0.00000000000E+00 -0.00000000000E+00 -0.31469044000E+04  0.31469044000E+04  0.00000000000E+00 0.  1.
         23    2    1    2    0    0  0.68946487201E+03 -0.34078916028E+03 -0.14725798326E+03  0.79169300326E+03  0.11659260813E+03 0.  0.
         11    1    3    3    0    0  0.41287765230E+03 -0.23190031841E+03 -0.38258348685E+02  0.47508884926E+03  0.00000000000E+00 0.  1.
        -11    1    3    3    0    0  0.27658721971E+03 -0.10888884188E+03 -0.10899963458E+03  0.31660415400E+03  0.00000000000E+00 0. -1.
         22    1    1    2    0    0 -0.68946487201E+03  0.34078916028E+03 -0.26221987697E+04  0.27326590438E+04  0.00000000000E+00 0.  1.
<mgrwt>
<rscale>  0 0.21797171E+04</rscale>
<asrwt>0</asrwt>
<pdfrwt beam="1">  1        2 0.48413915E+00 0.21797171E+04</pdfrwt>
<pdfrwt beam="2">  1       -2 0.58068868E-01 0.21797171E+04</pdfrwt>
<totfact> 0.35738286E+00</totfact>
</mgrwt>
</event>
<event>
 6    1  0.2436515E-005  0.2599349E+04  0.7818608E-02  0.8368422E-01
          2   -1    0    0  501    0  0.00000000000E+00  0.00000000000E+00  0.31452967954E+04  0.31452967954E+04  0.00000000000E+00 0.  1.
         -2   -1    0    0    0  501 -0.00000000000E+00 -0.00000000000E+00 -0.53704108975E+03  0.53704108975E+03  0.00000000000E+00 0. -1.
         23    2    1    2    0    0  0.10697641451E+04  0.58247696770E+03  0.19438297450E+04  0.22948449658E+04  0.64533678415E+02 0.  0.
         13    1    3    3    0    0  0.69086773232E+03  0.40841814364E+03  0.13009390913E+04  0.15285765021E+04  0.00000000000E+00 0. -1.
        -13    1    3    3    0    0  0.37889641274E+03  0.17405882406E+03  0.64289065371E+03  0.76626846369E+03  0.00000000000E+00 0.  1.
         22    1    1    2    0    0 -0.10697641451E+04 -0.58247696770E+03  0.66442596059E+03  0.13874929193E+04  0.00000000000E+00 0. -1.
<mgrwt>
<rscale>  0 0.25993489E+04</rscale>
<asrwt>0</asrwt>
<pdfrwt beam="1">  1        2 0.48389180E+00 0.25993489E+04</pdfrwt>
<pdfrwt beam="2">  1       -2 0.82621709E-01 0.25993489E+04</pdfrwt>
<totfact> 0.16000371E+00</totfact>
</mgrwt>
</event>
<event>
 6    1  0.2436515E-005  0.4488400E+04  0.7818608E-02  0.7912671E-01
         -2   -1    0    0    0  501 -0.00000000000E+00  0.00000000000E+00  0.25949624413E+04  0.25949624413E+04  0.00000000000E+00 0. -1.
          2   -1    0    0  501    0  0.00000000000E+00 -0.00000000000E+00 -0.19408502196E+04  0.19408502196E+04  0.00000000000E+00 0.  1.
         23    2    1    2    0    0  0.19094314335E+04  0.12597078393E+03 -0.85584244874E+03  0.20982400683E+04  0.91367661509E+02 0.  0.
         11    1    3    3    0    0  0.18514554005E+04  0.13784242563E+03 -0.83011706968E+03  0.20337113816E+04  0.00000000000E+00 0.  1.
        -11    1    3    3    0    0  0.57976033010E+02 -0.11871641699E+02 -0.25725379062E+02  0.64528686707E+02  0.00000000000E+00 0. -1.
         22    1    1    2    0    0 -0.19094314335E+04 -0.12597078393E+03  0.15099546704E+04  0.24375725926E+04  0.00000000000E+00 0. -1.
<mgrwt>
<rscale>  0 0.44883999E+04</rscale>
<asrwt>0</asrwt>
<pdfrwt beam="1">  1        2 0.29859234E+00 0.44883999E+04</pdfrwt>
<pdfrwt beam="2">  1       -2 0.39922499E+00 0.44883999E+04</pdfrwt>
<totfact> 0.41050161E-02</totfact>
</mgrwt>
</event>
<event>
 6    1  0.2436515E-005  0.2128616E+04  0.7818608E-02  0.8548742E-01
          2   -1    0    0  501    0  0.00000000000E+00  0.00000000000E+00  0.24269861275E+04  0.24269861275E+04  0.00000000000E+00 0.  1.
         -2   -1    0    0    0  501 -0.00000000000E+00 -0.00000000000E+00 -0.46673169454E+03  0.46673169454E+03  0.00000000000E+00 0. -1.
         23    2    1    2    0    0  0.66426139467E+03 -0.82422810923E+03  0.11056916600E+04  0.15332499946E+04  0.87785662462E+02 0.  0.
         13    1    3    3    0    0  0.42953500956E+03 -0.48180308740E+03  0.63159672370E+03  0.90307749438E+03  0.00000000000E+00 0.  1.
        -13    1    3    3    0    0  0.23472638511E+03 -0.34242502184E+03  0.47409493630E+03  0.63017250025E+03  0.00000000000E+00 0. -1.
         22    1    1    2    0    0 -0.66426139467E+03  0.82422810923E+03  0.85456277297E+03  0.13604678274E+04  0.00000000000E+00 0. -1.
<mgrwt>
<rscale>  0 0.21286158E+04</rscale>
<asrwt>0</asrwt>
<pdfrwt beam="1">  1        2 0.37338247E+00 0.21286158E+04</pdfrwt>
<pdfrwt beam="2">  1       -2 0.71804878E-01 0.21286158E+04</pdfrwt>
<totfact> 0.62011610E+00</totfact>
</mgrwt>
</event>
<event>
 6    1  0.2436515E-005  0.2053157E+04  0.7818608E-02  0.8582163E-01
          2   -1    0    0  501    0  0.00000000000E+00  0.00000000000E+00  0.13430838390E+04  0.13430838390E+04  0.00000000000E+00 0.  1.
         -2   -1    0    0    0  501 -0.00000000000E+00 -0.00000000000E+00 -0.78465968127E+03  0.78465968127E+03  0.00000000000E+00 0. -1.
         23    2    1    2    0    0 -0.39122674925E+03 -0.92884577265E+03  0.46987335783E+03  0.11159856031E+04  0.93968374055E+02 0.  0.
         11    1    3    3    0    0 -0.21204649747E+03 -0.55224480220E+03  0.22874042149E+03  0.63423987503E+03  0.00000000000E+00 0.  1.
        -11    1    3    3    0    0 -0.17918025178E+03 -0.37660097044E+03  0.24113293634E+03  0.48174572811E+03  0.00000000000E+00 0. -1.
         22    1    1    2    0    0  0.39122674925E+03  0.92884577265E+03  0.88550799877E+02  0.10117579171E+04  0.00000000000E+00 0. -1.
<mgrwt>
<rscale>  0 0.20531573E+04</rscale>
<asrwt>0</asrwt>
<pdfrwt beam="1">  1        2 0.20662828E+00 0.20531573E+04</pdfrwt>
<pdfrwt beam="2">  1       -2 0.12071687E+00 0.20531573E+04</pdfrwt>
<totfact> 0.75539055E+00</totfact>
</mgrwt>
</event>
<event>
 6    1  0.2436515E-005  0.2689496E+04  0.7818608E-02  0.8338421E-01
         -2   -1    0    0    0  501 -0.00000000000E+00  0.00000000000E+00  0.89078234761E+03  0.89078234761E+03  0.00000000000E+00 0. -1.
          2   -1    0    0  501    0  0.00000000000E+00 -0.00000000000E+00 -0.20300662289E+04  0.20300662289E+04  0.00000000000E+00 0.  1.
         23    2    1    2    0    0 -0.77612532859E+03 -0.21429377935E+03 -0.17379021614E+04  0.19175359659E+04  0.91366888869E+02 0.  0.
         11    1    3    3    0    0 -0.47712872451E+03 -0.13492615151E+03 -0.96271064753E+03  0.10828982764E+04  0.00000000000E+00 0. -1.
        -11    1    3    3    0    0 -0.29899660408E+03 -0.79367627843E+02 -0.77519151382E+03  0.83463768948E+03  0.00000000000E+00 0.  1.
         22    1    1    2    0    0  0.77612532859E+03  0.21429377935E+03  0.59861828003E+03  0.10033126107E+04  0.00000000000E+00 0. -1.
<mgrwt>
<rscale>  0 0.26894960E+04</rscale>
<asrwt>0</asrwt>
<pdfrwt beam="1">  1        2 0.31231788E+00 0.26894960E+04</pdfrwt>
<pdfrwt beam="2">  1       -2 0.13704344E+00 0.26894960E+04</pdfrwt>
<totfact> 0.21427464E+00</totfact>
</mgrwt>
</event>
<event>
 6    1  0.2436515E-005  0.2718278E+04  0.7818608E-02  0.8329099E-01
         -2   -1    0    0    0  501 -0.00000000000E+00  0.00000000000E+00  0.10869404089E+04  0.10869404089E+04  0.00000000000E+00 0. -1.
          2   -1    0    0  501    0  0.00000000000E+00 -0.00000000000E+00 -0.16995036386E+04  0.16995036386E+04  0.00000000000E+00 0.  1.
         23    2    1    2    0    0 -0.13001816983E+03  0.67923840132E+03  0.89099433941E+03  0.11314652277E+04  0.89850532614E+02 0.  0.
         13    1    3    3    0    0 -0.43350014277E+02  0.43141304133E+03  0.52168618736E+03  0.67834571868E+03  0.00000000000E+00 0. -1.
        -13    1    3    3    0    0 -0.86668155557E+02  0.24782535999E+03  0.36930815205E+03  0.45311950897E+03  0.00000000000E+00 0.  1.
         22    1    1    2    0    0  0.13001816983E+03 -0.67923840132E+03 -0.15035575692E+04  0.16549788198E+04  0.00000000000E+00 0.  1.
<mgrwt>
<rscale>  0 0.27182783E+04</rscale>
<asrwt>0</asrwt>
<pdfrwt beam="1">  1        2 0.26146210E+00 0.27182783E+04</pdfrwt>
<pdfrwt beam="2">  1       -2 0.16722160E+00 0.27182783E+04</pdfrwt>
<totfact> 0.19182841E+00</totfact>
</mgrwt>
</event>
<event>
 6    1  0.2436515E-005  0.5259542E+04  0.7818608E-02  0.7789672E-01
         -2   -1    0    0    0  501 -0.00000000000E+00  0.00000000000E+00  0.28686626928E+04  0.28686626928E+04  0.00000000000E+00 0. -1.
          2   -1    0    0  501    0  0.00000000000E+00 -0.00000000000E+00 -0.24107731364E+04  0.24107731364E+04  0.00000000000E+00 0.  1.
         23    2    1    2    0    0  0.11110283328E+04 -0.33377832905E+03 -0.21390555540E+04  0.24351580938E+04  0.92974992522E+02 0.  0.
         13    1    3    3    0    0  0.71544939280E+02 -0.25960499477E+02 -0.19381848836E+03  0.20822639674E+03  0.00000000000E+00 0.  1.
        -13    1    3    3    0    0  0.10394833935E+04 -0.30781782957E+03 -0.19452370657E+04  0.22269316971E+04  0.00000000000E+00 0. -1.
         22    1    1    2    0    0 -0.11110283328E+04  0.33377832905E+03  0.25969451104E+04  0.28442777353E+04  0.00000000000E+00 0. -1.
<mgrwt>
<rscale>  0 0.52595418E+04</rscale>
<asrwt>0</asrwt>
<pdfrwt beam="1">  1        2 0.37088817E+00 0.52595418E+04</pdfrwt>
<pdfrwt beam="2">  1       -2 0.44133272E+00 0.52595418E+04</pdfrwt>
<totfact> 0.11103343E-02</totfact>
</mgrwt>
</event>
<event>
 6    1  0.2436515E-005  0.3420099E+04  0.7818608E-02  0.8132991E-01
         -2   -1    0    0    0  501 -0.00000000000E+00  0.00000000000E+00  0.16968380661E+04  0.16968380661E+04  0.00000000000E+00 0. -1.
          2   -1    0    0  501    0  0.00000000000E+00 -0.00000000000E+00 -0.17233638275E+04  0.17233638275E+04  0.00000000000E+00 0.  1.
         23    2    1    2    0    0 -0.14424968164E+04 -0.72379806274E+03  0.54846935773E+03  0.17069301440E+04  0.90062084287E+02 0.  0.
         11    1    3    3    0    0 -0.95688675038E+03 -0.44247730346E+03  0.38588694487E+03  0.11226429314E+04  0.00000000000E+00 0.  1.
        -11    1    3    3    0    0 -0.48561006602E+03 -0.28132075928E+03  0.16258241286E+03  0.58428721259E+03  0.00000000000E+00 0. -1.
         22    1    1    2    0    0  0.14424968164E+04  0.72379806274E+03 -0.57499511916E+03  0.17132717496E+04  0.00000000000E+00 0.  1.
<mgrwt>
<rscale>  0 0.34200990E+04</rscale>
<asrwt>0</asrwt>
<pdfrwt beam="1">  1        2 0.26513290E+00 0.34200990E+04</pdfrwt>
<pdfrwt beam="2">  1       -2 0.26105201E+00 0.34200990E+04</pdfrwt>
<totfact> 0.43274501E-01</totfact>
</mgrwt>
</event>
<event>
 6    1  0.2436515E-005  0.3673135E+04  0.7818608E-02  0.8073942E-01
         -2   -1    0    0    0  501 -0.00000000000E+00  0.00000000000E+00  0.15964844126E+04  0.15964844126E+04  0.00000000000E+00 0. -1.
          2   -1    0    0  501    0  0.00000000000E+00 -0.00000000000E+00 -0.21127545820E+04  0.21127545820E+04  0.00000000000E+00 0.  1.
         23    2    1    2    0    0 -0.86371948422E+01 -0.17388977339E+04 -0.85152493024E+03  0.19382969615E+04  0.89780143148E+02 0.  0.
         13    1    3    3    0    0 -0.34091920715E+02 -0.81085716282E+03 -0.43417637048E+03  0.92041334097E+03  0.00000000000E+00 0.  1.
        -13    1    3    3    0    0  0.25454725872E+02 -0.92804057105E+03 -0.41734855976E+03  0.10178836205E+04  0.00000000000E+00 0. -1.
         22    1    1    2    0    0  0.86371948422E+01  0.17388977339E+04  0.33525476086E+03  0.17709420331E+04  0.00000000000E+00 0. -1.
<mgrwt>
<rscale>  0 0.36731348E+04</rscale>
<asrwt>0</asrwt>
<pdfrwt beam="1">  1        2 0.32503917E+00 0.36731348E+04</pdfrwt>
<pdfrwt beam="2">  1       -2 0.24561299E+00 0.36731348E+04</pdfrwt>
<totfact> 0.32028105E-01</totfact>
</mgrwt>
</event>
<event>
 6    1  0.2436515E-005  0.5585923E+04  0.7818608E-02  0.7743976E-01
         -2   -1    0    0    0  501 -0.00000000000E+00  0.00000000000E+00  0.24601773701E+04  0.24601773701E+04  0.00000000000E+00 0. -1.
          2   -1    0    0  501    0  0.00000000000E+00 -0.00000000000E+00 -0.31707609378E+04  0.31707609378E+04  0.00000000000E+00 0.  1.
         23    2    1    2    0    0  0.88194815923E+03  0.19830179254E+04  0.14154356155E+04  0.25928220798E+04  0.95266510160E+02 0.  0.
         11    1    3    3    0    0  0.39574138091E+03  0.98476452078E+03  0.65843611797E+03  0.12489637799E+04  0.00000000000E+00 0. -1.
        -11    1    3    3    0    0  0.48620677832E+03  0.99825340463E+03  0.75699949753E+03  0.13438583000E+04  0.00000000000E+00 0.  1.
         22    1    1    2    0    0 -0.88194815923E+03 -0.19830179254E+04 -0.21260191832E+04  0.30381162281E+04  0.00000000000E+00 0.  1.
<mgrwt>
<rscale>  0 0.55859231E+04</rscale>
<asrwt>0</asrwt>
<pdfrwt beam="1">  1        2 0.48780938E+00 0.55859231E+04</pdfrwt>
<pdfrwt beam="2">  1       -2 0.37848882E+00 0.55859231E+04</pdfrwt>
<totfact> 0.96396224E-03</totfact>
</mgrwt>
</event>
<event>
 6    1  0.2436515E-005  0.2861509E+04  0.7818608E-02  0.8284423E-01
         -2   -1    0    0    0  501 -0.00000000000E+00  0.00000000000E+00  0.23066930594E+04  0.23066930594E+04  0.00000000000E+00 0. -1.
          2   -1    0    0  501    0  0.00000000000E+00 -0.00000000000E+00 -0.88744261741E+03  0.88744261741E+03  0.00000000000E+00 0.  1.
         23    2    1    2    0    0  0.10387806434E+04 -0.40348136816E+03  0.17094111473E+04  0.20425907691E+04  0.90709094773E+02 0.  0.
         13    1    3    3    0    0  0.47439561158E+03 -0.22960709031E+03  0.77649076371E+03  0.93846071752E+03  0.00000000000E+00 0. -1.
        -13    1    3    3    0    0  0.56438503185E+03 -0.17387427785E+03  0.93292038356E+03  0.11041300516E+04  0.00000000000E+00 0.  1.
         22    1    1    2    0    0 -0.10387806434E+04  0.40348136816E+03 -0.29016070528E+03  0.11515449077E+04  0.00000000000E+00 0.  1.
<mgrwt>
<rscale>  0 0.28615085E+04</rscale>
<asrwt>0</asrwt>
<pdfrwt beam="1">  1        2 0.13652963E+00 0.28615085E+04</pdfrwt>
<pdfrwt beam="2">  1       -2 0.35487585E+00 0.28615085E+04</pdfrwt>
<totfact> 0.37517118E-01</totfact>
</mgrwt>
</event>
<event>
 6    1  0.2436515E-005  0.2976432E+04  0.7818608E-02  0.8250493E-01
          2   -1    0    0  501    0  0.00000000000E+00  0.00000000000E+00  0.16204918908E+04  0.16204918908E+04  0.00000000000E+00 0.  1.
         -2   -1    0    0    0  501 -0.00000000000E+00 -0.00000000000E+00 -0.13667371716E+04  0.13667371716E+04  0.00000000000E+00 0. -1.
         23    2    1    2    0    0  0.11253716061E+04 -0.43889389362E+03  0.99705863842E+03  0.15689237998E+04  0.91141973915E+02 0.  0.
         11    1    3    3    0    0  0.32672436754E+03 -0.16079752533E+03  0.33679620364E+03  0.49602050288E+03  0.00000000000E+00 0.  1.
        -11    1    3    3    0    0  0.79864723856E+03 -0.27809636830E+03  0.66026243478E+03  0.10729032969E+04  0.00000000000E+00 0. -1.
         22    1    1    2    0    0 -0.11253716061E+04  0.43889389362E+03 -0.74330391923E+03  0.14183052626E+04  0.00000000000E+00 0.  1.
<mgrwt>
<rscale>  0 0.29764318E+04</rscale>
<asrwt>0</asrwt>
<pdfrwt beam="1">  1        2 0.24930644E+00 0.29764318E+04</pdfrwt>
<pdfrwt beam="2">  1       -2 0.21026726E+00 0.29764318E+04</pdfrwt>
<totfact> 0.10625993E+00</totfact>
</mgrwt>
</event>
<event>
 6    1  0.2436515E-005  0.5634884E+04  0.7818608E-02  0.7737397E-01
          2   -1    0    0  501    0  0.00000000000E+00  0.00000000000E+00  0.37116646480E+04  0.37116646480E+04  0.00000000000E+00 0.  1.
         -2   -1    0    0    0  501 -0.00000000000E+00 -0.00000000000E+00 -0.21386572211E+04  0.21386572211E+04  0.00000000000E+00 0. -1.
         23    2    1    2    0    0 -0.24661508865E+04  0.45854079860E+03 -0.54351248082E+03  0.25682773266E+04  0.92101849676E+02 0.  0.
         13    1    3    3    0    0 -0.10197646113E+04  0.14684585736E+03 -0.24039306767E+03  0.10579567077E+04  0.00000000000E+00 0. -1.
        -13    1    3    3    0    0 -0.14463862752E+04  0.31169494124E+03 -0.30311941315E+03  0.15103206190E+04  0.00000000000E+00 0.  1.
         22    1    1    2    0    0  0.24661508865E+04 -0.45854079860E+03  0.21165199077E+04  0.32820445424E+04  0.00000000000E+00 0.  1.
<mgrwt>
<rscale>  0 0.56348836E+04</rscale>
<asrwt>0</asrwt>
<pdfrwt beam="1">  1        2 0.57102533E+00 0.56348836E+04</pdfrwt>
<pdfrwt beam="2">  1       -2 0.32902419E+00 0.56348836E+04</pdfrwt>
<totfact> 0.83137620E-03</totfact>
</mgrwt>
</event>
<event>
 6    1  0.2436515E-005  0.1554661E+04  0.7818608E-02  0.8848896E-01
         -2   -1    0    0    0  501 -0.00000000000E+00  0.00000000000E+00  0.11837122970E+04  0.11837122970E+04  0.00000000000E+00 0. -1.
          2   -1    0    0  501    0  0.00000000000E+00 -0.00000000000E+00 -0.51046442660E+03  0.51046442660E+03  0.00000000000E+00 0.  1.
         23    2    1    2    0    0  0.53590893245E+03  0.25795497975E+03  0.87861109845E+03  0.10649603770E+04  0.91891168306E+02 0.  0.
         13    1    3    3    0    0  0.39479736503E+03  0.22781429671E+03  0.70037852208E+03  0.83564010639E+03  0.00000000000E+00 0. -1.
        -13    1    3    3    0    0  0.14111156742E+03  0.30140683034E+02  0.17823257637E+03  0.22932027062E+03  0.00000000000E+00 0.  1.
         22    1    1    2    0    0 -0.53590893245E+03 -0.25795497975E+03 -0.20536322800E+03  0.62921634663E+03  0.00000000000E+00 0.  1.
<mgrwt>
<rscale>  0 0.15546614E+04</rscale>
<asrwt>0</asrwt>
<pdfrwt beam="1">  1        2 0.78532989E-01 0.15546614E+04</pdfrwt>
<pdfrwt beam="2">  1       -2 0.18210958E+00 0.15546614E+04</pdfrwt>
<totfact> 0.10131638E+01</totfact>
</mgrwt>
</event>
<event>
 6    1  0.2436515E-005  0.1391070E+04  0.7818608E-02  0.8960308E-01
          2   -1    0    0  501    0  0.00000000000E+00  0.00000000000E+00  0.18648346048E+04  0.18648346048E+04  0.00000000000E+00 0.  1.
         -2   -1    0    0    0  501 -0.00000000000E+00 -0.00000000000E+00 -0.25941661065E+03  0.25941661065E+03  0.00000000000E+00 0. -1.
         23    2    1    2    0    0 -0.21425835260E+03  0.57892411688E+03  0.32613895601E+03  0.70382359244E+03  0.89113724475E+02 0.  0.
         11    1    3    3    0    0 -0.78155670872E+02  0.10802733584E+03  0.76988702547E+02  0.15396582250E+03  0.00000000000E+00 0.  1.
        -11    1    3    3    0    0 -0.13610268172E+03  0.47089678104E+03  0.24915025346E+03  0.54985776994E+03  0.00000000000E+00 0. -1.
         22    1    1    2    0    0  0.21425835260E+03 -0.57892411688E+03  0.12792790381E+04  0.14204276230E+04  0.00000000000E+00 0. -1.
<mgrwt>
<rscale>  0 0.13910702E+04</rscale>
<asrwt>0</asrwt>
<pdfrwt beam="1">  1        2 0.28689762E+00 0.13910702E+04</pdfrwt>
<pdfrwt beam="2">  1       -2 0.39910249E-01 0.13910702E+04</pdfrwt>
<totfact> 0.45960683E+01</totfact>
</mgrwt>
</event>
<event>
 6    1  0.2680167E-005  0.3333449E+04  0.7818608E-02  0.8154436E-01
         -2   -1    0    0    0  501 -0.00000000000E+00  0.00000000000E+00  0.12219658520E+04  0.12219658520E+04  0.00000000000E+00 0. -1.
          2   -1    0    0  501    0  0.00000000000E+00 -0.00000000000E+00 -0.22733613741E+04  0.22733613741E+04  0.00000000000E+00 0.  1.
         23    2    1    2    0    0 -0.55440821809E+03  0.11121691839E+04 -0.16887748364E+04  0.20987094701E+04  0.91281026711E+02 0.  0.
         13    1    3    3    0    0 -0.48034812237E+03  0.88502864079E+03 -0.13519039671E+04  0.16857207212E+04  0.00000000000E+00 0.  1.
        -13    1    3    3    0    0 -0.74060095726E+02  0.22714054314E+03 -0.33687086932E+03  0.41298874889E+03  0.00000000000E+00 0. -1.
         22    1    1    2    0    0  0.55440821809E+03 -0.11121691839E+04  0.63737931430E+03  0.13966177560E+04  0.00000000000E+00 0. -1.
<mgrwt>
<rscale>  0 0.33334486E+04</rscale>
<asrwt>0</asrwt>
<pdfrwt beam="1">  1        2 0.34974790E+00 0.33334486E+04</pdfrwt>
<pdfrwt beam="2">  1       -2 0.18799475E+00 0.33334486E+04</pdfrwt>
<totfact> 0.62516351E-01</totfact>
</mgrwt>
</event>
<event>
 6    1  0.2436515E-005  0.2026763E+04  0.7818608E-02  0.8594209E-01
         -1   -1    0    0    0  501 -0.00000000000E+00  0.00000000000E+00  0.76232083283E+03  0.76232083283E+03  0.00000000000E+00 0. -1.
          1   -1    0    0  501    0  0.00000000000E+00 -0.00000000000E+00 -0.13471262953E+04  0.13471262953E+04  0.00000000000E+00 0.  1.
         23    2    1    2    0    0  0.34957166837E+03  0.51944715544E+03  0.53299901539E+03  0.82823186543E+03  0.99269199011E+02 0.  0.
         11    1    3    3    0    0  0.27337680147E+03  0.34361609966E+03  0.33167407288E+03  0.55028591672E+03  0.00000000000E+00 0.  1.
        -11    1    3    3    0    0  0.76194866899E+02  0.17583105578E+03  0.20132494252E+03  0.27794594870E+03  0.00000000000E+00 0. -1.
         22    1    1    2    0    0 -0.34957166837E+03 -0.51944715544E+03 -0.11178044778E+04  0.12812152627E+04  0.00000000000E+00 0.  1.
<mgrwt>
<rscale>  0 0.20267634E+04</rscale>
<asrwt>0</asrwt>
<pdfrwt beam="1">  1        1 0.20725020E+00 0.20267634E+04</pdfrwt>
<pdfrwt beam="2">  1       -1 0.11728013E+00 0.20267634E+04</pdfrwt>
<totfact> 0.50732659E+00</totfact>
</mgrwt>
</event>
<event>
 6    1  0.2436515E-005  0.2830764E+04  0.7818608E-02  0.8293780E-01
         -2   -1    0    0    0  501 -0.00000000000E+00  0.00000000000E+00  0.15440947136E+04  0.15440947136E+04  0.00000000000E+00 0. -1.
          2   -1    0    0  501    0  0.00000000000E+00 -0.00000000000E+00 -0.12973989219E+04  0.12973989219E+04  0.00000000000E+00 0.  1.
         23    2    1    2    0    0  0.88899534032E+03  0.88340988271E+03  0.78051225782E+03  0.14792580629E+04  0.90990636908E+02 0.  0.
         11    1    3    3    0    0  0.39950279349E+03  0.44936835578E+03  0.34299972220E+03  0.69223060508E+03  0.00000000000E+00 0. -1.
        -11    1    3    3    0    0  0.48949254683E+03  0.43404152693E+03  0.43751253562E+03  0.78702745780E+03  0.00000000000E+00 0.  1.
         22    1    1    2    0    0 -0.88899534032E+03 -0.88340988271E+03 -0.53381646607E+03  0.13622355727E+04  0.00000000000E+00 0.  1.
<mgrwt>
<rscale>  0 0.28307644E+04</rscale>
<asrwt>0</asrwt>
<pdfrwt beam="1">  1        2 0.19959983E+00 0.28307644E+04</pdfrwt>
<pdfrwt beam="2">  1       -2 0.23755303E+00 0.28307644E+04</pdfrwt>
<totfact> 0.11045669E+00</totfact>
</mgrwt>
</event>
<event>
 6    1  0.2436515E-005  0.1714526E+04  0.7818608E-02  0.8753123E-01
          3   -1    0    0  501    0  0.00000000000E+00  0.00000000000E+00  0.39449643770E+03  0.39449643770E+03  0.00000000000E+00 0.  1.
         -3   -1    0    0    0  501 -0.00000000000E+00 -0.00000000000E+00 -0.18628798016E+04  0.18628798016E+04  0.00000000000E+00 0. -1.
         23    2    1    2    0    0 -0.54812049640E+03  0.63520747121E+03 -0.95214105245E+03  0.12722718112E+04  0.90434329016E+02 0.  0.
         13    1    3    3    0    0 -0.24816396394E+03  0.29315875007E+03 -0.50404047536E+03  0.63370671966E+03  0.00000000000E+00 0. -1.
        -13    1    3    3    0    0 -0.29995653246E+03  0.34204872114E+03 -0.44810057710E+03  0.63856509158E+03  0.00000000000E+00 0.  1.
         22    1    1    2    0    0  0.54812049640E+03 -0.63520747121E+03 -0.51624231144E+03  0.98510442805E+03  0.00000000000E+00 0.  1.
<mgrwt>
<rscale>  0 0.17145255E+04</rscale>
<asrwt>0</asrwt>
<pdfrwt beam="1">  1        3 0.60691761E-01 0.17145255E+04</pdfrwt>
<pdfrwt beam="2">  1       -3 0.28659688E+00 0.17145255E+04</pdfrwt>
<totfact> 0.29861177E-01</totfact>
</mgrwt>
</event>
<event>
 6    1  0.2436515E-005  0.1279902E+04  0.7818608E-02  0.9045656E-01
          2   -1    0    0  501    0  0.00000000000E+00  0.00000000000E+00  0.16614702296E+04  0.16614702296E+04  0.00000000000E+00 0.  1.
         -2   -1    0    0    0  501 -0.00000000000E+00 -0.00000000000E+00 -0.24649099284E+03  0.24649099284E+03  0.00000000000E+00 0. -1.
         23    2    1    2    0    0 -0.38251359323E+03  0.14119548651E+02  0.14697024777E+04  0.15212951601E+04  0.88303909902E+02 0.  0.
         11    1    3    3    0    0 -0.25882827811E+03 -0.13496521136E+01  0.82486859407E+03  0.86452420243E+03  0.00000000000E+00 0.  1.
        -11    1    3    3    0    0 -0.12368531513E+03  0.15469200765E+02  0.64483388361E+03  0.65677095764E+03  0.00000000000E+00 0. -1.
         22    1    1    2    0    0  0.38251359323E+03 -0.14119548651E+02 -0.54723240954E+02  0.38666606234E+03  0.00000000000E+00 0. -1.
<mgrwt>
<rscale>  0 0.12799023E+04</rscale>
<asrwt>0</asrwt>
<pdfrwt beam="1">  1        2 0.25561080E+00 0.12799023E+04</pdfrwt>
<pdfrwt beam="2">  1       -2 0.37921692E-01 0.12799023E+04</pdfrwt>
<totfact> 0.66360426E+01</totfact>
</mgrwt>
</event>
<event>
 6    1  0.2436515E-005  0.4069733E+04  0.7818608E-02  0.7990625E-01
          4   -1    0    0  501    0  0.00000000000E+00  0.00000000000E+00  0.17997621012E+04  0.17997621012E+04  0.00000000000E+00 0.  1.
         -4   -1    0    0    0  501 -0.00000000000E+00 -0.00000000000E+00 -0.23006826504E+04  0.23006826504E+04  0.00000000000E+00 0. -1.
         23    2    1    2    0    0  0.32279235839E+01 -0.13797893162E+04 -0.17561085153E+04  0.22351496525E+04  0.90265579654E+02 0.  0.
         11    1    3    3    0    0 -0.98941606615E+01 -0.10192378345E+03 -0.16758549406E+03  0.19639564625E+03  0.00000000000E+00 0.  1.
        -11    1    3    3    0    0  0.13122084245E+02 -0.12778655327E+04 -0.15885230212E+04  0.20387540062E+04  0.00000000000E+00 0. -1.
         22    1    1    2    0    0 -0.32279235839E+01  0.13797893162E+04  0.12551879662E+04  0.18652950991E+04  0.00000000000E+00 0.  1.
<mgrwt>
<rscale>  0 0.40697329E+04</rscale>
<asrwt>0</asrwt>
<pdfrwt beam="1">  1        4 0.27688648E+00 0.40697329E+04</pdfrwt>
<pdfrwt beam="2">  1       -4 0.35395118E+00 0.40697329E+04</pdfrwt>
<totfact> 0.92114564E-04</totfact>
</mgrwt>
</event>
<event>
 6    1  0.2436515E-005  0.2017828E+04  0.7818608E-02  0.8598331E-01
         -2   -1    0    0    0  501 -0.00000000000E+00  0.00000000000E+00  0.58636952200E+03  0.58636952200E+03  0.00000000000E+00 0. -1.
          2   -1    0    0  501    0  0.00000000000E+00 -0.00000000000E+00 -0.17359487674E+04  0.17359487674E+04  0.00000000000E+00 0.  1.
         23    2    1    2    0    0 -0.46496486577E+03  0.87953244092E+03 -0.75463667160E+03  0.12519215043E+04  0.89784774266E+02 0.  0.
         13    1    3    3    0    0 -0.24510003225E+02  0.61491934439E+02 -0.25681073134E+02  0.71003632135E+02  0.00000000000E+00 0. -1.
        -13    1    3    3    0    0 -0.44045486254E+03  0.81804050648E+03 -0.72895559846E+03  0.11809178721E+04  0.00000000000E+00 0.  1.
         22    1    1    2    0    0  0.46496486577E+03 -0.87953244092E+03 -0.39494257380E+03  0.10703967851E+04  0.00000000000E+00 0. -1.
<mgrwt>
<rscale>  0 0.20178280E+04</rscale>
<asrwt>0</asrwt>
<pdfrwt beam="1">  1        2 0.26706904E+00 0.20178280E+04</pdfrwt>
<pdfrwt beam="2">  1       -2 0.90210697E-01 0.20178280E+04</pdfrwt>
<totfact> 0.91325939E+00</totfact>
</mgrwt>
</event>
<event>
 6    1  0.2436515E-005  0.4300795E+04  0.7818608E-02  0.7946471E-01
          2   -1    0    0  501    0  0.00000000000E+00  0.00000000000E+00  0.13938305735E+04  0.13938305735E+04  0.00000000000E+00 0.  1.
         -2   -1    0    0    0  501 -0.00000000000E+00 -0.00000000000E+00 -0.33176262129E+04  0.33176262129E+04  0.00000000000E+00 0. -1.
         23    2    1    2    0    0 -0.14722568357E+04 -0.14808735248E+03 -0.26702326631E+04  0.30541582964E+04  0.90941574254E+02 0.  0.
         11    1    3    3    0    0 -0.84069672099E+03 -0.78772198614E+02 -0.14310372525E+04  0.16615786632E+04  0.00000000000E+00 0. -1.
        -11    1    3    3    0    0 -0.63156011474E+03 -0.69315153867E+02 -0.12391954107E+04  0.13925796332E+04  0.00000000000E+00 0.  1.
         22    1    1    2    0    0  0.14722568357E+04  0.14808735248E+03  0.74643702380E+03  0.16572984900E+04  0.00000000000E+00 0.  1.
<mgrwt>
<rscale>  0 0.43007947E+04</rscale>
<asrwt>0</asrwt>
<pdfrwt beam="1">  1        2 0.21443547E+00 0.43007947E+04</pdfrwt>
<pdfrwt beam="2">  1       -2 0.51040403E+00 0.43007947E+04</pdfrwt>
<totfact> 0.16054034E-02</totfact>
</mgrwt>
</event>
<event>
 6    1  0.2436515E-005  0.1393538E+04  0.7818608E-02  0.8958510E-01
          2   -1    0    0  501    0  0.00000000000E+00  0.00000000000E+00  0.62157559898E+03  0.62157559898E+03  0.00000000000E+00 0.  1.
         -2   -1    0    0    0  501 -0.00000000000E+00 -0.00000000000E+00 -0.78105834466E+03  0.78105834466E+03  0.00000000000E+00 0. -1.
         23    2    1    2    0    0  0.15382079622E+03 -0.61681586000E+02 -0.75794582210E+03  0.78164802655E+03  0.95006909098E+02 0.  0.
         11    1    3    3    0    0  0.15058634476E+03 -0.23474000116E+02 -0.62185972316E+03  0.64026306406E+03  0.00000000000E+00 0. -1.
        -11    1    3    3    0    0  0.32344514638E+01 -0.38207585883E+02 -0.13608609894E+03  0.14138496249E+03  0.00000000000E+00 0.  1.
         22    1    1    2    0    0 -0.15382079622E+03  0.61681586000E+02  0.59846307641E+03  0.62098591709E+03  0.00000000000E+00 0.  1.
<mgrwt>
<rscale>  0 0.13935377E+04</rscale>
<asrwt>0</asrwt>
<pdfrwt beam="1">  1        2 0.95627016E-01 0.13935377E+04</pdfrwt>
<pdfrwt beam="2">  1       -2 0.12016282E+00 0.13935377E+04</pdfrwt>
<totfact> 0.24477158E+01</totfact>
</mgrwt>
</event>
<event>
 6    1  0.2436515E-005  0.5954405E+04  0.7818608E-02  0.7696081E-01
          2   -1    0    0  501    0  0.00000000000E+00  0.00000000000E+00  0.42738738042E+04  0.42738738042E+04  0.00000000000E+00 0.  1.
         -2   -1    0    0    0  501 -0.00000000000E+00 -0.00000000000E+00 -0.20739344323E+04  0.20739344323E+04  0.00000000000E+00 0. -1.
         23    2    1    2    0    0 -0.12100275095E+04  0.11861257558E+04  0.37090736884E+04  0.40787671907E+04  0.89740112354E+02 0.  0.
         11    1    3    3    0    0 -0.81587821099E+03  0.83072268748E+03  0.24616310754E+04  0.27231204509E+04  0.00000000000E+00 0.  1.
        -11    1    3    3    0    0 -0.39414929854E+03  0.35540306834E+03  0.12474426129E+04  0.13556467398E+04  0.00000000000E+00 0. -1.
         22    1    1    2    0    0  0.12100275095E+04 -0.11861257558E+04 -0.15091343164E+04  0.22690410458E+04  0.00000000000E+00 0. -1.
<mgrwt>
<rscale>  0 0.59544048E+04</rscale>
<asrwt>0</asrwt>
<pdfrwt beam="1">  1        2 0.65751904E+00 0.59544048E+04</pdfrwt>
<pdfrwt beam="2">  1       -2 0.31906684E+00 0.59544048E+04</pdfrwt>
<totfact> 0.32536325E-03</totfact>
</mgrwt>
</event>
<event>
 6    1  0.2436515E-005  0.6975462E+04  0.7818608E-02  0.7579971E-01
          2   -1    0    0  501    0  0.00000000000E+00  0.00000000000E+00  0.35662814758E+04  0.35662814758E+04  0.00000000000E+00 0.  1.
         -2   -1    0    0    0  501 -0.00000000000E+00 -0.00000000000E+00 -0.34109108822E+04  0.34109108822E+04  0.00000000000E+00 0. -1.
         23    2    1    2    0    0  0.22389230593E+04  0.24211147079E+04 -0.10564567860E+04  0.34639177471E+04  0.89734738893E+02 0.  0.
         11    1    3    3    0    0  0.95576532159E+03  0.10133292074E+04 -0.40203883074E+03  0.14498133169E+04  0.00000000000E+00 0. -1.
        -11    1    3    3    0    0  0.12831577377E+04  0.14077855005E+04 -0.65441795526E+03  0.20141044302E+04  0.00000000000E+00 0.  1.
         22    1    1    2    0    0 -0.22389230593E+04 -0.24211147079E+04  0.12118273796E+04  0.35132746110E+04  0.00000000000E+00 0.  1.
<mgrwt>
<rscale>  0 0.69754622E+04</rscale>
<asrwt>0</asrwt>
<pdfrwt beam="1">  1        2 0.54865869E+00 0.69754622E+04</pdfrwt>
<pdfrwt beam="2">  1       -2 0.52475552E+00 0.69754622E+04</pdfrwt>
<totfact> 0.54389592E-04</totfact>
</mgrwt>
</event>
<event>
 6    1  0.2436515E-005  0.3059965E+04  0.7818608E-02  0.8226812E-01
          2   -1    0    0  501    0  0.00000000000E+00  0.00000000000E+00  0.16280813344E+04  0.16280813344E+04  0.00000000000E+00 0. -1.
         -2   -1    0    0    0  501 -0.00000000000E+00 -0.00000000000E+00 -0.14377943865E+04  0.14377943865E+04  0.00000000000E+00 0.  1.
         23    2    1    2    0    0  0.48775888853E+03  0.42398396168E+03 -0.12927382226E+04  0.14481505312E+04  0.91086309718E+02 0.  0.
         13    1    3    3    0    0  0.52243399580E+02  0.89058585693E+02 -0.20620202607E+03  0.23060806586E+03  0.00000000000E+00 0.  1.
        -13    1    3    3    0    0  0.43551548895E+03  0.33492537599E+03 -0.10865361965E+04  0.12175424654E+04  0.00000000000E+00 0. -1.
         22    1    1    2    0    0 -0.48775888853E+03 -0.42398396168E+03  0.14830251705E+04  0.16177251897E+04  0.00000000000E+00 0. -1.
<mgrwt>
<rscale>  0 0.30599648E+04</rscale>
<asrwt>0</asrwt>
<pdfrwt beam="1">  1        2 0.25047405E+00 0.30599648E+04</pdfrwt>
<pdfrwt beam="2">  1       -2 0.22119914E+00 0.30599648E+04</pdfrwt>
<totfact> 0.88989236E-01</totfact>
</mgrwt>
</event>
<event>
 6    1  0.2436515E-005  0.6699811E+03  0.7818608E-02  0.9769992E-01
         -4   -1    0    0    0  501 -0.00000000000E+00  0.00000000000E+00  0.37695955422E+03  0.37695955422E+03  0.00000000000E+00 0. -1.
          4   -1    0    0  501    0  0.00000000000E+00 -0.00000000000E+00 -0.29769422324E+03  0.29769422324E+03  0.00000000000E+00 0.  1.
         23    2    1    2    0    0 -0.82858171347E+02 -0.95272878553E+02 -0.26513040620E+03  0.30784207954E+03  0.92359166812E+02 0.  0.
         11    1    3    3    0    0  0.98255772822E+00 -0.22280195361E+02 -0.13440514899E+03  0.13624285890E+03  0.00000000000E+00 0. -1.
        -11    1    3    3    0    0 -0.83840729075E+02 -0.72992683192E+02 -0.13072525721E+03  0.17159922064E+03  0.00000000000E+00 0.  1.
         22    1    1    2    0    0  0.82858171347E+02  0.95272878553E+02  0.34439573718E+03  0.36681169793E+03  0.00000000000E+00 0. -1.
<mgrwt>
<rscale>  0 0.66998114E+03</rscale>
<asrwt>0</asrwt>
<pdfrwt beam="1">  1        4 0.45799111E-01 0.66998114E+03</pdfrwt>
<pdfrwt beam="2">  1       -4 0.57993778E-01 0.66998114E+03</pdfrwt>
<totfact> 0.25852931E+01</totfact>
</mgrwt>
</event>
<event>
 6    1  0.2436515E-005  0.1867761E+04  0.7818608E-02  0.8671072E-01
         -2   -1    0    0    0  501 -0.00000000000E+00  0.00000000000E+00  0.52422466367E+03  0.52422466367E+03  0.00000000000E+00 0. -1.
          2   -1    0    0  501    0  0.00000000000E+00 -0.00000000000E+00 -0.16636623086E+04  0.16636623086E+04  0.00000000000E+00 0.  1.
         23    2    1    2    0    0 -0.27369903285E+02  0.65179617984E+03  0.20782021323E+03  0.69099315238E+03  0.93246576028E+02 0.  0.
         11    1    3    3    0    0 -0.52375909262E+02  0.38243718764E+03  0.15151454736E+03  0.41467830474E+03  0.00000000000E+00 0.  1.
        -11    1    3    3    0    0  0.25006005977E+02  0.26935899220E+03  0.56305665877E+02  0.27631484764E+03  0.00000000000E+00 0. -1.
         22    1    1    2    0    0  0.27369903285E+02 -0.65179617984E+03 -0.13472578582E+04  0.14968938199E+04  0.00000000000E+00 0.  1.
<mgrwt>
<rscale>  0 0.18677610E+04</rscale>
<asrwt>0</asrwt>
<pdfrwt beam="1">  1        2 0.25594804E+00 0.18677610E+04</pdfrwt>
<pdfrwt beam="2">  1       -2 0.80649950E-01 0.18677610E+04</pdfrwt>
<totfact> 0.13094633E+01</totfact>
</mgrwt>
</event>
<event>
 6    1  0.2436515E-005  0.2309014E+04  0.7818608E-02  0.8474376E-01
         -2   -1    0    0    0  501 -0.00000000000E+00  0.00000000000E+00  0.51706987185E+03  0.51706987185E+03  0.00000000000E+00 0. -1.
          2   -1    0    0  501    0  0.00000000000E+00 -0.00000000000E+00 -0.25777676095E+04  0.25777676095E+04  0.00000000000E+00 0.  1.
         23    2    1    2    0    0 -0.84528576732E+01  0.76330525497E+03 -0.21900402667E+04  0.23206050531E+04  0.78899174455E+02 0.  0.
         13    1    3    3    0    0 -0.75947568764E+01  0.54168089873E+03 -0.16576736296E+04  0.17439488922E+04  0.00000000000E+00 0.  1.
        -13    1    3    3    0    0 -0.85810079678E+00  0.22162435624E+03 -0.53236663716E+03  0.57665616096E+03  0.00000000000E+00 0. -1.
         22    1    1    2    0    0  0.84528576732E+01 -0.76330525497E+03  0.12934252906E+03  0.77423242821E+03  0.00000000000E+00 0. -1.
<mgrwt>
<rscale>  0 0.23090136E+04</rscale>
<asrwt>0</asrwt>
<pdfrwt beam="1">  1        2 0.39657964E+00 0.23090136E+04</pdfrwt>
<pdfrwt beam="2">  1       -2 0.79549209E-01 0.23090136E+04</pdfrwt>
<totfact> 0.39776049E+00</totfact>
</mgrwt>
</event>
<event>
 6    1  0.2436515E-005  0.2857400E+04  0.7818608E-02  0.8285666E-01
         -2   -1    0    0    0  501 -0.00000000000E+00  0.00000000000E+00  0.68838051347E+03  0.68838051347E+03  0.00000000000E+00 0.  1.
          2   -1    0    0  501    0  0.00000000000E+00 -0.00000000000E+00 -0.29651964848E+04  0.29651964848E+04  0.00000000000E+00 0. -1.
         23    2    1    2    0    0  0.69543030318E+02  0.13861689566E+04 -0.71427474827E+03  0.15636402329E+04  0.92096431358E+02 0.  0.
         13    1    3    3    0    0 -0.52566720750E+01  0.72944733797E+03 -0.35315196993E+03  0.81045503597E+03  0.00000000000E+00 0. -1.
        -13    1    3    3    0    0  0.74799702393E+02  0.65672161866E+03 -0.36112277834E+03  0.75318519697E+03  0.00000000000E+00 0.  1.
         22    1    1    2    0    0 -0.69543030318E+02 -0.13861689566E+04 -0.15625412231E+04  0.20899367654E+04  0.00000000000E+00 0. -1.
<mgrwt>
<rscale>  0 0.28573999E+04</rscale>
<asrwt>0</asrwt>
<pdfrwt beam="1">  1        2 0.45618408E+00 0.28573999E+04</pdfrwt>
<pdfrwt beam="2">  1       -2 0.10590469E+00 0.28573999E+04</pdfrwt>
<totfact> 0.11411132E+00</totfact>
</mgrwt>
</event>
<event>
 6    1  0.2436515E-005  0.2671803E+04  0.7818608E-02  0.8344212E-01
         -2   -1    0    0    0  501 -0.00000000000E+00  0.00000000000E+00  0.11176874156E+04  0.11176874156E+04  0.00000000000E+00 0. -1.
          2   -1    0    0  501    0  0.00000000000E+00 -0.00000000000E+00 -0.15967192256E+04  0.15967192256E+04  0.00000000000E+00 0.  1.
         23    2    1    2    0    0 -0.23459304778E+03 -0.26730875153E+03 -0.15464026243E+04  0.15893429443E+04  0.90344071829E+02 0.  0.
         11    1    3    3    0    0 -0.38407152965E+02 -0.90219309905E+01 -0.24349755142E+03  0.24667298633E+03  0.00000000000E+00 0.  1.
        -11    1    3    3    0    0 -0.19618589482E+03 -0.25828682054E+03 -0.13029050729E+04  0.13426699580E+04  0.00000000000E+00 0. -1.
         22    1    1    2    0    0  0.23459304778E+03  0.26730875153E+03  0.10673708144E+04  0.11250636969E+04  0.00000000000E+00 0. -1.
<mgrwt>
<rscale>  0 0.26718031E+04</rscale>
<asrwt>0</asrwt>
<pdfrwt beam="1">  1        2 0.24564911E+00 0.26718031E+04</pdfrwt>
<pdfrwt beam="2">  1       -2 0.17195191E+00 0.26718031E+04</pdfrwt>
<totfact> 0.20333369E+00</totfact>
</mgrwt>
</event>
<event>
 6    1  0.2436515E-005  0.1829001E+04  0.7818608E-02  0.8691027E-01
          2   -1    0    0  501    0  0.00000000000E+00  0.00000000000E+00  0.13075355999E+04  0.13075355999E+04  0.00000000000E+00 0.  1.
         -2   -1    0    0    0  501 -0.00000000000E+00 -0.00000000000E+00 -0.63960892695E+03  0.63960892695E+03  0.00000000000E+00 0. -1.
         23    2    1    2    0    0 -0.21628678036E+03 -0.76007659304E+03  0.81990773961E+03  0.11424118736E+04  0.91431880582E+02 0.  0.
         11    1    3    3    0    0 -0.14579178206E+03 -0.35803650523E+03  0.42390884560E+03  0.57371080883E+03  0.00000000000E+00 0.  1.
        -11    1    3    3    0    0 -0.70494998301E+02 -0.40204008781E+03  0.39599889401E+03  0.56870106475E+03  0.00000000000E+00 0. -1.
         22    1    1    2    0    0  0.21628678036E+03  0.76007659304E+03 -0.15198106665E+03  0.80473265328E+03  0.00000000000E+00 0. -1.
<mgrwt>
<rscale>  0 0.18290013E+04</rscale>
<asrwt>0</asrwt>
<pdfrwt beam="1">  1        2 0.20115932E+00 0.18290013E+04</pdfrwt>
<pdfrwt beam="2">  1       -2 0.98401373E-01 0.18290013E+04</pdfrwt>
<totfact> 0.13228460E+01</totfact>
</mgrwt>
</event>
<event>
 6    1  0.2436515E-005  0.2535186E+04  0.7818608E-02  0.8390556E-01
         -2   -1    0    0    0  501 -0.00000000000E+00  0.00000000000E+00  0.10104284009E+04  0.10104284009E+04  0.00000000000E+00 0. -1.
          2   -1    0    0  501    0  0.00000000000E+00 -0.00000000000E+00 -0.15902089397E+04  0.15902089397E+04  0.00000000000E+00 0.  1.
         23    2    1    2    0    0  0.11819828493E+03  0.37162863842E+03  0.94525443504E+03  0.10265311336E+04  0.90451875398E+02 0.  0.
         13    1    3    3    0    0  0.12952606205E+03  0.32126291383E+03  0.78136839697E+03  0.85470663524E+03  0.00000000000E+00 0. -1.
        -13    1    3    3    0    0 -0.11327777121E+02  0.50365724591E+02  0.16388603808E+03  0.17182449833E+03  0.00000000000E+00 0.  1.
         22    1    1    2    0    0 -0.11819828493E+03 -0.37162863842E+03 -0.15250349739E+04  0.15741062070E+04  0.00000000000E+00 0.  1.
<mgrwt>
<rscale>  0 0.25351862E+04</rscale>
<asrwt>0</asrwt>
<pdfrwt beam="1">  1        2 0.24464753E+00 0.25351862E+04</pdfrwt>
<pdfrwt beam="2">  1       -2 0.15545052E+00 0.25351862E+04</pdfrwt>
<totfact> 0.27361604E+00</totfact>
</mgrwt>
</event>
<event>
 6    1  0.2436515E-005  0.4125308E+04  0.7818608E-02  0.7979734E-01
          2   -1    0    0  501    0  0.00000000000E+00  0.00000000000E+00  0.21557666006E+04  0.21557666006E+04  0.00000000000E+00 0.  1.
         -2   -1    0    0    0  501 -0.00000000000E+00 -0.00000000000E+00 -0.19735628213E+04  0.19735628213E+04  0.00000000000E+00 0. -1.
         23    2    1    2    0    0 -0.13913313452E+04  0.12467442524E+04 -0.78163756598E+03  0.20271485824E+04  0.90553561554E+02 0.  0.
         13    1    3    3    0    0 -0.38263371206E+03  0.33114276022E+03 -0.25469295251E+03  0.56650912200E+03  0.00000000000E+00 0.  1.
        -13    1    3    3    0    0 -0.10086976331E+04  0.91560149222E+03 -0.52694461346E+03  0.14606394604E+04  0.00000000000E+00 0. -1.
         22    1    1    2    0    0  0.13913313452E+04 -0.12467442524E+04  0.96384134528E+03  0.21021808395E+04  0.00000000000E+00 0.  1.
<mgrwt>
<rscale>  0 0.41253077E+04</rscale>
<asrwt>0</asrwt>
<pdfrwt beam="1">  1        2 0.33165640E+00 0.41253077E+04</pdfrwt>
<pdfrwt beam="2">  1       -2 0.30362505E+00 0.41253077E+04</pdfrwt>
<totfact> 0.12896103E-01</totfact>
</mgrwt>
</event>
<event>
 6    1  0.2436515E-005  0.1462491E+04  0.7818608E-02  0.8909787E-01
          2   -1    0    0  501    0  0.00000000000E+00  0.00000000000E+00  0.29654904353E+04  0.29654904353E+04  0.00000000000E+00 0.  1.
         -2   -1    0    0    0  501 -0.00000000000E+00 -0.00000000000E+00 -0.18031411853E+03  0.18031411853E+03  0.00000000000E+00 0. -1.
         23    2    1    2    0    0 -0.38028294530E+03  0.33305651299E+03  0.25260383215E+04  0.25777427087E+04  0.91357052586E+02 0.  0.
         13    1    3    3    0    0 -0.33080751917E+03  0.28868304642E+03  0.23222640976E+04  0.23634047590E+04  0.00000000000E+00 0. -1.
        -13    1    3    3    0    0 -0.49475426127E+02  0.44373466561E+02  0.20377422394E+03  0.21433794967E+03  0.00000000000E+00 0.  1.
         22    1    1    2    0    0  0.38028294530E+03 -0.33305651299E+03  0.25913799524E+03  0.56806184514E+03  0.00000000000E+00 0. -1.
<mgrwt>
<rscale>  0 0.14624907E+04</rscale>
<asrwt>0</asrwt>
<pdfrwt beam="1">  1        2 0.45622926E+00 0.14624907E+04</pdfrwt>
<pdfrwt beam="2">  1       -2 0.27740636E-01 0.14624907E+04</pdfrwt>
<totfact> 0.21185057E+01</totfact>
</mgrwt>
</event>
<event>
 6    1  0.2436515E-005  0.3944407E+04  0.7818608E-02  0.8015856E-01
         -2   -1    0    0    0  501 -0.00000000000E+00  0.00000000000E+00  0.11055146657E+04  0.11055146657E+04  0.00000000000E+00 0. -1.
          2   -1    0    0  501    0  0.00000000000E+00 -0.00000000000E+00 -0.35183494051E+04  0.35183494051E+04  0.00000000000E+00 0.  1.
         23    2    1    2    0    0 -0.70214900198E+03  0.24558439429E+03 -0.33469259908E+04  0.34297738810E+04  0.90057597699E+02 0.  0.
         13    1    3    3    0    0 -0.24514790480E+03  0.43170598078E+02 -0.11753268222E+04  0.12013968265E+04  0.00000000000E+00 0. -1.
        -13    1    3    3    0    0 -0.45700109719E+03  0.20241379622E+03 -0.21715991686E+04  0.22283770544E+04  0.00000000000E+00 0.  1.
         22    1    1    2    0    0  0.70214900198E+03 -0.24558439429E+03  0.93409125132E+03  0.11940901899E+04  0.00000000000E+00 0. -1.
<mgrwt>
<rscale>  0 0.39444071E+04</rscale>
<asrwt>0</asrwt>
<pdfrwt beam="1">  1        2 0.54128453E+00 0.39444071E+04</pdfrwt>
<pdfrwt beam="2">  1       -2 0.17007918E+00 0.39444071E+04</pdfrwt>
<totfact> 0.13286918E-01</totfact>
</mgrwt>
</event>
<event>
 6    1  0.2436515E-005  0.1865566E+04  0.7818608E-02  0.8672189E-01
         -2   -1    0    0    0  501 -0.00000000000E+00  0.00000000000E+00  0.61045068007E+03  0.61045068007E+03  0.00000000000E+00 0. -1.
          2   -1    0    0  501    0  0.00000000000E+00 -0.00000000000E+00 -0.14253146491E+04  0.14253146491E+04  0.00000000000E+00 0.  1.
         23    2    1    2    0    0  0.27090623429E+03  0.11184137719E+03 -0.13718304438E+04  0.14063923590E+04  0.10060824822E+03 0.  0.
         13    1    3    3    0    0  0.27155992730E+03  0.87721972844E+02 -0.12451163746E+04  0.12774015520E+04  0.00000000000E+00 0.  1.
        -13    1    3    3    0    0 -0.65369301076E+00  0.24119404346E+02 -0.12671406916E+03  0.12899080705E+03  0.00000000000E+00 0. -1.
         22    1    1    2    0    0 -0.27090623429E+03 -0.11184137719E+03  0.55696647480E+03  0.62937297009E+03  0.00000000000E+00 0. -1.
<mgrwt>
<rscale>  0 0.18655662E+04</rscale>
<asrwt>0</asrwt>
<pdfrwt beam="1">  1        2 0.21927917E+00 0.18655662E+04</pdfrwt>
<pdfrwt beam="2">  1       -2 0.93915491E-01 0.18655662E+04</pdfrwt>
<totfact> 0.12584936E+01</totfact>
</mgrwt>
</event>
<event>
 6    1  0.2436515E-005  0.7331759E+03  0.7818608E-02  0.9662121E-01
         -2   -1    0    0    0  501 -0.00000000000E+00  0.00000000000E+00  0.71125964502E+02  0.71125964502E+02  0.00000000000E+00 0. -1.
          2   -1    0    0  501    0  0.00000000000E+00 -0.00000000000E+00 -0.18894186163E+04  0.18894186163E+04  0.00000000000E+00 0.  1.
         23    2    1    2    0    0 -0.12326368619E+03  0.11649408452E+03 -0.17754783684E+04  0.17856221096E+04  0.85779213886E+02 0.  0.
         13    1    3    3    0    0 -0.62805872625E+02  0.96258749178E+02 -0.81957132510E+03  0.82759137342E+03  0.00000000000E+00 0. -1.
        -13    1    3    3    0    0 -0.60457813566E+02  0.20235335339E+02 -0.95590704330E+03  0.95803073617E+03  0.00000000000E+00 0.  1.
         22    1    1    2    0    0  0.12326368619E+03 -0.11649408452E+03 -0.42814283353E+02  0.17492247117E+03  0.00000000000E+00 0. -1.
<mgrwt>
<rscale>  0 0.73317589E+03</rscale>
<asrwt>0</asrwt>
<pdfrwt beam="1">  1        2 0.29067980E+00 0.73317589E+03</pdfrwt>
<pdfrwt beam="2">  1       -2 0.10942455E-01 0.73317589E+03</pdfrwt>
<totfact> 0.46602587E+02</totfact>
</mgrwt>
</event>
<event>
 6    1  0.2436515E-005  0.7433729E+03  0.7818608E-02  0.9645805E-01
         -2   -1    0    0    0  501 -0.00000000000E+00  0.00000000000E+00  0.11610186647E+03  0.11610186647E+03  0.00000000000E+00 0. -1.
          2   -1    0    0  501    0  0.00000000000E+00 -0.00000000000E+00 -0.11899103954E+04  0.11899103954E+04  0.00000000000E+00 0.  1.
         23    2    1    2    0    0 -0.26251484532E+03 -0.24373241284E+03 -0.67746720960E+03  0.77177825463E+03  0.91434791785E+02 0.  0.
         13    1    3    3    0    0 -0.65144625088E+02 -0.10715333401E+03 -0.17925848248E+03  0.21876759977E+03  0.00000000000E+00 0. -1.
        -13    1    3    3    0    0 -0.19737022024E+03 -0.13657907884E+03 -0.49820872713E+03  0.55301065487E+03  0.00000000000E+00 0.  1.
         22    1    1    2    0    0  0.26251484532E+03  0.24373241284E+03 -0.39634131935E+03  0.53423400726E+03  0.00000000000E+00 0.  1.
<mgrwt>
<rscale>  0 0.74337290E+03</rscale>
<asrwt>0</asrwt>
<pdfrwt beam="1">  1        2 0.18306314E+00 0.74337290E+03</pdfrwt>
<pdfrwt beam="2">  1       -2 0.17861825E-01 0.74337290E+03</pdfrwt>
<totfact> 0.50307067E+02</totfact>
</mgrwt>
</event>
<event>
 6    1  0.2436515E-005  0.2601586E+04  0.7818608E-02  0.8367663E-01
         -2   -1    0    0    0  501 -0.00000000000E+00  0.00000000000E+00  0.80041054409E+03  0.80041054409E+03  0.00000000000E+00 0. -1.
          2   -1    0    0  501    0  0.00000000000E+00 -0.00000000000E+00 -0.21139932501E+04  0.21139932501E+04  0.00000000000E+00 0.  1.
         23    2    1    2    0    0  0.89412120813E+03  0.37112718309E+03  0.31011250355E+03  0.10240138200E+04  0.12347638593E+03 0.  0.
         11    1    3    3    0    0  0.73146400888E+03  0.26935061258E+03  0.20845086844E+03  0.80687118758E+03  0.00000000000E+00 0.  1.
        -11    1    3    3    0    0  0.16265719925E+03  0.10177657051E+03  0.10166163512E+03  0.21714263245E+03  0.00000000000E+00 0. -1.
         22    1    1    2    0    0 -0.89412120813E+03 -0.37112718309E+03 -0.16236952095E+04  0.18903899741E+04  0.00000000000E+00 0.  1.
<mgrwt>
<rscale>  0 0.26015860E+04</rscale>
<asrwt>0</asrwt>
<pdfrwt beam="1">  1        2 0.32522973E+00 0.26015860E+04</pdfrwt>
<pdfrwt beam="2">  1       -2 0.12314008E+00 0.26015860E+04</pdfrwt>
<totfact> 0.25409409E+00</totfact>
</mgrwt>
</event>
<event>
 6    1  0.2436515E-005  0.3394494E+04  0.7818608E-02  0.8139259E-01
          1   -1    0    0  501    0  0.00000000000E+00  0.00000000000E+00  0.29523252539E+04  0.29523252539E+04  0.00000000000E+00 0.  1.
         -1   -1    0    0    0  501 -0.00000000000E+00 -0.00000000000E+00 -0.97572163942E+03  0.97572163942E+03  0.00000000000E+00 0. -1.
         23    2    1    2    0    0  0.60001243349E+03  0.15802886390E+04  0.82890821765E+03  0.18848797864E+04  0.91410464668E+02 0.  0.
         13    1    3    3    0    0  0.28524897439E+03  0.87645622629E+03  0.44032255418E+03  0.10214824745E+04  0.00000000000E+00 0. -1.
        -13    1    3    3    0    0  0.31476345909E+03  0.70383241271E+03  0.38858566347E+03  0.86339731191E+03  0.00000000000E+00 0.  1.
         22    1    1    2    0    0 -0.60001243349E+03 -0.15802886390E+04  0.11476953968E+04  0.20431671069E+04  0.00000000000E+00 0.  1.
<mgrwt>
<rscale>  0 0.33944942E+04</rscale>
<asrwt>0</asrwt>
<pdfrwt beam="1">  1        1 0.45420388E+00 0.33944942E+04</pdfrwt>
<pdfrwt beam="2">  1       -1 0.15011102E+00 0.33944942E+04</pdfrwt>
<totfact> 0.18543156E-01</totfact>
</mgrwt>
</event>
<event>
 6    1  0.2436515E-005  0.2950286E+04  0.7818608E-02  0.8258071E-01
         -2   -1    0    0    0  501 -0.00000000000E+00  0.00000000000E+00  0.15527808649E+04  0.15527808649E+04  0.00000000000E+00 0. -1.
          2   -1    0    0  501    0  0.00000000000E+00 -0.00000000000E+00 -0.14013872811E+04  0.14013872811E+04  0.00000000000E+00 0.  1.
         23    2    1    2    0    0  0.13462070359E+04  0.40867332297E+01 -0.52469237059E+03  0.14477212327E+04  0.91129573736E+02 0.  0.
         13    1    3    3    0    0  0.14165230698E+03 -0.13391384327E+02 -0.82344694712E+02  0.16439389890E+03  0.00000000000E+00 0. -1.
        -13    1    3    3    0    0  0.12045547289E+04  0.17478117557E+02 -0.44234767587E+03  0.12833273338E+04  0.00000000000E+00 0.  1.
         22    1    1    2    0    0 -0.13462070359E+04 -0.40867332297E+01  0.67608595438E+03  0.15064469133E+04  0.00000000000E+00 0. -1.
<mgrwt>
<rscale>  0 0.29502863E+04</rscale>
<asrwt>0</asrwt>
<pdfrwt beam="1">  1        2 0.21559804E+00 0.29502863E+04</pdfrwt>
<pdfrwt beam="2">  1       -2 0.23888936E+00 0.29502863E+04</pdfrwt>
<totfact> 0.93436897E-01</totfact>
</mgrwt>
</event>
<event>
 6    1  0.2436515E-005  0.3226007E+04  0.7818608E-02  0.8181982E-01
          2   -1    0    0  501    0  0.00000000000E+00  0.00000000000E+00  0.11550137477E+04  0.11550137477E+04  0.00000000000E+00 0.  1.
         -2   -1    0    0    0  501 -0.00000000000E+00 -0.00000000000E+00 -0.22525962537E+04  0.22525962537E+04  0.00000000000E+00 0. -1.
         23    2    1    2    0    0 -0.12371577143E+04  0.51444807773E+03  0.39665438681E+03  0.14006321923E+04  0.96019793196E+02 0.  0.
         11    1    3    3    0    0 -0.52973377623E+03  0.27162174705E+03  0.17031269930E+03  0.61919517334E+03  0.00000000000E+00 0. -1.
        -11    1    3    3    0    0 -0.70742393809E+03  0.24282633068E+03  0.22634168751E+03  0.78143701894E+03  0.00000000000E+00 0.  1.
         22    1    1    2    0    0  0.12371577143E+04 -0.51444807773E+03 -0.14942368928E+04  0.20069778092E+04  0.00000000000E+00 0. -1.
<mgrwt>
<rscale>  0 0.32260066E+04</rscale>
<asrwt>0</asrwt>
<pdfrwt beam="1">  1        2 0.17769443E+00 0.32260066E+04</pdfrwt>
<pdfrwt beam="2">  1       -2 0.34655326E+00 0.32260066E+04</pdfrwt>
<totfact> 0.27696357E-01</totfact>
</mgrwt>
</event>
<event>
 6    1  0.2436515E-005  0.5131208E+04  0.7818608E-02  0.7808580E-01
          2   -1    0    0  501    0  0.00000000000E+00  0.00000000000E+00  0.24681247491E+04  0.24681247491E+04  0.00000000000E+00 0.  1.
         -2   -1    0    0    0  501 -0.00000000000E+00 -0.00000000000E+00 -0.26669332414E+04  0.26669332414E+04  0.00000000000E+00 0. -1.
         23    2    1    2    0    0  0.94944810290E+03 -0.22675593359E+04  0.63241934286E+03  0.25400210435E+04  0.92063207272E+02 0.  0.
         11    1    3    3    0    0  0.34292787720E+03 -0.71701205589E+03  0.22230445247E+03  0.82530302728E+03  0.00000000000E+00 0. -1.
        -11    1    3    3    0    0  0.60652022571E+03 -0.15505472801E+04  0.41011489039E+03  0.17147180162E+04  0.00000000000E+00 0.  1.
         22    1    1    2    0    0 -0.94944810290E+03  0.22675593359E+04 -0.83122783518E+03  0.25950369470E+04  0.00000000000E+00 0. -1.
<mgrwt>
<rscale>  0 0.51312080E+04</rscale>
<asrwt>0</asrwt>
<pdfrwt beam="1">  1        2 0.37971150E+00 0.51312080E+04</pdfrwt>
<pdfrwt beam="2">  1       -2 0.41029742E+00 0.51312080E+04</pdfrwt>
<totfact> 0.16645060E-02</totfact>
</mgrwt>
</event>
<event>
 6    1  0.2436515E-005  0.4305812E+04  0.7818608E-02  0.7945544E-01
         -2   -1    0    0    0  501 -0.00000000000E+00  0.00000000000E+00  0.13453403382E+04  0.13453403382E+04  0.00000000000E+00 0. -1.
          2   -1    0    0  501    0  0.00000000000E+00 -0.00000000000E+00 -0.34452285291E+04  0.34452285291E+04  0.00000000000E+00 0.  1.
         23    2    1    2    0    0 -0.15275277458E+03  0.20570182151E+04 -0.36799870053E+03  0.20972254888E+04  0.90963509444E+02 0.  0.
         11    1    3    3    0    0 -0.40688324707E+02  0.64619351611E+03 -0.15788324667E+03  0.66644483614E+03  0.00000000000E+00 0. -1.
        -11    1    3    3    0    0 -0.11206444987E+03  0.14108246990E+04 -0.21011545385E+03  0.14307806527E+04  0.00000000000E+00 0.  1.
         22    1    1    2    0    0  0.15275277458E+03 -0.20570182151E+04 -0.17318894904E+04  0.26933433785E+04  0.00000000000E+00 0.  1.
<mgrwt>
<rscale>  0 0.43058123E+04</rscale>
<asrwt>0</asrwt>
<pdfrwt beam="1">  1        2 0.53003515E+00 0.43058123E+04</pdfrwt>
<pdfrwt beam="2">  1       -2 0.20697544E+00 0.43058123E+04</pdfrwt>
<totfact> 0.81681452E-02</totfact>
</mgrwt>
</event>
<event>
 6    1  0.2436515E-005  0.3417847E+04  0.7818608E-02  0.8133540E-01
          2   -1    0    0  501    0  0.00000000000E+00  0.00000000000E+00  0.28565733746E+04  0.28565733746E+04  0.00000000000E+00 0.  1.
         -2   -1    0    0    0  501 -0.00000000000E+00 -0.00000000000E+00 -0.10223505703E+04  0.10223505703E+04  0.00000000000E+00 0. -1.
         23    2    1    2    0    0  0.41619915672E+03 -0.86863569215E+03  0.25181503241E+04  0.26976083409E+04  0.90884557491E+02 0.  0.
         11    1    3    3    0    0  0.19053325137E+03 -0.30172545624E+03  0.96938236016E+03  0.10329778947E+04  0.00000000000E+00 0.  1.
        -11    1    3    3    0    0  0.22566590535E+03 -0.56691023591E+03  0.15487679639E+04  0.16646304462E+04  0.00000000000E+00 0. -1.
         22    1    1    2    0    0 -0.41619915672E+03  0.86863569215E+03 -0.68392751978E+03  0.11813156039E+04  0.00000000000E+00 0. -1.
<mgrwt>
<rscale>  0 0.34178469E+04</rscale>
<asrwt>0</asrwt>
<pdfrwt beam="1">  1        2 0.43947282E+00 0.34178469E+04</pdfrwt>
<pdfrwt beam="2">  1       -2 0.15728470E+00 0.34178469E+04</pdfrwt>
<totfact> 0.46607889E-01</totfact>
</mgrwt>
</event>
<event>
 6    1  0.2436515E-005  0.1364271E+04  0.7818608E-02  0.8980095E-01
         -4   -1    0    0    0  501 -0.00000000000E+00  0.00000000000E+00  0.78352252013E+03  0.78352252013E+03  0.00000000000E+00 0. -1.
          4   -1    0    0  501    0  0.00000000000E+00 -0.00000000000E+00 -0.59386779251E+03  0.59386779251E+03  0.00000000000E+00 0.  1.
         23    2    1    2    0    0  0.60564469449E+02 -0.67616996932E+03  0.11465345424E+03  0.69438293832E+03  0.90268311651E+02 0.  0.
         11    1    3    3    0    0 -0.61898309562E+01 -0.29676106125E+03  0.81000229072E+02  0.30767918128E+03  0.00000000000E+00 0. -1.
        -11    1    3    3    0    0  0.66754300405E+02 -0.37940890807E+03  0.33653225166E+02  0.38670375704E+03  0.00000000000E+00 0.  1.
         22    1    1    2    0    0 -0.60564469449E+02  0.67616996932E+03  0.75001273377E+02  0.68300737432E+03  0.00000000000E+00 0.  1.
<mgrwt>
<rscale>  0 0.13642709E+04</rscale>
<asrwt>0</asrwt>
<pdfrwt beam="1">  1        4 0.91364276E-01 0.13642709E+04</pdfrwt>
<pdfrwt beam="2">  1       -4 0.12054193E+00 0.13642709E+04</pdfrwt>
<totfact> 0.10426541E+00</totfact>
</mgrwt>
</event>
<event>
 6    1  0.2436515E-005  0.3279816E+04  0.7818608E-02  0.8168050E-01
          2   -1    0    0  501    0  0.00000000000E+00  0.00000000000E+00  0.20392023726E+04  0.20392023726E+04  0.00000000000E+00 0.  1.
         -2   -1    0    0    0  501 -0.00000000000E+00 -0.00000000000E+00 -0.13187988137E+04  0.13187988137E+04  0.00000000000E+00 0. -1.
         23    2    1    2    0    0  0.79381612835E+03 -0.10512942042E+02  0.18281552995E+04  0.19951481179E+04  0.90607094817E+02 0.  0.
         11    1    3    3    0    0  0.14691032510E+03 -0.30529363467E+02  0.39862589713E+03  0.42593108775E+03  0.00000000000E+00 0. -1.
        -11    1    3    3    0    0  0.64690580325E+03  0.20016421425E+02  0.14295294024E+04  0.15692170301E+04  0.00000000000E+00 0.  1.
         22    1    1    2    0    0 -0.79381612835E+03  0.10512942042E+02 -0.11077517406E+04  0.13628530685E+04  0.00000000000E+00 0. -1.
<mgrwt>
<rscale>  0 0.32798156E+04</rscale>
<asrwt>0</asrwt>
<pdfrwt beam="1">  1        2 0.31372344E+00 0.32798156E+04</pdfrwt>
<pdfrwt beam="2">  1       -2 0.20289212E+00 0.32798156E+04</pdfrwt>
<totfact> 0.67679936E-01</totfact>
</mgrwt>
</event>
<event>
 6    1  0.2436515E-005  0.3816436E+04  0.7818608E-02  0.8042637E-01
          2   -1    0    0  501    0  0.00000000000E+00  0.00000000000E+00  0.23767778793E+04  0.23767778793E+04  0.00000000000E+00 0.  1.
         -2   -1    0    0    0  501 -0.00000000000E+00 -0.00000000000E+00 -0.15320306756E+04  0.15320306756E+04  0.00000000000E+00 0. -1.
         23    2    1    2    0    0  0.15220830703E+04  0.98193159358E+03 -0.18868411663E+03  0.18234052795E+04  0.90986756121E+02 0.  0.
         11    1    3    3    0    0  0.89588166505E+03  0.62957612882E+03 -0.10394067272E+03  0.10998971421E+04  0.00000000000E+00 0.  1.
        -11    1    3    3    0    0  0.62620140530E+03  0.35235546476E+03 -0.84743443903E+02  0.72350813736E+03  0.00000000000E+00 0. -1.
         22    1    1    2    0    0 -0.15220830703E+04 -0.98193159358E+03  0.10334313203E+04  0.20854032755E+04  0.00000000000E+00 0.  1.
<mgrwt>
<rscale>  0 0.38164364E+04</rscale>
<asrwt>0</asrwt>
<pdfrwt beam="1">  1        2 0.36565814E+00 0.38164364E+04</pdfrwt>
<pdfrwt beam="2">  1       -2 0.23569702E+00 0.38164364E+04</pdfrwt>
<totfact> 0.25857529E-01</totfact>
</mgrwt>
</event>
<event>
 6    1  0.2436515E-005  0.1057499E+04  0.7818608E-02  0.9247636E-01
          2   -1    0    0  501    0  0.00000000000E+00  0.00000000000E+00  0.43756859691E+03  0.43756859691E+03  0.00000000000E+00 0.  1.
         -2   -1    0    0    0  501 -0.00000000000E+00 -0.00000000000E+00 -0.63893034667E+03  0.63893034667E+03  0.00000000000E+00 0. -1.
         23    2    1    2    0    0  0.27489782010E+03 -0.30833817427E+03  0.22944218812E+03  0.47964613584E+03  0.82313162606E+02 0.  0.
         13    1    3    3    0    0  0.67295466736E+02 -0.32855059023E+02  0.26562132944E+02  0.79458678904E+02  0.00000000000E+00 0. -1.
        -13    1    3    3    0    0  0.20760235336E+03 -0.27548311525E+03  0.20288005517E+03  0.40018745694E+03  0.00000000000E+00 0.  1.
         22    1    1    2    0    0 -0.27489782010E+03  0.30833817427E+03 -0.43080393788E+03  0.59685280773E+03  0.00000000000E+00 0. -1.
<mgrwt>
<rscale>  0 0.10574987E+04</rscale>
<asrwt>0</asrwt>
<pdfrwt beam="1">  1        2 0.67318247E-01 0.10574987E+04</pdfrwt>
<pdfrwt beam="2">  1       -2 0.98296975E-01 0.10574987E+04</pdfrwt>
<totfact> 0.61503781E+01</totfact>
</mgrwt>
</event>
<event>
 6    1  0.2436515E-005  0.2637120E+04  0.7818608E-02  0.8355701E-01
         -2   -1    0    0    0  501 -0.00000000000E+00  0.00000000000E+00  0.74388816972E+03  0.74388816972E+03  0.00000000000E+00 0. -1.
          2   -1    0    0  501    0  0.00000000000E+00 -0.00000000000E+00 -0.23371794812E+04  0.23371794812E+04  0.00000000000E+00 0.  1.
         23    2    1    2    0    0 -0.59402891451E+03  0.11750141363E+04 -0.76450074738E+03  0.15252969831E+04  0.92417109017E+02 0.  0.
         11    1    3    3    0    0 -0.50021892249E+03  0.91083163504E+03 -0.58696027087E+03  0.11934636976E+04  0.00000000000E+00 0.  1.
        -11    1    3    3    0    0 -0.93809992018E+02  0.26418250126E+03 -0.17754047652E+03  0.33183328551E+03  0.00000000000E+00 0. -1.
         22    1    1    2    0    0  0.59402891451E+03 -0.11750141363E+04 -0.82879056405E+03  0.15557706678E+04  0.00000000000E+00 0.  1.
<mgrwt>
<rscale>  0 0.26371198E+04</rscale>
<asrwt>0</asrwt>
<pdfrwt beam="1">  1        2 0.35956607E+00 0.26371198E+04</pdfrwt>
<pdfrwt beam="2">  1       -2 0.11444434E+00 0.26371198E+04</pdfrwt>
<totfact> 0.22717193E+00</totfact>
</mgrwt>
</event>
<event>
 6    1  0.2436515E-005  0.3578691E+04  0.7818608E-02  0.8095390E-01
          2   -1    0    0  501    0  0.00000000000E+00  0.00000000000E+00  0.15822329866E+04  0.15822329866E+04  0.00000000000E+00 0.  1.
         -2   -1    0    0    0  501 -0.00000000000E+00 -0.00000000000E+00 -0.20235693239E+04  0.20235693239E+04  0.00000000000E+00 0. -1.
         23    2    1    2    0    0  0.66665328434E+03  0.13912851102E+04 -0.11318630756E+04  0.19155573474E+04  0.90250040242E+02 0.  0.
         13    1    3    3    0    0  0.38509322664E+03  0.90096117574E+03 -0.70396630475E+03  0.12064809951E+04  0.00000000000E+00 0. -1.
        -13    1    3    3    0    0  0.28156005770E+03  0.49032393447E+03 -0.42789677081E+03  0.70907635222E+03  0.00000000000E+00 0.  1.
         22    1    1    2    0    0 -0.66665328434E+03 -0.13912851102E+04  0.69052673824E+03  0.16902449632E+04  0.00000000000E+00 0.  1.
<mgrwt>
<rscale>  0 0.35786915E+04</rscale>
<asrwt>0</asrwt>
<pdfrwt beam="1">  1        2 0.24342046E+00 0.35786915E+04</pdfrwt>
<pdfrwt beam="2">  1       -2 0.31131836E+00 0.35786915E+04</pdfrwt>
<totfact> 0.25228894E-01</totfact>
</mgrwt>
</event>
<event>
 6    1  0.2436515E-005  0.2936824E+04  0.7818608E-02  0.8262005E-01
          2   -1    0    0  501    0  0.00000000000E+00  0.00000000000E+00  0.28888061309E+04  0.28888061309E+04  0.00000000000E+00 0.  1.
         -2   -1    0    0    0  501 -0.00000000000E+00 -0.00000000000E+00 -0.74641018081E+03  0.74641018081E+03  0.00000000000E+00 0. -1.
         23    2    1    2    0    0 -0.10196958760E+04  0.10369121182E+04  0.83378009484E+03  0.16788314117E+04  0.91209877374E+02 0.  0.
         11    1    3    3    0    0 -0.32122552304E+03  0.28620638043E+03  0.28189467872E+03  0.51435837579E+03  0.00000000000E+00 0. -1.
        -11    1    3    3    0    0 -0.69847035299E+03  0.75070573780E+03  0.55188541612E+03  0.11644730359E+04  0.00000000000E+00 0.  1.
         22    1    1    2    0    0  0.10196958760E+04 -0.10369121182E+04  0.13086158553E+04  0.19563849001E+04  0.00000000000E+00 0.  1.
<mgrwt>
<rscale>  0 0.29368243E+04</rscale>
<asrwt>0</asrwt>
<pdfrwt beam="1">  1        2 0.44443171E+00 0.29368243E+04</pdfrwt>
<pdfrwt beam="2">  1       -2 0.11483234E+00 0.29368243E+04</pdfrwt>
<totfact> 0.10388292E+00</totfact>
</mgrwt>
</event>
<event>
 6    1  0.2436515E-005  0.2283019E+04  0.7818608E-02  0.8484647E-01
          2   -1    0    0  501    0  0.00000000000E+00  0.00000000000E+00  0.16727454045E+04  0.16727454045E+04  0.00000000000E+00 0.  1.
         -2   -1    0    0    0  501 -0.00000000000E+00 -0.00000000000E+00 -0.77898549215E+03  0.77898549215E+03  0.00000000000E+00 0. -1.
         23    2    1    2    0    0 -0.58415699898E+03 -0.89509571046E+03  0.87226041649E+03  0.13826668393E+04  0.92160859573E+02 0.  0.
         11    1    3    3    0    0 -0.35724212663E+03 -0.47849422464E+03  0.45242885991E+03  0.74917990719E+03  0.00000000000E+00 0.  1.
        -11    1    3    3    0    0 -0.22691487234E+03 -0.41660148582E+03  0.41983155659E+03  0.63348693213E+03  0.00000000000E+00 0. -1.
         22    1    1    2    0    0  0.58415699898E+03  0.89509571046E+03  0.21499495856E+02  0.10690640573E+04  0.00000000000E+00 0. -1.
<mgrwt>
<rscale>  0 0.22830194E+04</rscale>
<asrwt>0</asrwt>
<pdfrwt beam="1">  1        2 0.25734545E+00 0.22830194E+04</pdfrwt>
<pdfrwt beam="2">  1       -2 0.11984392E+00 0.22830194E+04</pdfrwt>
<totfact> 0.49123980E+00</totfact>
</mgrwt>
</event>
<event>
 6    1  0.2436515E-005  0.2195177E+04  0.7818608E-02  0.8520438E-01
         -2   -1    0    0    0  501 -0.00000000000E+00  0.00000000000E+00  0.14468124576E+04  0.14468124576E+04  0.00000000000E+00 0. -1.
          2   -1    0    0  501    0  0.00000000000E+00 -0.00000000000E+00 -0.83265842661E+03  0.83265842661E+03  0.00000000000E+00 0.  1.
         23    2    1    2    0    0 -0.36032538944E+03 -0.86060273766E+03 -0.28902171273E+03  0.98093406056E+03  0.90700729908E+02 0.  0.
         11    1    3    3    0    0 -0.12291513858E+03 -0.31593376626E+03 -0.15011305100E+03  0.37075086518E+03  0.00000000000E+00 0.  1.
        -11    1    3    3    0    0 -0.23741025086E+03 -0.54466897141E+03 -0.13890866172E+03  0.61018319538E+03  0.00000000000E+00 0. -1.
         22    1    1    2    0    0  0.36032538944E+03  0.86060273766E+03  0.90317574376E+03  0.12985368237E+04  0.00000000000E+00 0. -1.
<mgrwt>
<rscale>  0 0.21951771E+04</rscale>
<asrwt>0</asrwt>
<pdfrwt beam="1">  1        2 0.12810130E+00 0.21951771E+04</pdfrwt>
<pdfrwt beam="2">  1       -2 0.22258653E+00 0.21951771E+04</pdfrwt>
<totfact> 0.28399322E+00</totfact>
</mgrwt>
</event>
<event>
 6    1  0.2436515E-005  0.1647823E+04  0.7818608E-02  0.8791696E-01
          2   -1    0    0  501    0  0.00000000000E+00  0.00000000000E+00  0.71445364215E+03  0.71445364215E+03  0.00000000000E+00 0.  1.
         -2   -1    0    0    0  501 -0.00000000000E+00 -0.00000000000E+00 -0.95013857097E+03  0.95013857097E+03  0.00000000000E+00 0. -1.
         23    2    1    2    0    0 -0.39234242587E+03  0.69544013040E+03  0.76326470213E+02  0.80731707221E+03  0.91463494984E+02 0.  0.
         11    1    3    3    0    0 -0.26120797816E+03  0.44162332877E+03  0.91671994108E+02  0.52121447301E+03  0.00000000000E+00 0.  1.
        -11    1    3    3    0    0 -0.13113444771E+03  0.25381680162E+03 -0.15345523895E+02  0.28610259920E+03  0.00000000000E+00 0. -1.
         22    1    1    2    0    0  0.39234242587E+03 -0.69544013040E+03 -0.31201139903E+03  0.85727514092E+03  0.00000000000E+00 0. -1.
<mgrwt>
<rscale>  0 0.16478228E+04</rscale>
<asrwt>0</asrwt>
<pdfrwt beam="1">  1        2 0.10991595E+00 0.16478228E+04</pdfrwt>
<pdfrwt beam="2">  1       -2 0.14617516E+00 0.16478228E+04</pdfrwt>
<totfact> 0.12229290E+01</totfact>
</mgrwt>
</event>
<event>
 6    1  0.2436515E-005  0.9232421E+03  0.7818608E-02  0.9396985E-01
          2   -1    0    0  501    0  0.00000000000E+00  0.00000000000E+00  0.11897755470E+03  0.11897755470E+03  0.00000000000E+00 0.  1.
         -2   -1    0    0    0  501 -0.00000000000E+00 -0.00000000000E+00 -0.17910436233E+04  0.17910436233E+04  0.00000000000E+00 0. -1.
         23    2    1    2    0    0  0.17153277517E+03 -0.33479258025E+03 -0.13817814370E+04  0.14348635914E+04  0.89465197058E+02 0.  0.
         11    1    3    3    0    0  0.91782267159E+02 -0.15719370165E+03 -0.83055667168E+03  0.85026950390E+03  0.00000000000E+00 0.  1.
        -11    1    3    3    0    0  0.79750508008E+02 -0.17759887860E+03 -0.55122476537E+03  0.58459408752E+03  0.00000000000E+00 0. -1.
         22    1    1    2    0    0 -0.17153277517E+03  0.33479258025E+03 -0.29028463151E+03  0.47515758652E+03  0.00000000000E+00 0.  1.
<mgrwt>
<rscale>  0 0.92324209E+03</rscale>
<asrwt>0</asrwt>
<pdfrwt beam="1">  1        2 0.18304240E-01 0.92324209E+03</pdfrwt>
<pdfrwt beam="2">  1       -2 0.27554517E+00 0.92324209E+03</pdfrwt>
<totfact> 0.14399004E+01</totfact>
</mgrwt>
</event>
<event>
 6    1  0.2436515E-005  0.3958078E+04  0.7818608E-02  0.8013057E-01
          2   -1    0    0  501    0  0.00000000000E+00  0.00000000000E+00  0.32006635765E+04  0.32006635765E+04  0.00000000000E+00 0.  1.
         -2   -1    0    0    0  501 -0.00000000000E+00 -0.00000000000E+00 -0.12236823590E+04  0.12236823590E+04  0.00000000000E+00 0. -1.
         23    2    1    2    0    0  0.72072244940E+03 -0.42662267036E+03  0.29920340064E+04  0.31083748431E+04  0.90988557270E+02 0.  0.
         13    1    3    3    0    0  0.46023774417E+03 -0.30978831630E+03  0.18671202407E+04  0.19478001887E+04  0.00000000000E+00 0. -1.
        -13    1    3    3    0    0  0.26048470523E+03 -0.11683435406E+03  0.11249137658E+04  0.11605746544E+04  0.00000000000E+00 0.  1.
         22    1    1    2    0    0 -0.72072244940E+03  0.42662267036E+03 -0.10150527889E+04  0.13159710925E+04  0.00000000000E+00 0. -1.
<mgrwt>
<rscale>  0 0.39580781E+04</rscale>
<asrwt>0</asrwt>
<pdfrwt beam="1">  1        2 0.49240978E+00 0.39580781E+04</pdfrwt>
<pdfrwt beam="2">  1       -2 0.18825883E+00 0.39580781E+04</pdfrwt>
<totfact> 0.16312463E-01</totfact>
</mgrwt>
</event>
<event>
 6    1  0.2436515E-005  0.2459091E+04  0.7818608E-02  0.8417706E-01
          2   -1    0    0  501    0  0.00000000000E+00  0.00000000000E+00  0.30742827995E+04  0.30742827995E+04  0.00000000000E+00 0.  1.
         -2   -1    0    0    0  501 -0.00000000000E+00 -0.00000000000E+00 -0.49175102634E+03  0.49175102634E+03  0.00000000000E+00 0. -1.
         23    2    1    2    0    0 -0.10079203076E+04 -0.56457103379E+03  0.18961695821E+04  0.22222567402E+04  0.91225744985E+02 0.  0.
         13    1    3    3    0    0 -0.75742702992E+03 -0.44907143640E+03  0.13797748048E+04  0.16368076774E+04  0.00000000000E+00 0.  1.
        -13    1    3    3    0    0 -0.25049327764E+03 -0.11549959739E+03  0.51639477729E+03  0.58544906282E+03  0.00000000000E+00 0. -1.
         22    1    1    2    0    0  0.10079203076E+04  0.56457103379E+03  0.68636219101E+03  0.13437770856E+04  0.00000000000E+00 0. -1.
<mgrwt>
<rscale>  0 0.24590907E+04</rscale>
<asrwt>0</asrwt>
<pdfrwt beam="1">  1        2 0.47296657E+00 0.24590907E+04</pdfrwt>
<pdfrwt beam="2">  1       -2 0.75654006E-01 0.24590907E+04</pdfrwt>
<totfact> 0.21914136E+00</totfact>
</mgrwt>
</event>
<event>
 6    1  0.2436515E-005  0.2981468E+04  0.7818608E-02  0.8249043E-01
          1   -1    0    0  501    0  0.00000000000E+00  0.00000000000E+00  0.30109586968E+04  0.30109586968E+04  0.00000000000E+00 0.  1.
         -1   -1    0    0    0  501 -0.00000000000E+00 -0.00000000000E+00 -0.73806646409E+03  0.73806646409E+03  0.00000000000E+00 0. -1.
         23    2    1    2    0    0  0.12987553670E+04 -0.71963209478E+03  0.99485075031E+03  0.17899371369E+04  0.97524783362E+02 0.  0.
         13    1    3    3    0    0  0.89262232993E+03 -0.52015993557E+03  0.73804301168E+03  0.12696647075E+04  0.00000000000E+00 0. -1.
        -13    1    3    3    0    0  0.40613303706E+03 -0.19947215921E+03  0.25680773863E+03  0.52027242933E+03  0.00000000000E+00 0.  1.
         22    1    1    2    0    0 -0.12987553670E+04  0.71963209478E+03  0.12780414823E+04  0.19590880240E+04  0.00000000000E+00 0. -1.
<mgrwt>
<rscale>  0 0.29814679E+04</rscale>
<asrwt>0</asrwt>
<pdfrwt beam="1">  1        1 0.46322441E+00 0.29814679E+04</pdfrwt>
<pdfrwt beam="2">  1       -1 0.11354869E+00 0.29814679E+04</pdfrwt>
<totfact> 0.35369536E-01</totfact>
</mgrwt>
</event>
<event>
 6    1  0.2436515E-005  0.5933913E+03  0.7818608E-02  0.9919213E-01
         -2   -1    0    0    0  501 -0.00000000000E+00  0.00000000000E+00  0.28977720472E+03  0.28977720472E+03  0.00000000000E+00 0. -1.
          2   -1    0    0  501    0  0.00000000000E+00 -0.00000000000E+00 -0.30377932272E+03  0.30377932272E+03  0.00000000000E+00 0.  1.
         23    2    1    2    0    0  0.19526309578E+03  0.17100921202E+03 -0.13581720652E+03  0.30683236913E+03  0.91257668135E+02 0.  0.
         13    1    3    3    0    0  0.13341763076E+03  0.12175744046E+03 -0.44460506886E+02  0.18601579282E+03  0.00000000000E+00 0. -1.
        -13    1    3    3    0    0  0.61845465022E+02  0.49251771557E+02 -0.91356699633E+02  0.12081657632E+03  0.00000000000E+00 0.  1.
         22    1    1    2    0    0 -0.19526309578E+03 -0.17100921202E+03  0.12181508852E+03  0.28672415831E+03  0.00000000000E+00 0. -1.
<mgrwt>
<rscale>  0 0.59339135E+03</rscale>
<asrwt>0</asrwt>
<pdfrwt beam="1">  1        2 0.46735281E-01 0.59339135E+03</pdfrwt>
<pdfrwt beam="2">  1       -2 0.44581108E-01 0.59339135E+03</pdfrwt>
<totfact> 0.52080101E+02</totfact>
</mgrwt>
</event>
<event>
 6    1  0.3014639E-005  0.4008097E+04  0.7818608E-02  0.8002915E-01
          2   -1    0    0  501    0  0.00000000000E+00  0.00000000000E+00  0.16107893409E+04  0.16107893409E+04  0.00000000000E+00 0.  1.
         -2   -1    0    0    0  501 -0.00000000000E+00 -0.00000000000E+00 -0.24933181120E+04  0.24933181120E+04  0.00000000000E+00 0. -1.
         23    2    1    2    0    0  0.16900523408E+04 -0.27671864468E+03 -0.15052314611E+04  0.22818536937E+04  0.91018705856E+02 0.  0.
         11    1    3    3    0    0  0.41340603341E+03 -0.32919503291E+02 -0.33978422198E+03  0.53613576607E+03  0.00000000000E+00 0. -1.
        -11    1    3    3    0    0  0.12766463074E+04 -0.24379914139E+03 -0.11654472391E+04  0.17457179276E+04  0.00000000000E+00 0.  1.
         22    1    1    2    0    0 -0.16900523408E+04  0.27671864468E+03  0.62270269007E+03  0.18222537593E+04  0.00000000000E+00 0.  1.
<mgrwt>
<rscale>  0 0.40080969E+04</rscale>
<asrwt>0</asrwt>
<pdfrwt beam="1">  1        2 0.24781375E+00 0.40080969E+04</pdfrwt>
<pdfrwt beam="2">  1       -2 0.38358740E+00 0.40080969E+04</pdfrwt>
<totfact> 0.82260878E-02</totfact>
</mgrwt>
</event>
<event>
 6    1  0.2436515E-005  0.1980353E+04  0.7818608E-02  0.8615862E-01
         -2   -1    0    0    0  501 -0.00000000000E+00  0.00000000000E+00  0.29931891843E+03  0.29931891843E+03  0.00000000000E+00 0. -1.
          2   -1    0    0  501    0  0.00000000000E+00 -0.00000000000E+00 -0.32756008921E+04  0.32756008921E+04  0.00000000000E+00 0.  1.
         23    2    1    2    0    0 -0.90786955187E+03 -0.36852752536E+03 -0.17200744067E+04  0.19817791665E+04  0.93557683891E+02 0.  0.
         13    1    3    3    0    0 -0.33933210028E+03 -0.10832387702E+03 -0.69768680774E+03  0.78335638014E+03  0.00000000000E+00 0.  1.
        -13    1    3    3    0    0 -0.56853745160E+03 -0.26020364833E+03 -0.10223875989E+04  0.11984227864E+04  0.00000000000E+00 0. -1.
         22    1    1    2    0    0  0.90786955187E+03  0.36852752536E+03 -0.12562075670E+04  0.15931406440E+04  0.00000000000E+00 0. -1.
<mgrwt>
<rscale>  0 0.19803528E+04</rscale>
<asrwt>0</asrwt>
<pdfrwt beam="1">  1        2 0.50393861E+00 0.19803528E+04</pdfrwt>
<pdfrwt beam="2">  1       -2 0.46049063E-01 0.19803528E+04</pdfrwt>
<totfact> 0.48314116E+00</totfact>
</mgrwt>
</event>
<event>
 6    1  0.2436515E-005  0.3482841E+04  0.7818608E-02  0.8117869E-01
         -2   -1    0    0    0  501 -0.00000000000E+00  0.00000000000E+00  0.18403134259E+04  0.18403134259E+04  0.00000000000E+00 0. -1.
          2   -1    0    0  501    0  0.00000000000E+00 -0.00000000000E+00 -0.16478413374E+04  0.16478413374E+04  0.00000000000E+00 0.  1.
         23    2    1    2    0    0  0.14948366669E+04 -0.83931627593E+03  0.39584677450E+03  0.17617858182E+04  0.90587683136E+02 0.  0.
         11    1    3    3    0    0  0.10208543423E+04 -0.54699553819E+03  0.23048876426E+03  0.11808779689E+04  0.00000000000E+00 0. -1.
        -11    1    3    3    0    0  0.47398232466E+03 -0.29232073774E+03  0.16535801024E+03  0.58090784928E+03  0.00000000000E+00 0.  1.
         22    1    1    2    0    0 -0.14948366669E+04  0.83931627593E+03 -0.20337468597E+03  0.17263689451E+04  0.00000000000E+00 0.  1.
<mgrwt>
<rscale>  0 0.34828405E+04</rscale>
<asrwt>0</asrwt>
<pdfrwt beam="1">  1        2 0.25351405E+00 0.34828405E+04</pdfrwt>
<pdfrwt beam="2">  1       -2 0.28312514E+00 0.34828405E+04</pdfrwt>
<totfact> 0.34775084E-01</totfact>
</mgrwt>
</event>
<event>
 6    1  0.2436515E-005  0.4417110E+04  0.7818608E-02  0.7925311E-01
          2   -1    0    0  501    0  0.00000000000E+00  0.00000000000E+00  0.13779461153E+04  0.13779461153E+04  0.00000000000E+00 0.  1.
         -2   -1    0    0    0  501 -0.00000000000E+00 -0.00000000000E+00 -0.35398440028E+04  0.35398440028E+04  0.00000000000E+00 0. -1.
         23    2    1    2    0    0  0.35930134992E+03 -0.11850767872E+04  0.95336305328E+03  0.15654245085E+04  0.90268095676E+02 0.  0.
         13    1    3    3    0    0  0.53224549090E+02 -0.30103487840E+03  0.21781857906E+03  0.37536619989E+03  0.00000000000E+00 0.  1.
        -13    1    3    3    0    0  0.30607680083E+03 -0.88404190875E+03  0.73554447422E+03  0.11900583087E+04  0.00000000000E+00 0. -1.
         22    1    1    2    0    0 -0.35930134992E+03  0.11850767872E+04 -0.31152609408E+04  0.33523656096E+04  0.00000000000E+00 0. -1.
<mgrwt>
<rscale>  0 0.44171096E+04</rscale>
<asrwt>0</asrwt>
<pdfrwt beam="1">  1        2 0.21199171E+00 0.44171096E+04</pdfrwt>
<pdfrwt beam="2">  1       -2 0.54459138E+00 0.44171096E+04</pdfrwt>
<totfact> 0.10402360E-02</totfact>
</mgrwt>
</event>
<event>
 6    1  0.2436515E-005  0.3255913E+04  0.7818608E-02  0.8174205E-01
          2   -1    0    0  501    0  0.00000000000E+00  0.00000000000E+00  0.16988064409E+04  0.16988064409E+04  0.00000000000E+00 0.  1.
         -2   -1    0    0    0  501 -0.00000000000E+00 -0.00000000000E+00 -0.15600610091E+04  0.15600610091E+04  0.00000000000E+00 0. -1.
         23    2    1    2    0    0  0.14054686412E+04  0.12624010342E+03 -0.74049169406E+03  0.15962380299E+04  0.91483517071E+02 0.  0.
         13    1    3    3    0    0  0.77510581481E+02  0.12201672589E+02 -0.19375387617E+02  0.80821882562E+02  0.00000000000E+00 0.  1.
        -13    1    3    3    0    0  0.13279580597E+04  0.11403843083E+03 -0.72111630644E+03  0.15154161473E+04  0.00000000000E+00 0. -1.
         22    1    1    2    0    0 -0.14054686412E+04 -0.12624010342E+03  0.87923712586E+03  0.16626294201E+04  0.00000000000E+00 0.  1.
<mgrwt>
<rscale>  0 0.32559126E+04</rscale>
<asrwt>0</asrwt>
<pdfrwt beam="1">  1        2 0.26135484E+00 0.32559126E+04</pdfrwt>
<pdfrwt beam="2">  1       -2 0.24000939E+00 0.32559126E+04</pdfrwt>
<totfact> 0.60980326E-01</totfact>
</mgrwt>
</event>
<event>
 6    1  0.2436515E-005  0.1617504E+04  0.7818608E-02  0.8809866E-01
         -2   -1    0    0    0  501 -0.00000000000E+00  0.00000000000E+00  0.81419003943E+03  0.81419003943E+03  0.00000000000E+00 0. -1.
          2   -1    0    0  501    0  0.00000000000E+00 -0.00000000000E+00 -0.80335052078E+03  0.80335052078E+03  0.00000000000E+00 0.  1.
         23    2    1    2    0    0  0.40945028102E+03  0.69358963481E+03  0.38716617439E+02  0.81162912165E+03  0.92340351431E+02 0.  0.
         11    1    3    3    0    0  0.34018493022E+03  0.52559297525E+03  0.11905935506E+01  0.62607921216E+03  0.00000000000E+00 0.  1.
        -11    1    3    3    0    0  0.69265350803E+02  0.16799665956E+03  0.37526023889E+02  0.18554990950E+03  0.00000000000E+00 0. -1.
         22    1    1    2    0    0 -0.40945028102E+03 -0.69358963481E+03 -0.27877098787E+02  0.80591143855E+03  0.00000000000E+00 0.  1.
<mgrwt>
<rscale>  0 0.16175042E+04</rscale>
<asrwt>0</asrwt>
<pdfrwt beam="1">  1        2 0.12359239E+00 0.16175042E+04</pdfrwt>
<pdfrwt beam="2">  1       -2 0.12526001E+00 0.16175042E+04</pdfrwt>
<totfact> 0.15644982E+01</totfact>
</mgrwt>
</event>
<event>
 6    1  0.2436515E-005  0.3420223E+04  0.7818608E-02  0.8132961E-01
         -2   -1    0    0    0  501 -0.00000000000E+00  0.00000000000E+00  0.76577258740E+03  0.76577258740E+03  0.00000000000E+00 0. -1.
          2   -1    0    0  501    0  0.00000000000E+00 -0.00000000000E+00 -0.38189954641E+04  0.38189954641E+04  0.00000000000E+00 0.  1.
         23    2    1    2    0    0  0.84384983760E+03 -0.12942748803E+04 -0.54873613009E+03  0.16420339694E+04  0.89074137886E+02 0.  0.
         11    1    3    3    0    0  0.31399467802E+03 -0.54914663744E+03 -0.24947694778E+03  0.67999517256E+03  0.00000000000E+00 0.  1.
        -11    1    3    3    0    0  0.52985515958E+03 -0.74512824282E+03 -0.29925918231E+03  0.96203879682E+03  0.00000000000E+00 0. -1.
         22    1    1    2    0    0 -0.84384983760E+03  0.12942748803E+04 -0.25044867466E+04  0.29427340821E+04  0.00000000000E+00 0.  1.
<mgrwt>
<rscale>  0 0.34202234E+04</rscale>
<asrwt>0</asrwt>
<pdfrwt beam="1">  1        2 0.58753777E+00 0.34202234E+04</pdfrwt>
<pdfrwt beam="2">  1       -2 0.11781117E+00 0.34202234E+04</pdfrwt>
<totfact> 0.21788243E-01</totfact>
</mgrwt>
</event>
<event>
 6    1  0.2436515E-005  0.1397318E+04  0.7818608E-02  0.8955762E-01
          2   -1    0    0  501    0  0.00000000000E+00  0.00000000000E+00  0.74555086617E+03  0.74555086617E+03  0.00000000000E+00 0.  1.
         -2   -1    0    0    0  501 -0.00000000000E+00 -0.00000000000E+00 -0.65471671756E+03  0.65471671756E+03  0.00000000000E+00 0. -1.
         23    2    1    2    0    0  0.88204165473E+02 -0.52680573481E+03  0.49226240235E+03  0.73209926666E+03  0.91338964526E+02 0.  0.
         13    1    3    3    0    0  0.77530527729E+02 -0.38847874098E+03  0.30987192026E+03  0.50293868601E+03  0.00000000000E+00 0.  1.
        -13    1    3    3    0    0  0.10673637744E+02 -0.13832699383E+03  0.18239048209E+03  0.22916058065E+03  0.00000000000E+00 0. -1.
         22    1    1    2    0    0 -0.88204165473E+02  0.52680573481E+03 -0.40142825373E+03  0.66816831707E+03  0.00000000000E+00 0. -1.
<mgrwt>
<rscale>  0 0.13973183E+04</rscale>
<asrwt>0</asrwt>
<pdfrwt beam="1">  1        2 0.11470013E+00 0.13973183E+04</pdfrwt>
<pdfrwt beam="2">  1       -2 0.10072565E+00 0.13973183E+04</pdfrwt>
<totfact> 0.29876607E+01</totfact>
</mgrwt>
</event>
<event>
 6    1  0.2436515E-005  0.2963862E+04  0.7818608E-02  0.8254126E-01
         -2   -1    0    0    0  501 -0.00000000000E+00  0.00000000000E+00  0.19174704920E+04  0.19174704920E+04  0.00000000000E+00 0. -1.
          2   -1    0    0  501    0  0.00000000000E+00 -0.00000000000E+00 -0.11453214940E+04  0.11453214940E+04  0.00000000000E+00 0.  1.
         23    2    1    2    0    0 -0.54380181185E+03  0.67977021856E+03  0.16239657448E+04  0.18448430007E+04  0.91504076988E+02 0.  0.
         13    1    3    3    0    0 -0.73171997960E+02  0.85562900950E+02  0.28115879477E+03  0.30286204645E+03  0.00000000000E+00 0. -1.
        -13    1    3    3    0    0 -0.47062981389E+03  0.59420731761E+03  0.13428069500E+04  0.15419809542E+04  0.00000000000E+00 0.  1.
         22    1    1    2    0    0  0.54380181185E+03 -0.67977021856E+03 -0.85181674680E+03  0.12179489853E+04  0.00000000000E+00 0.  1.
<mgrwt>
<rscale>  0 0.29638625E+04</rscale>
<asrwt>0</asrwt>
<pdfrwt beam="1">  1        2 0.17620331E+00 0.29638625E+04</pdfrwt>
<pdfrwt beam="2">  1       -2 0.29499546E+00 0.29638625E+04</pdfrwt>
<totfact> 0.59836062E-01</totfact>
</mgrwt>
</event>
<event>
 6    1  0.2436515E-005  0.7697702E+03  0.7818608E-02  0.9604835E-01
          2   -1    0    0  501    0  0.00000000000E+00  0.00000000000E+00  0.11033442526E+04  0.11033442526E+04  0.00000000000E+00 0.  1.
         -2   -1    0    0    0  501 -0.00000000000E+00 -0.00000000000E+00 -0.13426140198E+03  0.13426140198E+03  0.00000000000E+00 0. -1.
         23    2    1    2    0    0  0.29852376703E+03  0.23069484991E+03  0.42493012252E+03  0.57545858271E+03  0.90831812355E+02 0.  0.
         11    1    3    3    0    0  0.27743265751E+03  0.18992797317E+03  0.33570875771E+03  0.47512302033E+03  0.00000000000E+00 0. -1.
        -11    1    3    3    0    0  0.21091109519E+02  0.40766876743E+02  0.89221364803E+02  0.10033556238E+03  0.00000000000E+00 0.  1.
         22    1    1    2    0    0 -0.29852376703E+03 -0.23069484991E+03  0.54415272807E+03  0.66214707182E+03  0.00000000000E+00 0. -1.
<mgrwt>
<rscale>  0 0.76977022E+03</rscale>
<asrwt>0</asrwt>
<pdfrwt beam="1">  1        2 0.16974526E+00 0.76977022E+03</pdfrwt>
<pdfrwt beam="2">  1       -2 0.20655601E-01 0.76977022E+03</pdfrwt>
<totfact> 0.43988403E+02</totfact>
</mgrwt>
</event>
<event>
 6    1  0.2436515E-005  0.3916016E+04  0.7818608E-02  0.8021706E-01
          2   -1    0    0  501    0  0.00000000000E+00  0.00000000000E+00  0.34686478495E+04  0.34686478495E+04  0.00000000000E+00 0.  1.
         -2   -1    0    0    0  501 -0.00000000000E+00 -0.00000000000E+00 -0.11052709077E+04  0.11052709077E+04  0.00000000000E+00 0. -1.
         23    2    1    2    0    0 -0.59287270659E+03 -0.54608083123E+03  0.32651144253E+04  0.33644425030E+04  0.93802050719E+02 0.  0.
         13    1    3    3    0    0 -0.27906300178E+03 -0.19415459335E+03  0.13624047004E+04  0.14041790244E+04  0.00000000000E+00 0. -1.
        -13    1    3    3    0    0 -0.31380970481E+03 -0.35192623788E+03  0.19027097250E+04  0.19602634785E+04  0.00000000000E+00 0.  1.
         22    1    1    2    0    0  0.59287270659E+03  0.54608083123E+03 -0.90173748355E+03  0.12094762543E+04  0.00000000000E+00 0. -1.
<mgrwt>
<rscale>  0 0.39160161E+04</rscale>
<asrwt>0</asrwt>
<pdfrwt beam="1">  1        2 0.53363813E+00 0.39160161E+04</pdfrwt>
<pdfrwt beam="2">  1       -2 0.17004168E+00 0.39160161E+04</pdfrwt>
<totfact> 0.14438331E-01</totfact>
</mgrwt>
</event>
<event>
 6    1  0.2436515E-005  0.2160587E+04  0.7818608E-02  0.8535014E-01
          2   -1    0    0  501    0  0.00000000000E+00  0.00000000000E+00  0.31184674442E+04  0.31184674442E+04  0.00000000000E+00 0.  1.
         -2   -1    0    0    0  501 -0.00000000000E+00 -0.00000000000E+00 -0.37423315085E+03  0.37423315085E+03  0.00000000000E+00 0. -1.
         23    2    1    2    0    0  0.85719897691E+03  0.61101472161E+03  0.17519668524E+04  0.20460756435E+04  0.94385439229E+02 0.  0.
         13    1    3    3    0    0  0.62467445252E+03  0.45995572867E+03  0.13647606477E+04  0.15698245346E+04  0.00000000000E+00 0. -1.
        -13    1    3    3    0    0  0.23252452439E+03  0.15105899295E+03  0.38720620462E+03  0.47625110886E+03  0.00000000000E+00 0.  1.
         22    1    1    2    0    0 -0.85719897691E+03 -0.61101472161E+03  0.99226744104E+03  0.14466249516E+04  0.00000000000E+00 0. -1.
<mgrwt>
<rscale>  0 0.21605869E+04</rscale>
<asrwt>0</asrwt>
<pdfrwt beam="1">  1        2 0.47976421E+00 0.21605869E+04</pdfrwt>
<pdfrwt beam="2">  1       -2 0.57574333E-01 0.21605869E+04</pdfrwt>
<totfact> 0.38013237E+00</totfact>
</mgrwt>
</event>
<event>
 6    1  0.2436515E-005  0.2003397E+04  0.7818608E-02  0.8605034E-01
          1   -1    0    0  501    0  0.00000000000E+00  0.00000000000E+00  0.11032906972E+04  0.11032906972E+04  0.00000000000E+00 0.  1.
         -1   -1    0    0    0  501 -0.00000000000E+00 -0.00000000000E+00 -0.90946083017E+03  0.90946083017E+03  0.00000000000E+00 0. -1.
         23    2    1    2    0    0 -0.19619612364E+03  0.33918843227E+02  0.10813090972E+04  0.11032116486E+04  0.90571358603E+02 0.  0.
         11    1    3    3    0    0 -0.14906734442E+03  0.20227641339E+02  0.56875205630E+03  0.58831040462E+03  0.00000000000E+00 0. -1.
        -11    1    3    3    0    0 -0.47128779227E+02  0.13691201888E+02  0.51255704095E+03  0.51490124400E+03  0.00000000000E+00 0.  1.
         22    1    1    2    0    0  0.19619612364E+03 -0.33918843227E+02 -0.88747923025E+03  0.90953987872E+03  0.00000000000E+00 0. -1.
<mgrwt>
<rscale>  0 0.20033968E+04</rscale>
<asrwt>0</asrwt>
<pdfrwt beam="1">  1        1 0.16973703E+00 0.20033968E+04</pdfrwt>
<pdfrwt beam="2">  1       -1 0.13991705E+00 0.20033968E+04</pdfrwt>
<totfact> 0.49085097E+00</totfact>
</mgrwt>
</event>
<event>
 6    1  0.2436515E-005  0.4132093E+04  0.7818608E-02  0.7978417E-01
         -2   -1    0    0    0  501 -0.00000000000E+00  0.00000000000E+00  0.19686637978E+04  0.19686637978E+04  0.00000000000E+00 0. -1.
          2   -1    0    0  501    0  0.00000000000E+00 -0.00000000000E+00 -0.21682467766E+04  0.21682467766E+04  0.00000000000E+00 0.  1.
         23    2    1    2    0    0 -0.68724135141E+03  0.10643442106E+04 -0.17325131491E+04  0.21481913432E+04  0.89414549265E+02 0.  0.
         11    1    3    3    0    0 -0.43755594029E+03  0.59832439903E+03 -0.99508677444E+03  0.12408243131E+04  0.00000000000E+00 0.  1.
        -11    1    3    3    0    0 -0.24968541112E+03  0.46601981157E+03 -0.73742637461E+03  0.90736703008E+03  0.00000000000E+00 0. -1.
         22    1    1    2    0    0  0.68724135141E+03 -0.10643442106E+04  0.15329301702E+04  0.19887192312E+04  0.00000000000E+00 0. -1.
<mgrwt>
<rscale>  0 0.41320934E+04</rscale>
<asrwt>0</asrwt>
<pdfrwt beam="1">  1        2 0.33357643E+00 0.41320934E+04</pdfrwt>
<pdfrwt beam="2">  1       -2 0.30287135E+00 0.41320934E+04</pdfrwt>
<totfact> 0.12818537E-01</totfact>
</mgrwt>
</event>
<event>
 6    1  0.2436515E-005  0.2112072E+04  0.7818608E-02  0.8555944E-01
          2   -1    0    0  501    0  0.00000000000E+00  0.00000000000E+00  0.13056041298E+04  0.13056041298E+04  0.00000000000E+00 0.  1.
         -2   -1    0    0    0  501 -0.00000000000E+00 -0.00000000000E+00 -0.85417315960E+03  0.85417315960E+03  0.00000000000E+00 0. -1.
         23    2    1    2    0    0 -0.62832226778E+03  0.30345100285E+03 -0.58180529949E+03  0.91300202002E+03  0.90575375901E+02 0.  0.
         11    1    3    3    0    0 -0.45868521028E+03  0.19117891095E+03 -0.37180419929E+03  0.62062860128E+03  0.00000000000E+00 0. -1.
        -11    1    3    3    0    0 -0.16963705751E+03  0.11227209190E+03 -0.21000110019E+03  0.29237341873E+03  0.00000000000E+00 0.  1.
         22    1    1    2    0    0  0.62832226778E+03 -0.30345100285E+03  0.10332362697E+04  0.12467752694E+04  0.00000000000E+00 0.  1.
<mgrwt>
<rscale>  0 0.21120720E+04</rscale>
<asrwt>0</asrwt>
<pdfrwt beam="1">  1        2 0.20086217E+00 0.21120720E+04</pdfrwt>
<pdfrwt beam="2">  1       -2 0.13141126E+00 0.21120720E+04</pdfrwt>
<totfact> 0.63840379E+00</totfact>
</mgrwt>
</event>
<event>
 6    1  0.2985546E-005  0.3162500E+04  0.7818608E-02  0.8198792E-01
          2   -1    0    0  501    0  0.00000000000E+00  0.00000000000E+00  0.23885073761E+04  0.23885073761E+04  0.00000000000E+00 0.  1.
         -2   -1    0    0    0  501 -0.00000000000E+00 -0.00000000000E+00 -0.10468261470E+04  0.10468261470E+04  0.00000000000E+00 0. -1.
         23    2    1    2    0    0 -0.11816821068E+04 -0.36397305772E+03 -0.39709879014E+03  0.13017438381E+04  0.89445975681E+02 0.  0.
         11    1    3    3    0    0 -0.72617430828E+03 -0.19345174949E+03 -0.27536722491E+03  0.80036230167E+03  0.00000000000E+00 0. -1.
        -11    1    3    3    0    0 -0.45550779855E+03 -0.17052130823E+03 -0.12173156523E+03  0.50138153643E+03  0.00000000000E+00 0.  1.
         22    1    1    2    0    0  0.11816821068E+04  0.36397305772E+03  0.17387800193E+04  0.21335896850E+04  0.00000000000E+00 0.  1.
<mgrwt>
<rscale>  0 0.31625003E+04</rscale>
<asrwt>0</asrwt>
<pdfrwt beam="1">  1        2 0.36746267E+00 0.31625003E+04</pdfrwt>
<pdfrwt beam="2">  1       -2 0.16105018E+00 0.31625003E+04</pdfrwt>
<totfact> 0.84347677E-01</totfact>
</mgrwt>
</event>
<event>
 6    1  0.2436515E-005  0.8946579E+03  0.7818608E-02  0.9432284E-01
         -2   -1    0    0    0  501 -0.00000000000E+00  0.00000000000E+00  0.47301616769E+03  0.47301616769E+03  0.00000000000E+00 0. -1.
          2   -1    0    0  501    0  0.00000000000E+00 -0.00000000000E+00 -0.42303667208E+03  0.42303667208E+03  0.00000000000E+00 0.  1.
         23    2    1    2    0    0 -0.29618246063E+03 -0.21896764275E+03 -0.22031338023E+03  0.43918402131E+03  0.93132918514E+02 0.  0.
         11    1    3    3    0    0 -0.91498493550E+02 -0.83138259392E+02 -0.26883052118E+02  0.12651736240E+03  0.00000000000E+00 0.  1.
        -11    1    3    3    0    0 -0.20468396708E+03 -0.13582938335E+03 -0.19343032812E+03  0.31266665891E+03  0.00000000000E+00 0. -1.
         22    1    1    2    0    0  0.29618246063E+03  0.21896764275E+03  0.27029287584E+03  0.45686881846E+03  0.00000000000E+00 0. -1.
<mgrwt>
<rscale>  0 0.89465789E+03</rscale>
<asrwt>0</asrwt>
<pdfrwt beam="1">  1        2 0.65082565E-01 0.89465789E+03</pdfrwt>
<pdfrwt beam="2">  1       -2 0.72771718E-01 0.89465789E+03</pdfrwt>
<totfact> 0.12793455E+02</totfact>
</mgrwt>
</event>
<event>
 6    1  0.2436515E-005  0.9134143E+03  0.7818608E-02  0.9408967E-01
         -2   -1    0    0    0  501 -0.00000000000E+00  0.00000000000E+00  0.61465562669E+02  0.61465562669E+02  0.00000000000E+00 0. -1.
          2   -1    0    0  501    0  0.00000000000E+00 -0.00000000000E+00 -0.33934680230E+04  0.33934680230E+04  0.00000000000E+00 0.  1.
         23    2    1    2    0    0 -0.18459313917E+03  0.15624035522E+03 -0.31271232882E+04  0.31379775149E+04  0.97555874486E+02 0.  0.
         11    1    3    3    0    0 -0.12522282010E+03  0.14310005195E+03 -0.26801366966E+04  0.26868738511E+04  0.00000000000E+00 0. -1.
        -11    1    3    3    0    0 -0.59370319076E+02  0.13140303277E+02 -0.44698659164E+03  0.45110366376E+03  0.00000000000E+00 0.  1.
         22    1    1    2    0    0  0.18459313917E+03 -0.15624035522E+03 -0.20487917209E+03  0.31695607075E+03  0.00000000000E+00 0. -1.
<mgrwt>
<rscale>  0 0.91341430E+03</rscale>
<asrwt>0</asrwt>
<pdfrwt beam="1">  1        2 0.52207198E+00 0.91341430E+03</pdfrwt>
<pdfrwt beam="2">  1       -2 0.94562408E-02 0.91341430E+03</pdfrwt>
<totfact> 0.75943438E+01</totfact>
</mgrwt>
</event>
<event>
 6    1  0.2436515E-005  0.6570770E+04  0.7818608E-02  0.7623398E-01
          2   -1    0    0  501    0  0.00000000000E+00  0.00000000000E+00  0.29454650669E+04  0.29454650669E+04  0.00000000000E+00 0.  1.
         -2   -1    0    0    0  501 -0.00000000000E+00 -0.00000000000E+00 -0.36645326796E+04  0.36645326796E+04  0.00000000000E+00 0. -1.
         23    2    1    2    0    0 -0.17432866597E+04  0.14248388582E+04  0.20464103852E+04  0.30438958541E+04  0.91062375855E+02 0.  0.
         11    1    3    3    0    0 -0.53063375446E+03  0.43605015312E+03  0.68149525739E+03  0.96754726151E+03  0.00000000000E+00 0. -1.
        -11    1    3    3    0    0 -0.12126529052E+04  0.98878870506E+03  0.13649151278E+04  0.20763485926E+04  0.00000000000E+00 0.  1.
         22    1    1    2    0    0  0.17432866597E+04 -0.14248388582E+04 -0.27654779979E+04  0.35661018923E+04  0.00000000000E+00 0. -1.
<mgrwt>
<rscale>  0 0.65707695E+04</rscale>
<asrwt>0</asrwt>
<pdfrwt beam="1">  1        2 0.45314847E+00 0.65707695E+04</pdfrwt>
<pdfrwt beam="2">  1       -2 0.56377426E+00 0.65707695E+04</pdfrwt>
<totfact> 0.90545892E-04</totfact>
</mgrwt>
</event>
<event>
 6    1  0.2436515E-005  0.2843580E+04  0.7818608E-02  0.8289865E-01
         -2   -1    0    0    0  501 -0.00000000000E+00  0.00000000000E+00  0.85716404931E+03  0.85716404931E+03  0.00000000000E+00 0. -1.
          2   -1    0    0  501    0  0.00000000000E+00 -0.00000000000E+00 -0.23583422874E+04  0.23583422874E+04  0.00000000000E+00 0.  1.
         23    2    1    2    0    0  0.37252008808E+03  0.67612855403E+03  0.59679394968E+03  0.98001794750E+03  0.91384470423E+02 0.  0.
         13    1    3    3    0    0  0.27690432662E+03  0.41730131075E+03  0.40323532834E+03  0.64297365426E+03  0.00000000000E+00 0. -1.
        -13    1    3    3    0    0  0.95615761463E+02  0.25882724328E+03  0.19355862134E+03  0.33704429323E+03  0.00000000000E+00 0.  1.
         22    1    1    2    0    0 -0.37252008808E+03 -0.67612855403E+03 -0.20979721877E+04  0.22354883892E+04  0.00000000000E+00 0.  1.
<mgrwt>
<rscale>  0 0.28435796E+04</rscale>
<asrwt>0</asrwt>
<pdfrwt beam="1">  1        2 0.36282189E+00 0.28435796E+04</pdfrwt>
<pdfrwt beam="2">  1       -2 0.13187139E+00 0.28435796E+04</pdfrwt>
<totfact> 0.15249248E+00</totfact>
</mgrwt>
</event>
<event>
 6    1  0.2436515E-005  0.6431798E+04  0.7818608E-02  0.7639054E-01
          1   -1    0    0  501    0  0.00000000000E+00  0.00000000000E+00  0.35174457768E+04  0.35174457768E+04  0.00000000000E+00 0. -1.
         -1   -1    0    0    0  501 -0.00000000000E+00 -0.00000000000E+00 -0.29402039528E+04  0.29402039528E+04  0.00000000000E+00 0.  1.
         23    2    1    2    0    0  0.82352881152E+03  0.22378256263E+04  0.24541555041E+04  0.34230380247E+04  0.90812130191E+02 0.  0.
         13    1    3    3    0    0  0.46996966520E+03  0.11862816986E+04  0.13595984781E+04  0.18645760313E+04  0.00000000000E+00 0. -1.
        -13    1    3    3    0    0  0.35355914631E+03  0.10515439276E+04  0.10945570260E+04  0.15584619934E+04  0.00000000000E+00 0.  1.
         22    1    1    2    0    0 -0.82352881152E+03 -0.22378256263E+04 -0.18769136802E+04  0.30346117050E+04  0.00000000000E+00 0.  1.
<mgrwt>
<rscale>  0 0.64317985E+04</rscale>
<asrwt>0</asrwt>
<pdfrwt beam="1">  1        1 0.54114550E+00 0.64317985E+04</pdfrwt>
<pdfrwt beam="2">  1       -1 0.45233907E+00 0.64317985E+04</pdfrwt>
<totfact> 0.48986471E-04</totfact>
</mgrwt>
</event>
<event>
 6    1  0.2436515E-005  0.2249555E+04  0.7818608E-02  0.8498081E-01
         -2   -1    0    0    0  501 -0.00000000000E+00  0.00000000000E+00  0.54141049414E+03  0.54141049414E+03  0.00000000000E+00 0. -1.
          2   -1    0    0  501    0  0.00000000000E+00 -0.00000000000E+00 -0.23367191930E+04  0.23367191930E+04  0.00000000000E+00 0.  1.
         23    2    1    2    0    0 -0.10751852521E+03 -0.10222904079E+04 -0.32169587856E+03  0.10814180644E+04  0.96637882848E+02 0.  0.
         11    1    3    3    0    0 -0.14902679573E+02 -0.57147335107E+03 -0.19592756617E+03  0.60431075783E+03  0.00000000000E+00 0. -1.
        -11    1    3    3    0    0 -0.92615845639E+02 -0.45081705678E+03 -0.12576831239E+03  0.47710730653E+03  0.00000000000E+00 0.  1.
         22    1    1    2    0    0  0.10751852521E+03  0.10222904079E+04 -0.14736128203E+04  0.17967116228E+04  0.00000000000E+00 0.  1.
<mgrwt>
<rscale>  0 0.22495549E+04</rscale>
<asrwt>0</asrwt>
<pdfrwt beam="1">  1        2 0.35949527E+00 0.22495549E+04</pdfrwt>
<pdfrwt beam="2">  1       -2 0.83293920E-01 0.22495549E+04</pdfrwt>
<totfact> 0.49625822E+00</totfact>
</mgrwt>
</event>
<event>
 6    1  0.5224622E-005  0.2772265E+04  0.7818608E-02  0.8311931E-01
         -2   -1    0    0    0  501 -0.00000000000E+00  0.00000000000E+00  0.10854569189E+04  0.10854569189E+04  0.00000000000E+00 0. -1.
          2   -1    0    0  501    0  0.00000000000E+00 -0.00000000000E+00 -0.17700969299E+04  0.17700969299E+04  0.00000000000E+00 0.  1.
         23    2    1    2    0    0 -0.10480500211E+03 -0.13804601305E+04 -0.31893335447E+03  0.14236335930E+04  0.91432281667E+02 0.  0.
         13    1    3    3    0    0 -0.12931947947E+02 -0.65636719385E+03 -0.12330728590E+03  0.66797441208E+03  0.00000000000E+00 0.  1.
        -13    1    3    3    0    0 -0.91873054162E+02 -0.72409293665E+03 -0.19562606857E+03  0.75565918091E+03  0.00000000000E+00 0. -1.
         22    1    1    2    0    0  0.10480500211E+03  0.13804601305E+04 -0.36570665654E+03  0.14319202558E+04  0.00000000000E+00 0. -1.
<mgrwt>
<rscale>  0 0.27722655E+04</rscale>
<asrwt>0</asrwt>
<pdfrwt beam="1">  1        2 0.27232261E+00 0.27722655E+04</pdfrwt>
<pdfrwt beam="2">  1       -2 0.16699337E+00 0.27722655E+04</pdfrwt>
<totfact> 0.17513873E+00</totfact>
</mgrwt>
</event>
<event>
 6    1  0.2436515E-005  0.4940201E+04  0.7818608E-02  0.7837799E-01
          2   -1    0    0  501    0  0.00000000000E+00  0.00000000000E+00  0.53377928229E+04  0.53377928229E+04  0.00000000000E+00 0.  1.
         -2   -1    0    0    0  501 -0.00000000000E+00 -0.00000000000E+00 -0.11430558765E+04  0.11430558765E+04  0.00000000000E+00 0. -1.
         23    2    1    2    0    0  0.49480791804E+03 -0.10881054626E+04  0.49325445941E+04  0.50761535373E+04  0.92359014057E+02 0.  0.
         11    1    3    3    0    0  0.19945325832E+03 -0.33966086633E+03  0.16820057493E+04  0.17275110555E+04  0.00000000000E+00 0. -1.
        -11    1    3    3    0    0  0.29535465973E+03 -0.74844459631E+03  0.32505388449E+04  0.33486424818E+04  0.00000000000E+00 0.  1.
         22    1    1    2    0    0 -0.49480791804E+03  0.10881054626E+04 -0.73780764767E+03  0.14046951621E+04  0.00000000000E+00 0. -1.
<mgrwt>
<rscale>  0 0.49402006E+04</rscale>
<asrwt>0</asrwt>
<pdfrwt beam="1">  1        2 0.82119888E+00 0.49402006E+04</pdfrwt>
<pdfrwt beam="2">  1       -2 0.17585475E+00 0.49402006E+04</pdfrwt>
<totfact> 0.15728615E-03</totfact>
</mgrwt>
</event>
<event>
 6    1  0.2436515E-005  0.1231660E+04  0.7818608E-02  0.9085587E-01
         -4   -1    0    0    0  501 -0.00000000000E+00  0.00000000000E+00  0.51603851380E+03  0.51603851380E+03  0.00000000000E+00 0. -1.
          4   -1    0    0  501    0  0.00000000000E+00 -0.00000000000E+00 -0.73491938311E+03  0.73491938311E+03  0.00000000000E+00 0.  1.
         23    2    1    2    0    0 -0.79917940336E+02 -0.14022398064E+03 -0.71009727763E+03  0.73390548009E+03  0.91265919556E+02 0.  0.
         13    1    3    3    0    0 -0.58291720418E+02 -0.35809772655E+02 -0.16754143037E+03  0.18097070309E+03  0.00000000000E+00 0.  1.
        -13    1    3    3    0    0 -0.21626219918E+02 -0.10441420799E+03 -0.54255584726E+03  0.55293477700E+03  0.00000000000E+00 0. -1.
         22    1    1    2    0    0  0.79917940336E+02  0.14022398064E+03  0.49121640832E+03  0.51705241682E+03  0.00000000000E+00 0. -1.
<mgrwt>
<rscale>  0 0.12316602E+04</rscale>
<asrwt>0</asrwt>
<pdfrwt beam="1">  1        4 0.11306452E+00 0.12316602E+04</pdfrwt>
<pdfrwt beam="2">  1       -4 0.79390540E-01 0.12316602E+04</pdfrwt>
<totfact> 0.17008201E+00</totfact>
</mgrwt>
</event>
<event>
 6    1  0.2436515E-005  0.1657251E+04  0.7818608E-02  0.8786128E-01
          2   -1    0    0  501    0  0.00000000000E+00  0.00000000000E+00  0.10898209636E+04  0.10898209636E+04  0.00000000000E+00 0. -1.
         -2   -1    0    0    0  501 -0.00000000000E+00 -0.00000000000E+00 -0.63003027677E+03  0.63003027677E+03  0.00000000000E+00 0.  1.
         23    2    1    2    0    0 -0.66176332614E+03  0.31923272959E+03  0.62225329974E+03  0.96736580128E+03  0.93579853500E+02 0.  0.
         11    1    3    3    0    0 -0.42279832147E+03  0.15422613321E+03  0.36650628428E+03  0.58040587283E+03  0.00000000000E+00 0.  1.
        -11    1    3    3    0    0 -0.23896500467E+03  0.16500659638E+03  0.25574701546E+03  0.38695992844E+03  0.00000000000E+00 0. -1.
         22    1    1    2    0    0  0.66176332614E+03 -0.31923272959E+03 -0.16246261290E+03  0.75248543910E+03  0.00000000000E+00 0.  1.
<mgrwt>
<rscale>  0 0.16572510E+04</rscale>
<asrwt>0</asrwt>
<pdfrwt beam="1">  1        2 0.16766476E+00 0.16572510E+04</pdfrwt>
<pdfrwt beam="2">  1       -2 0.96927735E-01 0.16572510E+04</pdfrwt>
<totfact> 0.18767388E+01</totfact>
</mgrwt>
</event>
<event>
 6    1  0.2436515E-005  0.2022409E+04  0.7818608E-02  0.8596215E-01
         -2   -1    0    0    0  501 -0.00000000000E+00  0.00000000000E+00  0.70366525012E+03  0.70366525012E+03  0.00000000000E+00 0. -1.
          2   -1    0    0  501    0  0.00000000000E+00 -0.00000000000E+00 -0.14531545258E+04  0.14531545258E+04  0.00000000000E+00 0.  1.
         23    2    1    2    0    0  0.16483993413E+03  0.43039289145E+02 -0.14362750071E+04  0.14492187406E+04  0.91238577359E+02 0.  0.
         13    1    3    3    0    0  0.50647969478E+02  0.58938351334E+02 -0.61516217383E+03  0.62005116417E+03  0.00000000000E+00 0. -1.
        -13    1    3    3    0    0  0.11419196465E+03 -0.15899062190E+02 -0.82111283324E+03  0.82916757648E+03  0.00000000000E+00 0.  1.
         22    1    1    2    0    0 -0.16483993413E+03 -0.43039289145E+02  0.68678573139E+03  0.70760103528E+03  0.00000000000E+00 0. -1.
<mgrwt>
<rscale>  0 0.20224088E+04</rscale>
<asrwt>0</asrwt>
<pdfrwt beam="1">  1        2 0.22356223E+00 0.20224088E+04</pdfrwt>
<pdfrwt beam="2">  1       -2 0.10825619E+00 0.20224088E+04</pdfrwt>
<totfact> 0.85476127E+00</totfact>
</mgrwt>
</event>
<event>
 6    1  0.2436515E-005  0.4647999E+04  0.7818608E-02  0.7885227E-01
          2   -1    0    0  501    0  0.00000000000E+00  0.00000000000E+00  0.23975146151E+04  0.23975146151E+04  0.00000000000E+00 0.  1.
         -2   -1    0    0    0  501 -0.00000000000E+00 -0.00000000000E+00 -0.22527389273E+04  0.22527389273E+04  0.00000000000E+00 0. -1.
         23    2    1    2    0    0 -0.76429109394E+03  0.20777829566E+04  0.77636976306E+03  0.23480298420E+04  0.95766585133E+02 0.  0.
         13    1    3    3    0    0 -0.26987098019E+03  0.60994593401E+03  0.24455500104E+03  0.71040237676E+03  0.00000000000E+00 0. -1.
        -13    1    3    3    0    0 -0.49442011376E+03  0.14678370226E+04  0.53181476201E+03  0.16376274652E+04  0.00000000000E+00 0.  1.
         22    1    1    2    0    0  0.76429109394E+03 -0.20777829566E+04 -0.63159407527E+03  0.23022237004E+04  0.00000000000E+00 0. -1.
<mgrwt>
<rscale>  0 0.46479994E+04</rscale>
<asrwt>0</asrwt>
<pdfrwt beam="1">  1        2 0.36884840E+00 0.46479994E+04</pdfrwt>
<pdfrwt beam="2">  1       -2 0.34657522E+00 0.46479994E+04</pdfrwt>
<totfact> 0.48829016E-02</totfact>
</mgrwt>
</event>
<event>
 6    1  0.2436515E-005  0.2404677E+04  0.7818608E-02  0.8437755E-01
         -2   -1    0    0    0  501 -0.00000000000E+00  0.00000000000E+00  0.99558326205E+03  0.99558326205E+03  0.00000000000E+00 0. -1.
          2   -1    0    0  501    0  0.00000000000E+00 -0.00000000000E+00 -0.14520310889E+04  0.14520310889E+04  0.00000000000E+00 0.  1.
         23    2    1    2    0    0  0.22794522821E+03 -0.41406988477E+03 -0.13519104423E+04  0.14350600600E+04  0.91228478959E+02 0.  0.
         13    1    3    3    0    0  0.14498764394E+03 -0.24294673332E+03 -0.67379316774E+03  0.73078161240E+03  0.00000000000E+00 0.  1.
        -13    1    3    3    0    0  0.82957584272E+02 -0.17112315144E+03 -0.67811727456E+03  0.70427844764E+03  0.00000000000E+00 0. -1.
         22    1    1    2    0    0 -0.22794522821E+03  0.41406988477E+03  0.89546261541E+03  0.10125542910E+04  0.00000000000E+00 0. -1.
<mgrwt>
<rscale>  0 0.24046770E+04</rscale>
<asrwt>0</asrwt>
<pdfrwt beam="1">  1        2 0.22338940E+00 0.24046770E+04</pdfrwt>
<pdfrwt beam="2">  1       -2 0.15316666E+00 0.24046770E+04</pdfrwt>
<totfact> 0.34432954E+00</totfact>
</mgrwt>
</event>
<event>
 6    1  0.2436515E-005  0.3090031E+04  0.7818608E-02  0.8218479E-01
          1   -1    0    0  501    0  0.00000000000E+00  0.00000000000E+00  0.10881717593E+04  0.10881717593E+04  0.00000000000E+00 0.  1.
         -1   -1    0    0    0  501 -0.00000000000E+00 -0.00000000000E+00 -0.21936542404E+04  0.21936542404E+04  0.00000000000E+00 0. -1.
         23    2    1    2    0    0 -0.13060097281E+04  0.25939022955E+03  0.27622385862E+03  0.13629572938E+04  0.91696583380E+02 0.  0.
         11    1    3    3    0    0 -0.14468838662E+03  0.30515921784E+02  0.17078143407E+01  0.14788126093E+03  0.00000000000E+00 0. -1.
        -11    1    3    3    0    0 -0.11613213415E+04  0.22887430777E+03  0.27451604428E+03  0.12150760329E+04  0.00000000000E+00 0.  1.
         22    1    1    2    0    0  0.13060097281E+04 -0.25939022955E+03 -0.13817063397E+04  0.19188687059E+04  0.00000000000E+00 0. -1.
<mgrwt>
<rscale>  0 0.30900308E+04</rscale>
<asrwt>0</asrwt>
<pdfrwt beam="1">  1        1 0.16741104E+00 0.30900308E+04</pdfrwt>
<pdfrwt beam="2">  1       -1 0.33748526E+00 0.30900308E+04</pdfrwt>
<totfact> 0.20540712E-01</totfact>
</mgrwt>
</event>
<event>
 6    1  0.2436515E-005  0.4441429E+04  0.7818608E-02  0.7920972E-01
         -2   -1    0    0    0  501 -0.00000000000E+00  0.00000000000E+00  0.19386466695E+04  0.19386466695E+04  0.00000000000E+00 0. -1.
          2   -1    0    0  501    0  0.00000000000E+00 -0.00000000000E+00 -0.25438226142E+04  0.25438226142E+04  0.00000000000E+00 0.  1.
         23    2    1    2    0    0 -0.87156982832E+03  0.68300135011E+03  0.16388899229E+04  0.19800791406E+04  0.92889256156E+02 0.  0.
         11    1    3    3    0    0 -0.29628725617E+03  0.19931597277E+03  0.46705306998E+03  0.58792139385E+03  0.00000000000E+00 0. -1.
        -11    1    3    3    0    0 -0.57528257215E+03  0.48368537734E+03  0.11718368529E+04  0.13921577468E+04  0.00000000000E+00 0.  1.
         22    1    1    2    0    0  0.87156982832E+03 -0.68300135011E+03 -0.22440658677E+04  0.25023901431E+04  0.00000000000E+00 0.  1.
<mgrwt>
<rscale>  0 0.44414292E+04</rscale>
<asrwt>0</asrwt>
<pdfrwt beam="1">  1        2 0.39135732E+00 0.44414292E+04</pdfrwt>
<pdfrwt beam="2">  1       -2 0.29825333E+00 0.44414292E+04</pdfrwt>
<totfact> 0.81408906E-02</totfact>
</mgrwt>
</event>
<event>
 6    1  0.2436515E-005  0.5639538E+04  0.7818608E-02  0.7736775E-01
         -2   -1    0    0    0  501 -0.00000000000E+00  0.00000000000E+00  0.22372228810E+04  0.22372228810E+04  0.00000000000E+00 0. -1.
          2   -1    0    0  501    0  0.00000000000E+00 -0.00000000000E+00 -0.35540037794E+04  0.35540037794E+04  0.00000000000E+00 0.  1.
         23    2    1    2    0    0  0.25125562316E+04 -0.76719214440E+03 -0.17086349060E+04  0.31350880784E+04  0.88438759038E+02 0.  0.
         11    1    3    3    0    0  0.16829667914E+04 -0.47890528421E+03 -0.11077918560E+04  0.20709732709E+04  0.00000000000E+00 0. -1.
        -11    1    3    3    0    0  0.82958944019E+03 -0.28828686019E+03 -0.60084304993E+03  0.10641148076E+04  0.00000000000E+00 0.  1.
         22    1    1    2    0    0 -0.25125562316E+04  0.76719214440E+03  0.39185400754E+03  0.26561385820E+04  0.00000000000E+00 0. -1.
<mgrwt>
<rscale>  0 0.56395385E+04</rscale>
<asrwt>0</asrwt>
<pdfrwt beam="1">  1        2 0.54676981E+00 0.56395385E+04</pdfrwt>
<pdfrwt beam="2">  1       -2 0.34418813E+00 0.56395385E+04</pdfrwt>
<totfact> 0.87043926E-03</totfact>
</mgrwt>
</event>
<event>
 6    1  0.2436515E-005  0.1855020E+04  0.7818608E-02  0.8677576E-01
          2   -1    0    0  501    0  0.00000000000E+00  0.00000000000E+00  0.52484796498E+03  0.52484796498E+03  0.00000000000E+00 0.  1.
         -2   -1    0    0    0  501 -0.00000000000E+00 -0.00000000000E+00 -0.16390930072E+04  0.16390930072E+04  0.00000000000E+00 0. -1.
         23    2    1    2    0    0  0.23454593944E+03  0.89215969938E+03 -0.63662337833E+03  0.11251516862E+04  0.98571112496E+02 0.  0.
         11    1    3    3    0    0  0.16673383817E+03  0.68102617986E+03 -0.43284746381E+03  0.82398650315E+03  0.00000000000E+00 0.  1.
        -11    1    3    3    0    0  0.67812101274E+02  0.21113351952E+03 -0.20377591452E+03  0.30116518305E+03  0.00000000000E+00 0. -1.
         22    1    1    2    0    0 -0.23454593944E+03 -0.89215969938E+03 -0.47762166393E+03  0.10387892860E+04  0.00000000000E+00 0.  1.
<mgrwt>
<rscale>  0 0.18550198E+04</rscale>
<asrwt>0</asrwt>
<pdfrwt beam="1">  1        2 0.80745841E-01 0.18550198E+04</pdfrwt>
<pdfrwt beam="2">  1       -2 0.25216815E+00 0.18550198E+04</pdfrwt>
<totfact> 0.34077560E+00</totfact>
</mgrwt>
</event>
<event>
 6    1  0.2436515E-005  0.2564817E+04  0.7818608E-02  0.8380251E-01
          2   -1    0    0  501    0  0.00000000000E+00  0.00000000000E+00  0.17908268260E+04  0.17908268260E+04  0.00000000000E+00 0.  1.
         -2   -1    0    0    0  501 -0.00000000000E+00 -0.00000000000E+00 -0.91833072273E+03  0.91833072273E+03  0.00000000000E+00 0. -1.
         23    2    1    2    0    0 -0.93498247740E+03 -0.20596580139E+03  0.13355255243E+04  0.16456678265E+04  0.89330984803E+02 0.  0.
         11    1    3    3    0    0 -0.54708241939E+03 -0.14191251883E+03  0.85299546727E+03  0.10232495315E+04  0.00000000000E+00 0. -1.
        -11    1    3    3    0    0 -0.38790005801E+03 -0.64053282560E+02  0.48253005703E+03  0.62241829499E+03  0.00000000000E+00 0.  1.
         22    1    1    2    0    0  0.93498247740E+03  0.20596580139E+03 -0.46302942105E+03  0.10634897222E+04  0.00000000000E+00 0. -1.
<mgrwt>
<rscale>  0 0.25648168E+04</rscale>
<asrwt>0</asrwt>
<pdfrwt beam="1">  1        2 0.27551182E+00 0.25648168E+04</pdfrwt>
<pdfrwt beam="2">  1       -2 0.14128165E+00 0.25648168E+04</pdfrwt>
<totfact> 0.27168729E+00</totfact>
</mgrwt>
</event>
<event>
 6    1  0.2436515E-005  0.3476439E+04  0.7818608E-02  0.8119396E-01
         -2   -1    0    0    0  501 -0.00000000000E+00  0.00000000000E+00  0.16466853184E+04  0.16466853184E+04  0.00000000000E+00 0. -1.
          2   -1    0    0  501    0  0.00000000000E+00 -0.00000000000E+00 -0.18348417132E+04  0.18348417132E+04  0.00000000000E+00 0.  1.
         23    2    1    2    0    0  0.31375162759E+03 -0.10820380010E+04 -0.14182174829E+04  0.18135052691E+04  0.90632294826E+02 0.  0.
         11    1    3    3    0    0  0.70418100000E+02 -0.14392162551E+03 -0.17725544828E+03  0.23893856332E+03  0.00000000000E+00 0. -1.
        -11    1    3    3    0    0  0.24333352759E+03 -0.93811637547E+03 -0.12409620347E+04  0.15745667058E+04  0.00000000000E+00 0.  1.
         22    1    1    2    0    0 -0.31375162759E+03  0.10820380010E+04  0.12300610881E+04  0.16680217624E+04  0.00000000000E+00 0. -1.
<mgrwt>
<rscale>  0 0.34764389E+04</rscale>
<asrwt>0</asrwt>
<pdfrwt beam="1">  1        2 0.28228334E+00 0.34764389E+04</pdfrwt>
<pdfrwt beam="2">  1       -2 0.25333620E+00 0.34764389E+04</pdfrwt>
<totfact> 0.41650626E-01</totfact>
</mgrwt>
</event>
<event>
 6    1  0.2436515E-005  0.6870859E+04  0.7818608E-02  0.7590902E-01
         -2   -1    0    0    0  501 -0.00000000000E+00  0.00000000000E+00  0.29629081890E+04  0.29629081890E+04  0.00000000000E+00 0. -1.
          2   -1    0    0  501    0  0.00000000000E+00 -0.00000000000E+00 -0.39833079339E+04  0.39833079339E+04  0.00000000000E+00 0.  1.
         23    2    1    2    0    0 -0.26412852115E+04 -0.86486515942E+03 -0.25507826822E+04  0.37734489951E+04  0.89697905344E+02 0.  0.
         11    1    3    3    0    0 -0.10676159720E+04 -0.31709774071E+03 -0.10644795419E+04  0.15406075217E+04  0.00000000000E+00 0.  1.
        -11    1    3    3    0    0 -0.15736692395E+04 -0.54776741871E+03 -0.14863031404E+04  0.22328414734E+04  0.00000000000E+00 0. -1.
         22    1    1    2    0    0  0.26412852115E+04  0.86486515942E+03  0.15303829373E+04  0.31727671278E+04  0.00000000000E+00 0. -1.
<mgrwt>
<rscale>  0 0.68708590E+04</rscale>
<asrwt>0</asrwt>
<pdfrwt beam="1">  1        2 0.61281660E+00 0.68708590E+04</pdfrwt>
<pdfrwt beam="2">  1       -2 0.45583203E+00 0.68708590E+04</pdfrwt>
<totfact> 0.70660785E-04</totfact>
</mgrwt>
</event>
<event>
 6    1  0.2436515E-005  0.8135763E+03  0.7818608E-02  0.9540571E-01
         -1   -1    0    0    0  501 -0.00000000000E+00  0.00000000000E+00  0.12601809069E+03  0.12601809069E+03  0.00000000000E+00 0. -1.
          1   -1    0    0  501    0  0.00000000000E+00 -0.00000000000E+00 -0.13131178117E+04  0.13131178117E+04  0.00000000000E+00 0.  1.
         23    2    1    2    0    0  0.23273585202E+03  0.80186540975E+02 -0.11626315153E+04  0.11917605777E+04  0.89360932266E+02 0.  0.
         11    1    3    3    0    0  0.62555311427E+02 -0.18398184204E+02 -0.28737867227E+03  0.29468315433E+03  0.00000000000E+00 0. -1.
        -11    1    3    3    0    0  0.17018054059E+03  0.98584725179E+02 -0.87525284299E+03  0.89707742341E+03  0.00000000000E+00 0.  1.
         22    1    1    2    0    0 -0.23273585202E+03 -0.80186540975E+02 -0.24468205793E+02  0.24737532469E+03  0.00000000000E+00 0. -1.
<mgrwt>
<rscale>  0 0.81357630E+03</rscale>
<asrwt>0</asrwt>
<pdfrwt beam="1">  1        1 0.20201813E+00 0.81357630E+03</pdfrwt>
<pdfrwt beam="2">  1       -1 0.19387398E-01 0.81357630E+03</pdfrwt>
<totfact> 0.19296660E+02</totfact>
</mgrwt>
</event>
<event>
 6    1  0.2436515E-005  0.1046046E+04  0.7818608E-02  0.9259436E-01
          2   -1    0    0  501    0  0.00000000000E+00  0.00000000000E+00  0.17830419779E+04  0.17830419779E+04  0.00000000000E+00 0.  1.
         -2   -1    0    0    0  501 -0.00000000000E+00 -0.00000000000E+00 -0.15341926811E+03  0.15341926811E+03  0.00000000000E+00 0. -1.
         23    2    1    2    0    0  0.16421838734E+02 -0.30233479073E+03  0.16014134499E+04  0.16323695414E+04  0.91811108114E+02 0.  0.
         11    1    3    3    0    0  0.15027942202E+02 -0.35014409613E+02  0.38755917843E+03  0.38942774004E+03  0.00000000000E+00 0.  1.
        -11    1    3    3    0    0  0.13938965326E+01 -0.26732038112E+03  0.12138542715E+04  0.12429418014E+04  0.00000000000E+00 0. -1.
         22    1    1    2    0    0 -0.16421838734E+02  0.30233479073E+03  0.28209259858E+02  0.30409170461E+03  0.00000000000E+00 0. -1.
<mgrwt>
<rscale>  0 0.10460459E+04</rscale>
<asrwt>0</asrwt>
<pdfrwt beam="1">  1        2 0.27431414E+00 0.10460459E+04</pdfrwt>
<pdfrwt beam="2">  1       -2 0.23602966E-01 0.10460459E+04</pdfrwt>
<totfact> 0.13989764E+02</totfact>
</mgrwt>
</event>
<event>
 6    1  0.2436515E-005  0.6155660E+03  0.7818608E-02  0.9873628E-01
          2   -1    0    0  501    0  0.00000000000E+00  0.00000000000E+00  0.41428628462E+03  0.41428628462E+03  0.00000000000E+00 0.  1.
         -2   -1    0    0    0  501 -0.00000000000E+00 -0.00000000000E+00 -0.22865919219E+03  0.22865919219E+03  0.00000000000E+00 0. -1.
         23    2    1    2    0    0  0.22793421735E+03 -0.16166492403E+03 -0.23602675876E+02  0.29385143354E+03  0.87761173568E+02 0.  0.
         13    1    3    3    0    0  0.21714648708E+03 -0.17248383469E+03 -0.25364576215E+02  0.27847195874E+03  0.00000000000E+00 0.  1.
        -13    1    3    3    0    0  0.10787730274E+02  0.10818910661E+02  0.17619003389E+01  0.15379474801E+02  0.00000000000E+00 0. -1.
         22    1    1    2    0    0 -0.22793421735E+03  0.16166492403E+03  0.20922976831E+03  0.34909404327E+03  0.00000000000E+00 0.  1.
<mgrwt>
<rscale>  0 0.61556597E+03</rscale>
<asrwt>0</asrwt>
<pdfrwt beam="1">  1        2 0.63736351E-01 0.61556597E+03</pdfrwt>
<pdfrwt beam="2">  1       -2 0.35178337E-01 0.61556597E+03</pdfrwt>
<totfact> 0.58375981E+02</totfact>
</mgrwt>
</event>
<event>
 6    1  0.2436515E-005  0.3484099E+04  0.7818608E-02  0.8117569E-01
         -2   -1    0    0    0  501 -0.00000000000E+00  0.00000000000E+00  0.16785683114E+04  0.16785683114E+04  0.00000000000E+00 0. -1.
          2   -1    0    0  501    0  0.00000000000E+00 -0.00000000000E+00 -0.18079315440E+04  0.18079315440E+04  0.00000000000E+00 0.  1.
         23    2    1    2    0    0 -0.90881821990E+03  0.88889553407E+02 -0.15479153256E+04  0.17994485966E+04  0.90119294432E+02 0.  0.
         11    1    3    3    0    0 -0.72267864613E+03  0.10656417112E+03 -0.12205615197E+04  0.14224594095E+04  0.00000000000E+00 0. -1.
        -11    1    3    3    0    0 -0.18613957377E+03 -0.17674617710E+02 -0.32735380582E+03  0.37698918714E+03  0.00000000000E+00 0.  1.
         22    1    1    2    0    0  0.90881821990E+03 -0.88889553407E+02  0.14185520929E+04  0.16870512588E+04  0.00000000000E+00 0. -1.
<mgrwt>
<rscale>  0 0.34840991E+04</rscale>
<asrwt>0</asrwt>
<pdfrwt beam="1">  1        2 0.27814331E+00 0.34840991E+04</pdfrwt>
<pdfrwt beam="2">  1       -2 0.25824128E+00 0.34840991E+04</pdfrwt>
<totfact> 0.40197222E-01</totfact>
</mgrwt>
</event>
<event>
 6    1  0.2436515E-005  0.1050224E+04  0.7818608E-02  0.9255113E-01
          2   -1    0    0  501    0  0.00000000000E+00  0.00000000000E+00  0.19400356395E+03  0.19400356395E+03  0.00000000000E+00 0.  1.
         -2   -1    0    0    0  501 -0.00000000000E+00 -0.00000000000E+00 -0.14213280581E+04  0.14213280581E+04  0.00000000000E+00 0. -1.
         23    2    1    2    0    0 -0.25891591448E+02  0.15009625654E+03 -0.13848378438E+04  0.13962204264E+04  0.91958494192E+02 0.  0.
         11    1    3    3    0    0 -0.22873955873E+02  0.30427821146E+02 -0.69738360266E+03  0.69842176328E+03  0.00000000000E+00 0.  1.
        -11    1    3    3    0    0 -0.30176355753E+01  0.11966843540E+03 -0.68745424113E+03  0.69779866308E+03  0.00000000000E+00 0. -1.
         22    1    1    2    0    0  0.25891591448E+02 -0.15009625654E+03  0.15751334968E+03  0.21911119566E+03  0.00000000000E+00 0.  1.
<mgrwt>
<rscale>  0 0.10502242E+04</rscale>
<asrwt>0</asrwt>
<pdfrwt beam="1">  1        2 0.29846703E-01 0.10502242E+04</pdfrwt>
<pdfrwt beam="2">  1       -2 0.21866585E+00 0.10502242E+04</pdfrwt>
<totfact> 0.18008721E+01</totfact>
</mgrwt>
</event>
<event>
 6    1  0.2436515E-005  0.2156350E+04  0.7818608E-02  0.8536819E-01
         -2   -1    0    0    0  501 -0.00000000000E+00  0.00000000000E+00  0.42656522404E+03  0.42656522404E+03  0.00000000000E+00 0. -1.
          2   -1    0    0  501    0  0.00000000000E+00 -0.00000000000E+00 -0.27251668403E+04  0.27251668403E+04  0.00000000000E+00 0.  1.
         23    2    1    2    0    0 -0.97988767029E+03  0.14961976757E+03 -0.17640497099E+04  0.20255386254E+04  0.91484550678E+02 0.  0.
         13    1    3    3    0    0 -0.45558334925E+03  0.11405899384E+03 -0.85754156017E+03  0.97772346274E+03  0.00000000000E+00 0.  1.
        -13    1    3    3    0    0 -0.52430432104E+03  0.35560773734E+02 -0.90650814972E+03  0.10478151627E+04  0.00000000000E+00 0. -1.
         22    1    1    2    0    0  0.97988767029E+03 -0.14961976757E+03 -0.53455190639E+03  0.11261934389E+04  0.00000000000E+00 0. -1.
<mgrwt>
<rscale>  0 0.21563501E+04</rscale>
<asrwt>0</asrwt>
<pdfrwt beam="1">  1        2 0.41925644E+00 0.21563501E+04</pdfrwt>
<pdfrwt beam="2">  1       -2 0.65625419E-01 0.21563501E+04</pdfrwt>
<totfact> 0.50353606E+00</totfact>
</mgrwt>
</event>
<event>
 6    1  0.2436515E-005  0.2476536E+04  0.7818608E-02  0.8411393E-01
         -2   -1    0    0    0  501 -0.00000000000E+00  0.00000000000E+00  0.61294725437E+03  0.61294725437E+03  0.00000000000E+00 0. -1.
          2   -1    0    0  501    0  0.00000000000E+00 -0.00000000000E+00 -0.25015333756E+04  0.25015333756E+04  0.00000000000E+00 0.  1.
         23    2    1    2    0    0 -0.69881972834E+03 -0.10201141028E+04 -0.92313776877E+03  0.15457001110E+04  0.89575093873E+02 0.  0.
         13    1    3    3    0    0 -0.20394638656E+02 -0.20291287211E+02 -0.39175051879E+02  0.48604138839E+02  0.00000000000E+00 0. -1.
        -13    1    3    3    0    0 -0.67842508969E+03 -0.99982281562E+03 -0.88396271689E+03  0.14970959721E+04  0.00000000000E+00 0.  1.
         22    1    1    2    0    0  0.69881972834E+03  0.10201141028E+04 -0.96544835246E+03  0.15687805190E+04  0.00000000000E+00 0. -1.
<mgrwt>
<rscale>  0 0.24765363E+04</rscale>
<asrwt>0</asrwt>
<pdfrwt beam="1">  1        2 0.38485128E+00 0.24765363E+04</pdfrwt>
<pdfrwt beam="2">  1       -2 0.94299580E-01 0.24765363E+04</pdfrwt>
<totfact> 0.29432988E+00</totfact>
</mgrwt>
</event>
<event>
 6    1  0.2436515E-005  0.1026033E+04  0.7818608E-02  0.9280445E-01
         -1   -1    0    0    0  501 -0.00000000000E+00  0.00000000000E+00  0.11570007888E+04  0.11570007888E+04  0.00000000000E+00 0. -1.
          1   -1    0    0  501    0  0.00000000000E+00 -0.00000000000E+00 -0.22747241824E+03  0.22747241824E+03  0.00000000000E+00 0.  1.
         23    2    1    2    0    0  0.17085215458E+03 -0.30757240422E+03  0.96473600394E+03  0.10308762330E+04  0.90548373351E+02 0.  0.
         13    1    3    3    0    0  0.15168703398E+03 -0.29302584729E+03  0.81567169010E+03  0.87988261120E+03  0.00000000000E+00 0. -1.
        -13    1    3    3    0    0  0.19165120601E+02 -0.14546556927E+02  0.14906431384E+03  0.15099362180E+03  0.00000000000E+00 0.  1.
         22    1    1    2    0    0 -0.17085215458E+03  0.30757240422E+03 -0.35207633418E+02  0.35359697399E+03  0.00000000000E+00 0.  1.
<mgrwt>
<rscale>  0 0.10260327E+04</rscale>
<asrwt>0</asrwt>
<pdfrwt beam="1">  1        1 0.34995757E-01 0.10260327E+04</pdfrwt>
<pdfrwt beam="2">  1       -1 0.17800012E+00 0.10260327E+04</pdfrwt>
<totfact> 0.27106855E+01</totfact>
</mgrwt>
</event>
<event>
 6    1  0.2436515E-005  0.3885522E+04  0.7818608E-02  0.8028047E-01
         -2   -1    0    0    0  501 -0.00000000000E+00  0.00000000000E+00  0.16584170827E+04  0.16584170827E+04  0.00000000000E+00 0. -1.
          2   -1    0    0  501    0  0.00000000000E+00 -0.00000000000E+00 -0.22758575691E+04  0.22758575691E+04  0.00000000000E+00 0.  1.
         23    2    1    2    0    0  0.15002888478E+04 -0.58871891809E+03  0.78750353972E+03  0.17962090991E+04  0.93534545298E+02 0.  0.
         13    1    3    3    0    0  0.37029595837E+03 -0.10383548561E+03  0.17677686206E+03  0.42326228726E+03  0.00000000000E+00 0. -1.
        -13    1    3    3    0    0  0.11299928894E+04 -0.48488343248E+03  0.61072667767E+03  0.13729468118E+04  0.00000000000E+00 0.  1.
         22    1    1    2    0    0 -0.15002888478E+04  0.58871891809E+03 -0.14049440261E+04  0.21380655528E+04  0.00000000000E+00 0. -1.
<mgrwt>
<rscale>  0 0.38855224E+04</rscale>
<asrwt>0</asrwt>
<pdfrwt beam="1">  1        2 0.35013193E+00 0.38855224E+04</pdfrwt>
<pdfrwt beam="2">  1       -2 0.25514109E+00 0.38855224E+04</pdfrwt>
<totfact> 0.22261439E-01</totfact>
</mgrwt>
</event>
<event>
 6    1  0.2436515E-005  0.3425703E+04  0.7818608E-02  0.8131627E-01
         -2   -1    0    0    0  501 -0.00000000000E+00  0.00000000000E+00  0.14370350520E+04  0.14370350520E+04  0.00000000000E+00 0. -1.
          2   -1    0    0  501    0  0.00000000000E+00 -0.00000000000E+00 -0.20416064540E+04  0.20416064540E+04  0.00000000000E+00 0.  1.
         23    2    1    2    0    0  0.56878530904E+03  0.85560821009E+03 -0.16926142564E+04  0.19821725322E+04  0.92102059557E+02 0.  0.
         11    1    3    3    0    0  0.67714270604E+02  0.14416371315E+03 -0.21871092745E+03  0.27056028611E+03  0.00000000000E+00 0.  1.
        -11    1    3    3    0    0  0.50107103844E+03  0.71144449693E+03 -0.14739033289E+04  0.17116122460E+04  0.00000000000E+00 0. -1.
         22    1    1    2    0    0 -0.56878530904E+03 -0.85560821009E+03  0.10880428543E+04  0.14964689739E+04  0.00000000000E+00 0. -1.
<mgrwt>
<rscale>  0 0.34257029E+04</rscale>
<asrwt>0</asrwt>
<pdfrwt beam="1">  1        2 0.31409330E+00 0.34257029E+04</pdfrwt>
<pdfrwt beam="2">  1       -2 0.22108232E+00 0.34257029E+04</pdfrwt>
<totfact> 0.50946106E-01</totfact>
</mgrwt>
</event>
<event>
 6    1  0.2436515E-005  0.2847346E+04  0.7818608E-02  0.8288718E-01
          2   -1    0    0  501    0  0.00000000000E+00  0.00000000000E+00  0.33157771253E+04  0.33157771253E+04  0.00000000000E+00 0.  1.
         -2   -1    0    0    0  501 -0.00000000000E+00 -0.00000000000E+00 -0.61127300413E+03  0.61127300413E+03  0.00000000000E+00 0. -1.
         23    2    1    2    0    0 -0.89544182215E+03  0.92410890098E+03  0.21890559534E+04  0.25408754898E+04  0.91043782059E+02 0.  0.
         11    1    3    3    0    0 -0.75281279919E+03  0.81847690202E+03  0.18635964484E+04  0.21701666462E+04  0.00000000000E+00 0.  1.
        -11    1    3    3    0    0 -0.14262902296E+03  0.10563199895E+03  0.32545950497E+03  0.37070884366E+03  0.00000000000E+00 0. -1.
         22    1    1    2    0    0  0.89544182215E+03 -0.92410890098E+03  0.51544816780E+03  0.13861746396E+04  0.00000000000E+00 0. -1.
<mgrwt>
<rscale>  0 0.28473462E+04</rscale>
<asrwt>0</asrwt>
<pdfrwt beam="1">  1        2 0.51011955E+00 0.28473462E+04</pdfrwt>
<pdfrwt beam="2">  1       -2 0.94042002E-01 0.28473462E+04</pdfrwt>
<totfact> 0.89888311E-01</totfact>
</mgrwt>
</event>
<event>
 6    1  0.2436515E-005  0.3002784E+04  0.7818608E-02  0.8242936E-01
         -2   -1    0    0    0  501 -0.00000000000E+00  0.00000000000E+00  0.14339453553E+04  0.14339453553E+04  0.00000000000E+00 0. -1.
          2   -1    0    0  501    0  0.00000000000E+00 -0.00000000000E+00 -0.15720109252E+04  0.15720109252E+04  0.00000000000E+00 0.  1.
         23    2    1    2    0    0  0.12375170956E+04  0.61435503769E+03  0.51571604992E+03  0.14774566630E+04  0.89635221107E+02 0.  0.
         13    1    3    3    0    0  0.40231684012E+03  0.15889398315E+03  0.18230986927E+03  0.46940710067E+03  0.00000000000E+00 0.  1.
        -13    1    3    3    0    0  0.83520025544E+03  0.45546105454E+03  0.33340618064E+03  0.10080495624E+04  0.00000000000E+00 0. -1.
         22    1    1    2    0    0 -0.12375170956E+04 -0.61435503769E+03 -0.65378161989E+03  0.15284996175E+04  0.00000000000E+00 0.  1.
<mgrwt>
<rscale>  0 0.30027839E+04</rscale>
<asrwt>0</asrwt>
<pdfrwt beam="1">  1        2 0.24184783E+00 0.30027839E+04</pdfrwt>
<pdfrwt beam="2">  1       -2 0.22060698E+00 0.30027839E+04</pdfrwt>
<totfact> 0.96944270E-01</totfact>
</mgrwt>
</event>
<event>
 6    1  0.2436515E-005  0.3896798E+04  0.7818608E-02  0.8025696E-01
         -2   -1    0    0    0  501 -0.00000000000E+00  0.00000000000E+00  0.12983914655E+04  0.12983914655E+04  0.00000000000E+00 0. -1.
          2   -1    0    0  501    0  0.00000000000E+00 -0.00000000000E+00 -0.29238160800E+04  0.29238160800E+04  0.00000000000E+00 0.  1.
         23    2    1    2    0    0 -0.13228319352E+04  0.12816793249E+04 -0.14978939626E+04  0.23759003425E+04  0.92897221436E+02 0.  0.
         11    1    3    3    0    0 -0.90911609112E+03  0.87057167161E+03 -0.10777880784E+04  0.16571102089E+04  0.00000000000E+00 0. -1.
        -11    1    3    3    0    0 -0.41371584408E+03  0.41110765328E+03 -0.42010588419E+03  0.71879013360E+03  0.00000000000E+00 0.  1.
         22    1    1    2    0    0  0.13228319352E+04 -0.12816793249E+04 -0.12753065198E+03  0.18463072030E+04  0.00000000000E+00 0.  1.
<mgrwt>
<rscale>  0 0.38967976E+04</rscale>
<asrwt>0</asrwt>
<pdfrwt beam="1">  1        2 0.44981786E+00 0.38967976E+04</pdfrwt>
<pdfrwt beam="2">  1       -2 0.19975253E+00 0.38967976E+04</pdfrwt>
<totfact> 0.20615220E-01</totfact>
</mgrwt>
</event>
<event>
 6    1  0.2436515E-005  0.2247137E+04  0.7818608E-02  0.8499061E-01
          2   -1    0    0  501    0  0.00000000000E+00  0.00000000000E+00  0.63223274130E+03  0.63223274130E+03  0.00000000000E+00 0.  1.
         -2   -1    0    0    0  501 -0.00000000000E+00 -0.00000000000E+00 -0.19967430063E+04  0.19967430063E+04  0.00000000000E+00 0. -1.
         23    2    1    2    0    0 -0.63711602955E+03 -0.88956164218E+03 -0.39557620438E+03  0.11674457396E+04  0.95980577084E+02 0.  0.
         13    1    3    3    0    0 -0.43136019681E+03 -0.66435305280E+03 -0.31012540190E+03  0.85065525511E+03  0.00000000000E+00 0.  1.
        -13    1    3    3    0    0 -0.20575583275E+03 -0.22520858938E+03 -0.85450802486E+02  0.31679048453E+03  0.00000000000E+00 0. -1.
         22    1    1    2    0    0  0.63711602955E+03  0.88956164218E+03 -0.96893406063E+03  0.14615300080E+04  0.00000000000E+00 0.  1.
<mgrwt>
<rscale>  0 0.22471371E+04</rscale>
<asrwt>0</asrwt>
<pdfrwt beam="1">  1        2 0.97266575E-01 0.22471371E+04</pdfrwt>
<pdfrwt beam="2">  1       -2 0.30719123E+00 0.22471371E+04</pdfrwt>
<totfact> 0.12171802E+00</totfact>
</mgrwt>
</event>
<event>
 6    1  0.2436515E-005  0.2968062E+04  0.7818608E-02  0.8252910E-01
          2   -1    0    0  501    0  0.00000000000E+00  0.00000000000E+00  0.21988868770E+04  0.21988868770E+04  0.00000000000E+00 0.  1.
         -2   -1    0    0    0  501 -0.00000000000E+00 -0.00000000000E+00 -0.10015737022E+04  0.10015737022E+04  0.00000000000E+00 0. -1.
         23    2    1    2    0    0  0.49139057347E+03  0.13893272429E+04  0.42415399608E+03  0.15362881125E+04  0.92626501083E+02 0.  0.
         11    1    3    3    0    0  0.35831985007E+03  0.89893769699E+03  0.30102998759E+03  0.10134599901E+04  0.00000000000E+00 0. -1.
        -11    1    3    3    0    0  0.13307072340E+03  0.49038954587E+03  0.12312400849E+03  0.52282812242E+03  0.00000000000E+00 0.  1.
         22    1    1    2    0    0 -0.49139057347E+03 -0.13893272429E+04  0.77315917869E+03  0.16641724667E+04  0.00000000000E+00 0. -1.
<mgrwt>
<rscale>  0 0.29680615E+04</rscale>
<asrwt>0</asrwt>
<pdfrwt beam="1">  1        2 0.33829029E+00 0.29680615E+04</pdfrwt>
<pdfrwt beam="2">  1       -2 0.15408826E+00 0.29680615E+04</pdfrwt>
<totfact> 0.12378098E+00</totfact>
</mgrwt>
</event>
<event>
 6    1  0.2436515E-005  0.1987798E+04  0.7818608E-02  0.8612347E-01
          2   -1    0    0  501    0  0.00000000000E+00  0.00000000000E+00  0.14217668320E+04  0.14217668320E+04  0.00000000000E+00 0.  1.
         -2   -1    0    0    0  501 -0.00000000000E+00 -0.00000000000E+00 -0.69479404222E+03  0.69479404222E+03  0.00000000000E+00 0. -1.
         23    2    1    2    0    0 -0.17181757710E+03  0.74578027066E+03 -0.30768357685E+03  0.82961748429E+03  0.88805939392E+02 0.  0.
         11    1    3    3    0    0 -0.93828861724E+01  0.15091743462E+03 -0.88360742692E+02  0.17513346760E+03  0.00000000000E+00 0. -1.
        -11    1    3    3    0    0 -0.16243469092E+03  0.59486283604E+03 -0.21932283416E+03  0.65448401669E+03  0.00000000000E+00 0.  1.
         22    1    1    2    0    0  0.17181757710E+03 -0.74578027066E+03  0.10346563667E+04  0.12869433900E+04  0.00000000000E+00 0.  1.
<mgrwt>
<rscale>  0 0.19877979E+04</rscale>
<asrwt>0</asrwt>
<pdfrwt beam="1">  1        2 0.21873336E+00 0.19877979E+04</pdfrwt>
<pdfrwt beam="2">  1       -2 0.10689139E+00 0.19877979E+04</pdfrwt>
<totfact> 0.92097696E+00</totfact>
</mgrwt>
</event>
<event>
 6    1  0.2436515E-005  0.2579446E+04  0.7818608E-02  0.8375216E-01
          2   -1    0    0  501    0  0.00000000000E+00  0.00000000000E+00  0.72466853587E+03  0.72466853587E+03  0.00000000000E+00 0.  1.
         -2   -1    0    0    0  501 -0.00000000000E+00 -0.00000000000E+00 -0.22953746793E+04  0.22953746793E+04  0.00000000000E+00 0. -1.
         23    2    1    2    0    0 -0.10603563418E+04  0.25787837605E+02 -0.16420534266E+04  0.19569764162E+04  0.91633257971E+02 0.  0.
         11    1    3    3    0    0 -0.33141114110E+03 -0.72433587269E+01 -0.44206555883E+03  0.55254662155E+03  0.00000000000E+00 0.  1.
        -11    1    3    3    0    0 -0.72894520067E+03  0.33031196331E+02 -0.11999878677E+04  0.14044297947E+04  0.00000000000E+00 0. -1.
         22    1    1    2    0    0  0.10603563418E+04 -0.25787837605E+02  0.71347283149E+02  0.10630667989E+04  0.00000000000E+00 0.  1.
<mgrwt>
<rscale>  0 0.25794463E+04</rscale>
<asrwt>0</asrwt>
<pdfrwt beam="1">  1        2 0.11148747E+00 0.25794463E+04</pdfrwt>
<pdfrwt beam="2">  1       -2 0.35313456E+00 0.25794463E+04</pdfrwt>
<totfact> 0.51650239E-01</totfact>
</mgrwt>
</event>
<event>
 6    1  0.2436515E-005  0.4141201E+03  0.7818608E-02  0.1038997E+00
          2   -1    0    0  501    0  0.00000000000E+00  0.00000000000E+00  0.21540972905E+04  0.21540972905E+04  0.00000000000E+00 0.  1.
         -2   -1    0    0    0  501 -0.00000000000E+00 -0.00000000000E+00 -0.19903399170E+02  0.19903399170E+02  0.00000000000E+00 0. -1.
         23    2    1    2    0    0 -0.14463119781E+03 -0.12008223348E+03  0.14185739019E+04  0.14341021186E+04  0.94652233429E+02 0.  0.
         11    1    3    3    0    0 -0.78612844867E+02 -0.11507140655E+03  0.80584727577E+03  0.81780880397E+03  0.00000000000E+00 0. -1.
        -11    1    3    3    0    0 -0.66018352938E+02 -0.50108269332E+01  0.61272662611E+03  0.61629331463E+03  0.00000000000E+00 0.  1.
         22    1    1    2    0    0  0.14463119781E+03  0.12008223348E+03  0.71561998949E+03  0.73989857111E+03  0.00000000000E+00 0. -1.
<mgrwt>
<rscale>  0 0.41412007E+03</rscale>
<asrwt>0</asrwt>
<pdfrwt beam="1">  1        2 0.33139940E+00 0.41412007E+03</pdfrwt>
<pdfrwt beam="2">  1       -2 0.30620631E-02 0.41412007E+03</pdfrwt>
<totfact> 0.25096070E+03</totfact>
</mgrwt>
</event>
<event>
 6    1  0.2436515E-005  0.2549053E+04  0.7818608E-02  0.8385715E-01
         -2   -1    0    0    0  501 -0.00000000000E+00  0.00000000000E+00  0.94494893714E+03  0.94494893714E+03  0.00000000000E+00 0.  1.
          2   -1    0    0  501    0  0.00000000000E+00 -0.00000000000E+00 -0.17190540073E+04  0.17190540073E+04  0.00000000000E+00 0. -1.
         23    2    1    2    0    0  0.74158546505E+03  0.86130971275E+03  0.21158903161E+03  0.11595441429E+04  0.89270811439E+02 0.  0.
         13    1    3    3    0    0  0.56021295909E+03  0.58879899282E+03  0.15106791866E+03  0.82664643562E+03  0.00000000000E+00 0.  1.
        -13    1    3    3    0    0  0.18137250596E+03  0.27251071994E+03  0.60521112954E+02  0.33289770728E+03  0.00000000000E+00 0. -1.
         22    1    1    2    0    0 -0.74158546505E+03 -0.86130971275E+03 -0.98569410174E+03  0.15044588015E+04  0.00000000000E+00 0. -1.
<mgrwt>
<rscale>  0 0.25490534E+04</rscale>
<asrwt>0</asrwt>
<pdfrwt beam="1">  1        2 0.26446984E+00 0.25490534E+04</pdfrwt>
<pdfrwt beam="2">  1       -2 0.14537676E+00 0.25490534E+04</pdfrwt>
<totfact> 0.27671348E+00</totfact>
</mgrwt>
</event>
<event>
 6    1  0.2436515E-005  0.2953861E+04  0.7818608E-02  0.8257030E-01
         -2   -1    0    0    0  501 -0.00000000000E+00  0.00000000000E+00  0.12865373231E+04  0.12865373231E+04  0.00000000000E+00 0. -1.
          2   -1    0    0  501    0  0.00000000000E+00 -0.00000000000E+00 -0.16954992344E+04  0.16954992344E+04  0.00000000000E+00 0.  1.
         23    2    1    2    0    0  0.98593297450E+03  0.27702566101E+03 -0.12770252764E+04  0.16395235955E+04  0.91853234558E+02 0.  0.
         11    1    3    3    0    0  0.82958773392E+03  0.19772834475E+03 -0.10509342454E+04  0.13534308607E+04  0.00000000000E+00 0. -1.
        -11    1    3    3    0    0  0.15634524058E+03  0.79297316268E+02 -0.22609103104E+03  0.28609273486E+03  0.00000000000E+00 0.  1.
         22    1    1    2    0    0 -0.98593297450E+03 -0.27702566101E+03  0.86806336518E+03  0.13425129620E+04  0.00000000000E+00 0. -1.
<mgrwt>
<rscale>  0 0.29538606E+04</rscale>
<asrwt>0</asrwt>
<pdfrwt beam="1">  1        2 0.26084604E+00 0.29538606E+04</pdfrwt>
<pdfrwt beam="2">  1       -2 0.19792882E+00 0.29538606E+04</pdfrwt>
<totfact> 0.11633548E+00</totfact>
</mgrwt>
</event>
<event>
 6    1  0.2436515E-005  0.8856135E+03  0.7818608E-02  0.9443746E-01
          2   -1    0    0  501    0  0.00000000000E+00  0.00000000000E+00  0.21370020956E+04  0.21370020956E+04  0.00000000000E+00 0.  1.
         -2   -1    0    0    0  501 -0.00000000000E+00 -0.00000000000E+00 -0.91753684771E+02  0.91753684771E+02  0.00000000000E+00 0. -1.
         23    2    1    2    0    0 -0.31220055814E+03 -0.19015499616E+03  0.42983824355E+03  0.57250153672E+03  0.96793506281E+02 0.  0.
         13    1    3    3    0    0 -0.28902533291E+03 -0.15393584837E+03  0.41114237498E+03  0.52561387062E+03  0.00000000000E+00 0. -1.
        -13    1    3    3    0    0 -0.23175225237E+02 -0.36219147789E+02  0.18695868568E+02  0.46887666106E+02  0.00000000000E+00 0.  1.
         22    1    1    2    0    0  0.31220055814E+03  0.19015499616E+03  0.16154101673E+04  0.16562542437E+04  0.00000000000E+00 0.  1.
<mgrwt>
<rscale>  0 0.88561350E+03</rscale>
<asrwt>0</asrwt>
<pdfrwt beam="1">  1        2 0.32876951E+00 0.88561350E+03</pdfrwt>
<pdfrwt beam="2">  1       -2 0.14115953E-01 0.88561350E+03</pdfrwt>
<totfact> 0.22088698E+02</totfact>
</mgrwt>
</event>
<event>
 6    1  0.2436515E-005  0.2546544E+04  0.7818608E-02  0.8386589E-01
          2   -1    0    0  501    0  0.00000000000E+00  0.00000000000E+00  0.18378862930E+04  0.18378862930E+04  0.00000000000E+00 0.  1.
         -2   -1    0    0    0  501 -0.00000000000E+00 -0.00000000000E+00 -0.88211226543E+03  0.88211226543E+03  0.00000000000E+00 0. -1.
         23    2    1    2    0    0 -0.10385106662E+03  0.12235039313E+04  0.12502367375E+03  0.12374692790E+04  0.89176137116E+02 0.  0.
         13    1    3    3    0    0 -0.50138135392E+02  0.66258764182E+03  0.23380756847E+02  0.66489313089E+03  0.00000000000E+00 0. -1.
        -13    1    3    3    0    0 -0.53712931230E+02  0.56091628951E+03  0.10164291690E+03  0.57257614811E+03  0.00000000000E+00 0.  1.
         22    1    1    2    0    0  0.10385106662E+03 -0.12235039313E+04  0.83075035384E+03  0.14825292795E+04  0.00000000000E+00 0.  1.
<mgrwt>
<rscale>  0 0.25465444E+04</rscale>
<asrwt>0</asrwt>
<pdfrwt beam="1">  1        2 0.28275174E+00 0.25465444E+04</pdfrwt>
<pdfrwt beam="2">  1       -2 0.13570958E+00 0.25465444E+04</pdfrwt>
<totfact> 0.28434294E+00</totfact>
</mgrwt>
</event>
<event>
 6    1  0.2436515E-005  0.1193705E+04  0.7818608E-02  0.9118384E-01
          2   -1    0    0  501    0  0.00000000000E+00  0.00000000000E+00  0.78803352873E+03  0.78803352873E+03  0.00000000000E+00 0.  1.
         -2   -1    0    0    0  501 -0.00000000000E+00 -0.00000000000E+00 -0.45205322839E+03  0.45205322839E+03  0.00000000000E+00 0. -1.
         23    2    1    2    0    0  0.53105299926E+03 -0.60197373824E+02  0.43682615149E+03  0.69620175316E+03  0.90767740017E+02 0.  0.
         13    1    3    3    0    0  0.28439562975E+03  0.10138539731E+02  0.20817650405E+03  0.35259200367E+03  0.00000000000E+00 0.  1.
        -13    1    3    3    0    0  0.24665736951E+03 -0.70335913556E+02  0.22864964744E+03  0.34360974949E+03  0.00000000000E+00 0. -1.
         22    1    1    2    0    0 -0.53105299926E+03  0.60197373824E+02 -0.10084585115E+03  0.54388500396E+03  0.00000000000E+00 0. -1.
<mgrwt>
<rscale>  0 0.11937053E+04</rscale>
<asrwt>0</asrwt>
<pdfrwt beam="1">  1        2 0.12123593E+00 0.11937053E+04</pdfrwt>
<pdfrwt beam="2">  1       -2 0.69546651E-01 0.11937053E+04</pdfrwt>
<totfact> 0.65440092E+01</totfact>
</mgrwt>
</event>
<event>
 6    1  0.2799316E-005  0.2628387E+04  0.7818608E-02  0.8358622E-01
         -2   -1    0    0    0  501 -0.00000000000E+00  0.00000000000E+00  0.10354325133E+04  0.10354325133E+04  0.00000000000E+00 0.  1.
          2   -1    0    0  501    0  0.00000000000E+00 -0.00000000000E+00 -0.16680034785E+04  0.16680034785E+04  0.00000000000E+00 0. -1.
         23    2    1    2    0    0  0.55277633418E+01 -0.88119590263E+03 -0.13173585235E+04  0.15874293722E+04  0.89228680209E+02 0.  0.
         11    1    3    3    0    0 -0.24415153805E+02 -0.41921377016E+03 -0.69025917329E+03  0.80795668890E+03  0.00000000000E+00 0. -1.
        -11    1    3    3    0    0  0.29942917147E+02 -0.46198213246E+03 -0.62709935017E+03  0.77947268328E+03  0.00000000000E+00 0.  1.
         22    1    1    2    0    0 -0.55277633418E+01  0.88119590263E+03  0.68478755829E+03  0.11160066196E+04  0.00000000000E+00 0.  1.
<mgrwt>
<rscale>  0 0.26283874E+04</rscale>
<asrwt>0</asrwt>
<pdfrwt beam="1">  1        2 0.25661592E+00 0.26283874E+04</pdfrwt>
<pdfrwt beam="2">  1       -2 0.15929731E+00 0.26283874E+04</pdfrwt>
<totfact> 0.22991146E+00</totfact>
</mgrwt>
</event>
<event>
 6    1  0.2436515E-005  0.2038390E+04  0.7818608E-02  0.8588880E-01
          2   -1    0    0  501    0  0.00000000000E+00  0.00000000000E+00  0.14158423108E+04  0.14158423108E+04  0.00000000000E+00 0.  1.
         -2   -1    0    0    0  501 -0.00000000000E+00 -0.00000000000E+00 -0.73366808541E+03  0.73366808541E+03  0.00000000000E+00 0. -1.
         23    2    1    2    0    0 -0.30981423688E+03 -0.65183544304E+03 -0.41460985880E+03  0.83657108554E+03  0.84116228965E+02 0.  0.
         13    1    3    3    0    0 -0.24131116951E+03 -0.57545110453E+03 -0.35603106374E+03  0.71842408964E+03  0.00000000000E+00 0.  1.
        -13    1    3    3    0    0 -0.68503067375E+02 -0.76384338513E+02 -0.58578795061E+02  0.11814699590E+03  0.00000000000E+00 0. -1.
         22    1    1    2    0    0  0.30981423688E+03  0.65183544304E+03  0.10967840842E+04  0.13129393107E+04  0.00000000000E+00 0.  1.
<mgrwt>
<rscale>  0 0.20383899E+04</rscale>
<asrwt>0</asrwt>
<pdfrwt beam="1">  1        2 0.21782189E+00 0.20383899E+04</pdfrwt>
<pdfrwt beam="2">  1       -2 0.11287201E+00 0.20383899E+04</pdfrwt>
<totfact> 0.81015708E+00</totfact>
</mgrwt>
</event>
<event>
 6    1  0.2436515E-005  0.2192829E+04  0.7818608E-02  0.8521419E-01
         -4   -1    0    0    0  501 -0.00000000000E+00  0.00000000000E+00  0.64423557905E+03  0.64423557905E+03  0.00000000000E+00 0. -1.
          4   -1    0    0  501    0  0.00000000000E+00 -0.00000000000E+00 -0.18659711603E+04  0.18659711603E+04  0.00000000000E+00 0.  1.
         23    2    1    2    0    0  0.85073915812E+03  0.98395774306E+02  0.16818350935E+03  0.87762782182E+03  0.92228288738E+02 0.  0.
         11    1    3    3    0    0  0.13250757603E+03  0.15263274600E+02 -0.73925734441E+01  0.13358845534E+03  0.00000000000E+00 0. -1.
        -11    1    3    3    0    0  0.71823158209E+03  0.83132499706E+02  0.17557608280E+03  0.74403936648E+03  0.00000000000E+00 0.  1.
         22    1    1    2    0    0 -0.85073915812E+03 -0.98395774306E+02 -0.13899190906E+04  0.16325789175E+04  0.00000000000E+00 0.  1.
<mgrwt>
<rscale>  0 0.21928292E+04</rscale>
<asrwt>0</asrwt>
<pdfrwt beam="1">  1        4 0.28707248E+00 0.21928292E+04</pdfrwt>
<pdfrwt beam="2">  1       -4 0.99113168E-01 0.21928292E+04</pdfrwt>
<totfact> 0.57367119E-02</totfact>
</mgrwt>
</event>
<event>
 6    1  0.2436515E-005  0.1256145E+04  0.7818608E-02  0.9065084E-01
          2   -1    0    0  501    0  0.00000000000E+00  0.00000000000E+00  0.40526097312E+04  0.40526097312E+04  0.00000000000E+00 0.  1.
         -2   -1    0    0    0  501 -0.00000000000E+00 -0.00000000000E+00 -0.97338593913E+02  0.97338593913E+02  0.00000000000E+00 0. -1.
         23    2    1    2    0    0  0.56091163394E+03 -0.21408814606E+03  0.14168935279E+04  0.15415356884E+04  0.91046218557E+02 0.  0.
         11    1    3    3    0    0  0.28046292694E+03 -0.61612194308E+02  0.62979136575E+03  0.69216521167E+03  0.00000000000E+00 0. -1.
        -11    1    3    3    0    0  0.28044870700E+03 -0.15247595176E+03  0.78710216215E+03  0.84937047676E+03  0.00000000000E+00 0.  1.
         22    1    1    2    0    0 -0.56091163394E+03  0.21408814606E+03  0.25383776094E+04  0.26084126366E+04  0.00000000000E+00 0.  1.
<mgrwt>
<rscale>  0 0.12561454E+04</rscale>
<asrwt>0</asrwt>
<pdfrwt beam="1">  1        2 0.62347829E+00 0.12561454E+04</pdfrwt>
<pdfrwt beam="2">  1       -2 0.14975171E-01 0.12561454E+04</pdfrwt>
<totfact> 0.11140613E+01</totfact>
</mgrwt>
</event>
<event>
 6    1  0.2436515E-005  0.7168054E+03  0.7818608E-02  0.9688917E-01
         -2   -1    0    0    0  501 -0.00000000000E+00  0.00000000000E+00  0.60846409169E+02  0.60846409169E+02  0.00000000000E+00 0. -1.
          2   -1    0    0  501    0  0.00000000000E+00 -0.00000000000E+00 -0.21110942175E+04  0.21110942175E+04  0.00000000000E+00 0.  1.
         23    2    1    2    0    0 -0.44064994234E+02 -0.58948741487E+02 -0.20869753762E+04  0.20896874073E+04  0.76880175771E+02 0.  0.
         13    1    3    3    0    0 -0.59384147936E+01 -0.36641454289E+02 -0.31777028357E+03  0.31993095203E+03  0.00000000000E+00 0. -1.
        -13    1    3    3    0    0 -0.38126579441E+02 -0.22307287197E+02 -0.17692050927E+04  0.17697564553E+04  0.00000000000E+00 0.  1.
         22    1    1    2    0    0  0.44064994234E+02  0.58948741487E+02  0.36727567949E+02  0.82253219312E+02  0.00000000000E+00 0. -1.
<mgrwt>
<rscale>  0 0.71680542E+03</rscale>
<asrwt>0</asrwt>
<pdfrwt beam="1">  1        2 0.32478370E+00 0.71680542E+03</pdfrwt>
<pdfrwt beam="2">  1       -2 0.93609867E-02 0.71680542E+03</pdfrwt>
<totfact> 0.45545855E+02</totfact>
</mgrwt>
</event>
<event>
 6    1  0.2436515E-005  0.1047780E+04  0.7818608E-02  0.9257639E-01
          2   -1    0    0  501    0  0.00000000000E+00  0.00000000000E+00  0.32424009920E+03  0.32424009920E+03  0.00000000000E+00 0.  1.
         -2   -1    0    0    0  501 -0.00000000000E+00 -0.00000000000E+00 -0.84647450540E+03  0.84647450540E+03  0.00000000000E+00 0. -1.
         23    2    1    2    0    0 -0.29779629516E+03 -0.16013303222E+02  0.21266343403E+03  0.37761064240E+03  0.91787808502E+02 0.  0.
         13    1    3    3    0    0 -0.63357656684E+02  0.30879286547E+02  0.29391030348E+02  0.76364623112E+02  0.00000000000E+00 0. -1.
        -13    1    3    3    0    0 -0.23443863847E+03 -0.46892589769E+02  0.18327240368E+03  0.30124601929E+03  0.00000000000E+00 0.  1.
         22    1    1    2    0    0  0.29779629516E+03  0.16013303222E+02 -0.73489784023E+03  0.79310396221E+03  0.00000000000E+00 0. -1.
<mgrwt>
<rscale>  0 0.10477805E+04</rscale>
<asrwt>0</asrwt>
<pdfrwt beam="1">  1        2 0.49883093E-01 0.10477805E+04</pdfrwt>
<pdfrwt beam="2">  1       -2 0.13022685E+00 0.10477805E+04</pdfrwt>
<totfact> 0.43314650E+01</totfact>
</mgrwt>
</event>
<event>
 6    1  0.2436515E-005  0.5202901E+04  0.7818608E-02  0.7797948E-01
         -2   -1    0    0    0  501 -0.00000000000E+00  0.00000000000E+00  0.18521883937E+04  0.18521883937E+04  0.00000000000E+00 0. -1.
          2   -1    0    0  501    0  0.00000000000E+00 -0.00000000000E+00 -0.36538107422E+04  0.36538107422E+04  0.00000000000E+00 0.  1.
         23    2    1    2    0    0  0.11368506256E+04  0.21604484831E+04  0.47441478653E+02  0.24434831718E+04  0.91609629196E+02 0.  0.
         13    1    3    3    0    0  0.76196081215E+03  0.13708502337E+04  0.52124160547E+01  0.15683882848E+04  0.00000000000E+00 0. -1.
        -13    1    3    3    0    0  0.37488981341E+03  0.78959824936E+03  0.42229062598E+02  0.87509488704E+03  0.00000000000E+00 0.  1.
         22    1    1    2    0    0 -0.11368506256E+04 -0.21604484831E+04 -0.18490638272E+04  0.30625159640E+04  0.00000000000E+00 0.  1.
<mgrwt>
<rscale>  0 0.52029014E+04</rscale>
<asrwt>0</asrwt>
<pdfrwt beam="1">  1        2 0.56212473E+00 0.52029014E+04</pdfrwt>
<pdfrwt beam="2">  1       -2 0.28495206E+00 0.52029014E+04</pdfrwt>
<totfact> 0.17713043E-02</totfact>
</mgrwt>
</event>
<event>
 6    1  0.2436515E-005  0.2225775E+04  0.7818608E-02  0.8507776E-01
         -2   -1    0    0    0  501 -0.00000000000E+00  0.00000000000E+00  0.34491888473E+03  0.34491888473E+03  0.00000000000E+00 0. -1.
          2   -1    0    0  501    0  0.00000000000E+00 -0.00000000000E+00 -0.35907525427E+04  0.35907525427E+04  0.00000000000E+00 0.  1.
         23    2    1    2    0    0  0.56916361930E+03 -0.15101127773E+03  0.40350548118E+02  0.59714506571E+03  0.90567274581E+02 0.  0.
         13    1    3    3    0    0  0.33892779833E+02  0.11839534163E+02  0.75663013348E+01  0.36689835239E+02  0.00000000000E+00 0. -1.
        -13    1    3    3    0    0  0.53527083947E+03 -0.16285081190E+03  0.32784246783E+02  0.56045523047E+03  0.00000000000E+00 0.  1.
         22    1    1    2    0    0 -0.56916361930E+03  0.15101127773E+03 -0.32861842061E+04  0.33385263617E+04  0.00000000000E+00 0.  1.
<mgrwt>
<rscale>  0 0.22257748E+04</rscale>
<asrwt>0</asrwt>
<pdfrwt beam="1">  1        2 0.55242342E+00 0.22257748E+04</pdfrwt>
<pdfrwt beam="2">  1       -2 0.53064449E-01 0.22257748E+04</pdfrwt>
<totfact> 0.21494756E+00</totfact>
</mgrwt>
</event>
<event>
 6    1  0.2436515E-005  0.2177669E+04  0.7818608E-02  0.8527781E-01
          2   -1    0    0  501    0  0.00000000000E+00  0.00000000000E+00  0.24071210949E+04  0.24071210949E+04  0.00000000000E+00 0.  1.
         -2   -1    0    0    0  501 -0.00000000000E+00 -0.00000000000E+00 -0.49252231271E+03  0.49252231271E+03  0.00000000000E+00 0. -1.
         23    2    1    2    0    0  0.84905209080E+03  0.20454665413E+03  0.97231429183E+02  0.88332178585E+03  0.89859000308E+02 0.  0.
         11    1    3    3    0    0  0.48378164219E+03  0.83869246840E+02  0.22998309051E+02  0.49153601099E+03  0.00000000000E+00 0.  1.
        -11    1    3    3    0    0  0.36527044861E+03  0.12067740729E+03  0.74233120132E+02  0.39178577486E+03  0.00000000000E+00 0. -1.
         22    1    1    2    0    0 -0.84905209080E+03 -0.20454665413E+03  0.18173673531E+04  0.20163216218E+04  0.00000000000E+00 0.  1.
<mgrwt>
<rscale>  0 0.21776693E+04</rscale>
<asrwt>0</asrwt>
<pdfrwt beam="1">  1        2 0.37032632E+00 0.21776693E+04</pdfrwt>
<pdfrwt beam="2">  1       -2 0.75772665E-01 0.21776693E+04</pdfrwt>
<totfact> 0.56291364E+00</totfact>
</mgrwt>
</event>
<event>
 6    1  0.2436515E-005  0.3168544E+04  0.7818608E-02  0.8197174E-01
         -2   -1    0    0    0  501 -0.00000000000E+00  0.00000000000E+00  0.11252072423E+04  0.11252072423E+04  0.00000000000E+00 0. -1.
          2   -1    0    0  501    0  0.00000000000E+00 -0.00000000000E+00 -0.22306276278E+04  0.22306276278E+04  0.00000000000E+00 0.  1.
         23    2    1    2    0    0 -0.13589950871E+04  0.52151641525E+03 -0.12120355569E+04  0.18963096689E+04  0.90073031059E+02 0.  0.
         11    1    3    3    0    0 -0.11101139973E+04  0.40704078838E+03 -0.10225544019E+04  0.15632187291E+04  0.00000000000E+00 0.  1.
        -11    1    3    3    0    0 -0.24888108984E+03  0.11447562687E+03 -0.18948115505E+03  0.33309093975E+03  0.00000000000E+00 0. -1.
         22    1    1    2    0    0  0.13589950871E+04 -0.52151641525E+03  0.10661517142E+03  0.14595252012E+04  0.00000000000E+00 0.  1.
<mgrwt>
<rscale>  0 0.31685444E+04</rscale>
<asrwt>0</asrwt>
<pdfrwt beam="1">  1        2 0.34317348E+00 0.31685444E+04</pdfrwt>
<pdfrwt beam="2">  1       -2 0.17310881E+00 0.31685444E+04</pdfrwt>
<totfact> 0.84879887E-01</totfact>
</mgrwt>
</event>
<event>
 6    1  0.2436515E-005  0.1371244E+04  0.7818608E-02  0.8974901E-01
          2   -1    0    0  501    0  0.00000000000E+00  0.00000000000E+00  0.42749128883E+03  0.42749128883E+03  0.00000000000E+00 0.  1.
         -2   -1    0    0    0  501 -0.00000000000E+00 -0.00000000000E+00 -0.10996183213E+04  0.10996183213E+04  0.00000000000E+00 0. -1.
         23    2    1    2    0    0  0.50354476577E+03  0.44769752435E+02  0.17286799795E+03  0.54243795759E+03  0.93775963122E+02 0.  0.
         11    1    3    3    0    0  0.82804650027E+02  0.10430696909E+02 -0.66286573324E+01  0.83721852596E+02  0.00000000000E+00 0. -1.
        -11    1    3    3    0    0  0.42074011574E+03  0.34339055525E+02  0.17949665528E+03  0.45871610500E+03  0.00000000000E+00 0.  1.
         22    1    1    2    0    0 -0.50354476577E+03 -0.44769752435E+02 -0.84499503040E+03  0.98467165252E+03  0.00000000000E+00 0. -1.
<mgrwt>
<rscale>  0 0.13712436E+04</rscale>
<asrwt>0</asrwt>
<pdfrwt beam="1">  1        2 0.65767892E-01 0.13712436E+04</pdfrwt>
<pdfrwt beam="2">  1       -2 0.16917205E+00 0.13712436E+04</pdfrwt>
<totfact> 0.15521239E+01</totfact>
</mgrwt>
</event>
<event>
 6    1  0.2436515E-005  0.1660784E+04  0.7818608E-02  0.8784052E-01
         -2   -1    0    0    0  501 -0.00000000000E+00  0.00000000000E+00  0.60206050722E+03  0.60206050722E+03  0.00000000000E+00 0. -1.
          2   -1    0    0  501    0  0.00000000000E+00 -0.00000000000E+00 -0.11453181178E+04  0.11453181178E+04  0.00000000000E+00 0.  1.
         23    2    1    2    0    0 -0.55174378207E+03 -0.53204155157E+03 -0.60188427739E+03  0.97866118693E+03  0.89574671522E+02 0.  0.
         13    1    3    3    0    0 -0.30727219814E+02 -0.60208634210E+02 -0.68967891039E+02  0.96570242132E+02  0.00000000000E+00 0.  1.
        -13    1    3    3    0    0 -0.52101656225E+03 -0.47183291736E+03 -0.53291638635E+03  0.88209094480E+03  0.00000000000E+00 0. -1.
         22    1    1    2    0    0  0.55174378207E+03  0.53204155157E+03  0.58626666763E+02  0.76871743814E+03  0.00000000000E+00 0. -1.
<mgrwt>
<rscale>  0 0.16607839E+04</rscale>
<asrwt>0</asrwt>
<pdfrwt beam="1">  1        2 0.17620279E+00 0.16607839E+04</pdfrwt>
<pdfrwt beam="2">  1       -2 0.92624693E-01 0.16607839E+04</pdfrwt>
<totfact> 0.19288372E+01</totfact>
</mgrwt>
</event>
<event>
 6    1  0.2436515E-005  0.1040826E+04  0.7818608E-02  0.9264867E-01
         -4   -1    0    0    0  501 -0.00000000000E+00  0.00000000000E+00  0.34900093559E+03  0.34900093559E+03  0.00000000000E+00 0. -1.
          4   -1    0    0  501    0  0.00000000000E+00 -0.00000000000E+00 -0.77601475357E+03  0.77601475357E+03  0.00000000000E+00 0.  1.
         23    2    1    2    0    0  0.20335809975E+03  0.27508883019E+02 -0.72735655005E+03  0.76126163476E+03  0.91435607282E+02 0.  0.
         13    1    3    3    0    0  0.11224944638E+02  0.27889928268E+02 -0.65281455887E+02  0.71871524011E+02  0.00000000000E+00 0. -1.
        -13    1    3    3    0    0  0.19213315511E+03 -0.38104524856E+00 -0.66207509417E+03  0.68939011075E+03  0.00000000000E+00 0.  1.
         22    1    1    2    0    0 -0.20335809975E+03 -0.27508883019E+02  0.30034273208E+03  0.36375405440E+03  0.00000000000E+00 0. -1.
<mgrwt>
<rscale>  0 0.10408264E+04</rscale>
<asrwt>0</asrwt>
<pdfrwt beam="1">  1        4 0.11938688E+00 0.10408264E+04</pdfrwt>
<pdfrwt beam="2">  1       -4 0.53692452E-01 0.10408264E+04</pdfrwt>
<totfact> 0.35306184E+00</totfact>
</mgrwt>
</event>
<event>
 6    1  0.2436515E-005  0.2544416E+04  0.7818608E-02  0.8387331E-01
         -2   -1    0    0    0  501 -0.00000000000E+00  0.00000000000E+00  0.45250275937E+03  0.45250275937E+03  0.00000000000E+00 0. -1.
          2   -1    0    0  501    0  0.00000000000E+00 -0.00000000000E+00 -0.35768039120E+04  0.35768039120E+04  0.00000000000E+00 0.  1.
         23    2    1    2    0    0  0.10860728352E+04  0.25643207710E+03 -0.60225875101E+03  0.12714072009E+04  0.91918735686E+02 0.  0.
         11    1    3    3    0    0  0.25453505635E+03  0.70691724548E+02 -0.10068976526E+03  0.28270805376E+03  0.00000000000E+00 0. -1.
        -11    1    3    3    0    0  0.83153777881E+03  0.18574035256E+03 -0.50156898575E+03  0.98869914718E+03  0.00000000000E+00 0.  1.
         22    1    1    2    0    0 -0.10860728352E+04 -0.25643207710E+03 -0.25220424016E+04  0.27578994705E+04  0.00000000000E+00 0.  1.
<mgrwt>
<rscale>  0 0.25444163E+04</rscale>
<asrwt>0</asrwt>
<pdfrwt beam="1">  1        2 0.55027752E+00 0.25444163E+04</pdfrwt>
<pdfrwt beam="2">  1       -2 0.69615809E-01 0.25444163E+04</pdfrwt>
<totfact> 0.12008316E+00</totfact>
</mgrwt>
</event>
<event>
 6    1  0.2436515E-005  0.1275835E+04  0.7818608E-02  0.9048951E-01
         -2   -1    0    0    0  501 -0.00000000000E+00  0.00000000000E+00  0.17588799853E+03  0.17588799853E+03  0.00000000000E+00 0.  1.
          2   -1    0    0  501    0  0.00000000000E+00 -0.00000000000E+00 -0.23136248985E+04  0.23136248985E+04  0.00000000000E+00 0. -1.
         23    2    1    2    0    0  0.48722587334E+03  0.32943258859E+03 -0.15386409903E+04  0.16499708843E+04  0.95251982107E+02 0.  0.
         13    1    3    3    0    0  0.41901877720E+03  0.31317256087E+03 -0.14014477468E+04  0.14958975819E+04  0.00000000000E+00 0. -1.
        -13    1    3    3    0    0  0.68207096138E+02  0.16260027718E+02 -0.13719324349E+03  0.15407330244E+03  0.00000000000E+00 0.  1.
         22    1    1    2    0    0 -0.48722587334E+03 -0.32943258859E+03 -0.59909590964E+03  0.83954201266E+03  0.00000000000E+00 0.  1.
<mgrwt>
<rscale>  0 0.12758352E+04</rscale>
<asrwt>0</asrwt>
<pdfrwt beam="1">  1        2 0.35594228E+00 0.12758352E+04</pdfrwt>
<pdfrwt beam="2">  1       -2 0.27059693E-01 0.12758352E+04</pdfrwt>
<totfact> 0.54457032E+01</totfact>
</mgrwt>
</event>
<event>
 6    1  0.2436515E-005  0.1462409E+04  0.7818608E-02  0.8909843E-01
         -2   -1    0    0    0  501 -0.00000000000E+00  0.00000000000E+00  0.43116556914E+03  0.43116556914E+03  0.00000000000E+00 0. -1.
          2   -1    0    0  501    0  0.00000000000E+00 -0.00000000000E+00 -0.12400341139E+04  0.12400341139E+04  0.00000000000E+00 0.  1.
         23    2    1    2    0    0  0.59789103459E+03  0.16935665123E+03 -0.84001472963E+03  0.10490056222E+04  0.92912242487E+02 0.  0.
         11    1    3    3    0    0  0.40756700831E+03  0.75058342936E+02 -0.58898806095E+03  0.72017467121E+03  0.00000000000E+00 0. -1.
        -11    1    3    3    0    0  0.19032402627E+03  0.94298308298E+02 -0.25102666868E+03  0.32883095097E+03  0.00000000000E+00 0.  1.
         22    1    1    2    0    0 -0.59789103459E+03 -0.16935665123E+03  0.31146184859E+02  0.62219406087E+03  0.00000000000E+00 0. -1.
<mgrwt>
<rscale>  0 0.14624090E+04</rscale>
<asrwt>0</asrwt>
<pdfrwt beam="1">  1        2 0.19077448E+00 0.14624090E+04</pdfrwt>
<pdfrwt beam="2">  1       -2 0.66333165E-01 0.14624090E+04</pdfrwt>
<totfact> 0.36301090E+01</totfact>
</mgrwt>
</event>
<event>
 6    1  0.2436515E-005  0.1924681E+04  0.7818608E-02  0.8642668E-01
         -2   -1    0    0    0  501 -0.00000000000E+00  0.00000000000E+00  0.70595722206E+03  0.70595722206E+03  0.00000000000E+00 0. -1.
          2   -1    0    0  501    0  0.00000000000E+00 -0.00000000000E+00 -0.13118351106E+04  0.13118351106E+04  0.00000000000E+00 0.  1.
         23    2    1    2    0    0  0.72860527293E+02 -0.76199389031E+03  0.30427375205E+03  0.82854073853E+03  0.89184605761E+02 0.  0.
         11    1    3    3    0    0  0.44501092592E+02 -0.69457580951E+03  0.29010854442E+03  0.75404168979E+03  0.00000000000E+00 0. -1.
        -11    1    3    3    0    0  0.28359434701E+02 -0.67418080803E+02  0.14165207633E+02  0.74499048739E+02  0.00000000000E+00 0.  1.
         22    1    1    2    0    0 -0.72860527293E+02  0.76199389031E+03 -0.91015164063E+03  0.11892515942E+04  0.00000000000E+00 0.  1.
<mgrwt>
<rscale>  0 0.19246812E+04</rscale>
<asrwt>0</asrwt>
<pdfrwt beam="1">  1        2 0.20182079E+00 0.19246812E+04</pdfrwt>
<pdfrwt beam="2">  1       -2 0.10860880E+00 0.19246812E+04</pdfrwt>
<totfact> 0.10306770E+01</totfact>
</mgrwt>
</event>
<event>
 6    1  0.2436515E-005  0.2773885E+04  0.7818608E-02  0.8311422E-01
         -2   -1    0    0    0  501 -0.00000000000E+00  0.00000000000E+00  0.10010285275E+04  0.10010285275E+04  0.00000000000E+00 0. -1.
          2   -1    0    0  501    0  0.00000000000E+00 -0.00000000000E+00 -0.19216330347E+04  0.19216330347E+04  0.00000000000E+00 0.  1.
         23    2    1    2    0    0 -0.22188234583E+03  0.11036302410E+04 -0.13104306423E+04  0.17313614741E+04  0.11468479084E+03 0.  0.
         11    1    3    3    0    0 -0.15233419235E+03  0.68098215257E+03 -0.89252446593E+03  0.11329352676E+04  0.00000000000E+00 0.  1.
        -11    1    3    3    0    0 -0.69548153483E+02  0.42264808846E+03 -0.41790617641E+03  0.59842620649E+03  0.00000000000E+00 0. -1.
         22    1    1    2    0    0  0.22188234583E+03 -0.11036302410E+04  0.38982613519E+03  0.11913000881E+04  0.00000000000E+00 0. -1.
<mgrwt>
<rscale>  0 0.27738850E+04</rscale>
<asrwt>0</asrwt>
<pdfrwt beam="1">  1        2 0.29563585E+00 0.27738850E+04</pdfrwt>
<pdfrwt beam="2">  1       -2 0.15400439E+00 0.27738850E+04</pdfrwt>
<totfact> 0.17991794E+00</totfact>
</mgrwt>
</event>
<event>
 6    1  0.2436515E-005  0.3085656E+04  0.7818608E-02  0.8219686E-01
         -1   -1    0    0    0  501 -0.00000000000E+00  0.00000000000E+00  0.17913005431E+04  0.17913005431E+04  0.00000000000E+00 0. -1.
          1   -1    0    0  501    0  0.00000000000E+00 -0.00000000000E+00 -0.13288210841E+04  0.13288210841E+04  0.00000000000E+00 0.  1.
         23    2    1    2    0    0 -0.31421931907E+03 -0.13094914864E+04  0.98994260422E+03  0.16738439558E+04  0.90914768689E+02 0.  0.
         11    1    3    3    0    0 -0.20567641996E+03 -0.10130012231E+04  0.74265753292E+03  0.12727978940E+04  0.00000000000E+00 0. -1.
        -11    1    3    3    0    0 -0.10854289911E+03 -0.29649026327E+03  0.24728507130E+03  0.40104606175E+03  0.00000000000E+00 0.  1.
         22    1    1    2    0    0  0.31421931907E+03  0.13094914864E+04 -0.52746314519E+03  0.14462776715E+04  0.00000000000E+00 0.  1.
<mgrwt>
<rscale>  0 0.30856558E+04</rscale>
<asrwt>0</asrwt>
<pdfrwt beam="1">  1        1 0.20443401E+00 0.30856558E+04</pdfrwt>
<pdfrwt beam="2">  1       -1 0.27558470E+00 0.30856558E+04</pdfrwt>
<totfact> 0.34645327E-01</totfact>
</mgrwt>
</event>
<event>
 6    1  0.2436515E-005  0.2912780E+04  0.7818608E-02  0.8269085E-01
          2   -1    0    0  501    0  0.00000000000E+00  0.00000000000E+00  0.12592793529E+04  0.12592793529E+04  0.00000000000E+00 0.  1.
         -2   -1    0    0    0  501 -0.00000000000E+00 -0.00000000000E+00 -0.16843539384E+04  0.16843539384E+04  0.00000000000E+00 0. -1.
         23    2    1    2    0    0 -0.11287552523E+04  0.19620394750E+03 -0.11190674510E+04  0.16041518596E+04  0.91688713928E+02 0.  0.
         13    1    3    3    0    0 -0.79744584762E+03  0.12178986367E+03 -0.84001798388E+03  0.11646385122E+04  0.00000000000E+00 0. -1.
        -13    1    3    3    0    0 -0.33130940463E+03  0.74414083830E+02 -0.27904946712E+03  0.43951334743E+03  0.00000000000E+00 0.  1.
         22    1    1    2    0    0  0.11287552523E+04 -0.19620394750E+03  0.69399286545E+03  0.13394814317E+04  0.00000000000E+00 0.  1.
<mgrwt>
<rscale>  0 0.29127802E+04</rscale>
<asrwt>0</asrwt>
<pdfrwt beam="1">  1        2 0.19373529E+00 0.29127802E+04</pdfrwt>
<pdfrwt beam="2">  1       -2 0.25913137E+00 0.29127802E+04</pdfrwt>
<totfact> 0.85050405E-01</totfact>
</mgrwt>
</event>
<event>
 6    1  0.2436515E-005  0.1460773E+04  0.7818608E-02  0.8910965E-01
          2   -1    0    0  501    0  0.00000000000E+00  0.00000000000E+00  0.75255968969E+03  0.75255968969E+03  0.00000000000E+00 0.  1.
         -2   -1    0    0    0  501 -0.00000000000E+00 -0.00000000000E+00 -0.70886700154E+03  0.70886700154E+03  0.00000000000E+00 0. -1.
         23    2    1    2    0    0 -0.52460185722E+03  0.10544809663E+03  0.51523665827E+03  0.74820854407E+03  0.89558928718E+02 0.  0.
         13    1    3    3    0    0 -0.24216546249E+03  0.94276493714E+02  0.24442030885E+03  0.35675405515E+03  0.00000000000E+00 0.  1.
        -13    1    3    3    0    0 -0.28243639473E+03  0.11171602912E+02  0.27081634942E+03  0.39145448892E+03  0.00000000000E+00 0. -1.
         22    1    1    2    0    0  0.52460185722E+03 -0.10544809663E+03 -0.47154397011E+03  0.71321814716E+03  0.00000000000E+00 0. -1.
<mgrwt>
<rscale>  0 0.14607734E+04</rscale>
<asrwt>0</asrwt>
<pdfrwt beam="1">  1        2 0.11577841E+00 0.14607734E+04</pdfrwt>
<pdfrwt beam="2">  1       -2 0.10905646E+00 0.14607734E+04</pdfrwt>
<totfact> 0.24272484E+01</totfact>
</mgrwt>
</event>
<event>
 6    1  0.2436515E-005  0.6374882E+03  0.7818608E-02  0.9830544E-01
         -4   -1    0    0    0  501 -0.00000000000E+00  0.00000000000E+00  0.22985195301E+03  0.22985195301E+03  0.00000000000E+00 0.  1.
          4   -1    0    0  501    0  0.00000000000E+00 -0.00000000000E+00 -0.44201411467E+03  0.44201411467E+03  0.00000000000E+00 0. -1.
         23    2    1    2    0    0  0.15114228014E+02  0.26450014863E+03 -0.28383895685E+03  0.39740963856E+03  0.84741364633E+02 0.  0.
         11    1    3    3    0    0 -0.26911417146E+02  0.56419243997E+02 -0.92385121820E+02  0.11154535490E+03  0.00000000000E+00 0. -1.
        -11    1    3    3    0    0  0.42025645160E+02  0.20808090464E+03 -0.19145383503E+03  0.28586428366E+03  0.00000000000E+00 0.  1.
         22    1    1    2    0    0 -0.15114228014E+02 -0.26450014863E+03  0.71676795193E+02  0.27445642912E+03  0.00000000000E+00 0.  1.
<mgrwt>
<rscale>  0 0.63748822E+03</rscale>
<asrwt>0</asrwt>
<pdfrwt beam="1">  1        4 0.68002171E-01 0.63748822E+03</pdfrwt>
<pdfrwt beam="2">  1       -4 0.35361839E-01 0.63748822E+03</pdfrwt>
<totfact> 0.30772764E+01</totfact>
</mgrwt>
</event>
<event>
 6    1  0.2436515E-005  0.2613224E+04  0.7818608E-02  0.8363723E-01
          2   -1    0    0  501    0  0.00000000000E+00  0.00000000000E+00  0.23790186272E+04  0.23790186272E+04  0.00000000000E+00 0.  1.
         -2   -1    0    0    0  501 -0.00000000000E+00 -0.00000000000E+00 -0.71762153524E+03  0.71762153524E+03  0.00000000000E+00 0. -1.
         23    2    1    2    0    0 -0.92057484483E+03 -0.44166525991E+03 -0.13147826989E+03  0.10334076719E+04  0.90103463889E+02 0.  0.
         11    1    3    3    0    0 -0.26482432049E+03 -0.13801132678E+03 -0.78777194550E+02  0.30884444859E+03  0.00000000000E+00 0.  1.
        -11    1    3    3    0    0 -0.65575052434E+03 -0.30365393313E+03 -0.52701075344E+02  0.72456322334E+03  0.00000000000E+00 0. -1.
         22    1    1    2    0    0  0.92057484483E+03  0.44166525991E+03  0.17928753619E+04  0.20632324905E+04  0.00000000000E+00 0.  1.
<mgrwt>
<rscale>  0 0.26132241E+04</rscale>
<asrwt>0</asrwt>
<pdfrwt beam="1">  1        2 0.36600286E+00 0.26132241E+04</pdfrwt>
<pdfrwt beam="2">  1       -2 0.11040331E+00 0.26132241E+04</pdfrwt>
<totfact> 0.23512895E+00</totfact>
</mgrwt>
</event>
<event>
 6    1  0.2436515E-005  0.1765267E+04  0.7818608E-02  0.8724991E-01
         -2   -1    0    0    0  501 -0.00000000000E+00  0.00000000000E+00  0.63851018727E+03  0.63851018727E+03  0.00000000000E+00 0. -1.
          2   -1    0    0  501    0  0.00000000000E+00 -0.00000000000E+00 -0.12200925800E+04  0.12200925800E+04  0.00000000000E+00 0.  1.
         23    2    1    2    0    0 -0.31141343157E+03  0.67231369914E+03 -0.79197473951E+03  0.10883761935E+04  0.91404130884E+02 0.  0.
         13    1    3    3    0    0 -0.12066440801E+03  0.18689599766E+03 -0.19681560100E+03  0.29702928155E+03  0.00000000000E+00 0. -1.
        -13    1    3    3    0    0 -0.19074902355E+03  0.48541770148E+03 -0.59515913850E+03  0.79134691195E+03  0.00000000000E+00 0.  1.
         22    1    1    2    0    0  0.31141343157E+03 -0.67231369914E+03  0.21039234675E+03  0.77022657380E+03  0.00000000000E+00 0. -1.
<mgrwt>
<rscale>  0 0.17652666E+04</rscale>
<asrwt>0</asrwt>
<pdfrwt beam="1">  1        2 0.18770655E+00 0.17652666E+04</pdfrwt>
<pdfrwt beam="2">  1       -2 0.98232337E-01 0.17652666E+04</pdfrwt>
<totfact> 0.15030510E+01</totfact>
</mgrwt>
</event>
<event>
 6    1  0.2436515E-005  0.2912238E+04  0.7818608E-02  0.8269246E-01
         -2   -1    0    0    0  501 -0.00000000000E+00  0.00000000000E+00  0.87188793988E+03  0.87188793988E+03  0.00000000000E+00 0. -1.
          2   -1    0    0  501    0  0.00000000000E+00 -0.00000000000E+00 -0.24318288830E+04  0.24318288830E+04  0.00000000000E+00 0.  1.
         23    2    1    2    0    0 -0.42338777008E+02 -0.35670154328E+03 -0.23798529527E+04  0.24085719931E+04  0.92143402611E+02 0.  0.
         13    1    3    3    0    0  0.26111728232E+01 -0.22152324488E+03 -0.12140491752E+04  0.12340967410E+04  0.00000000000E+00 0.  1.
        -13    1    3    3    0    0 -0.44949949831E+02 -0.13517829840E+03 -0.11658037774E+04  0.11744752521E+04  0.00000000000E+00 0. -1.
         22    1    1    2    0    0  0.42338777008E+02  0.35670154328E+03  0.81991200951E+03  0.89514482982E+03  0.00000000000E+00 0. -1.
<mgrwt>
<rscale>  0 0.29122378E+04</rscale>
<asrwt>0</asrwt>
<pdfrwt beam="1">  1        2 0.37412752E+00 0.29122378E+04</pdfrwt>
<pdfrwt beam="2">  1       -2 0.13413661E+00 0.29122378E+04</pdfrwt>
<totfact> 0.13177132E+00</totfact>
</mgrwt>
</event>
<event>
 6    1  0.2436515E-005  0.3190504E+04  0.7818608E-02  0.8191329E-01
         -2   -1    0    0    0  501 -0.00000000000E+00  0.00000000000E+00  0.10987091228E+04  0.10987091228E+04  0.00000000000E+00 0. -1.
          2   -1    0    0  501    0  0.00000000000E+00 -0.00000000000E+00 -0.23161993725E+04  0.23161993725E+04  0.00000000000E+00 0.  1.
         23    2    1    2    0    0 -0.12679152775E+04 -0.92427608660E+03 -0.90974497193E+03  0.18159705381E+04  0.90651233575E+02 0.  0.
         13    1    3    3    0    0 -0.10271450168E+04 -0.70377938860E+03 -0.72696027294E+03  0.14418056568E+04  0.00000000000E+00 0. -1.
        -13    1    3    3    0    0 -0.24077026063E+03 -0.22049669800E+03 -0.18278469899E+03  0.37416488133E+03  0.00000000000E+00 0.  1.
         22    1    1    2    0    0  0.12679152775E+04  0.92427608660E+03 -0.30774527783E+03  0.15989379572E+04  0.00000000000E+00 0.  1.
<mgrwt>
<rscale>  0 0.31905043E+04</rscale>
<asrwt>0</asrwt>
<pdfrwt beam="1">  1        2 0.35633836E+00 0.31905043E+04</pdfrwt>
<pdfrwt beam="2">  1       -2 0.16903217E+00 0.31905043E+04</pdfrwt>
<totfact> 0.80993525E-01</totfact>
</mgrwt>
</event>
<event>
 6    1  0.2436515E-005  0.3191797E+04  0.7818608E-02  0.8190987E-01
          2   -1    0    0  501    0  0.00000000000E+00  0.00000000000E+00  0.93266188082E+03  0.93266188082E+03  0.00000000000E+00 0.  1.
         -2   -1    0    0    0  501 -0.00000000000E+00 -0.00000000000E+00 -0.27307773536E+04  0.27307773536E+04  0.00000000000E+00 0. -1.
         23    2    1    2    0    0 -0.14518222582E+04  0.43864688161E+03 -0.14651005401E+04  0.21106681947E+04  0.90563124342E+02 0.  0.
         11    1    3    3    0    0 -0.47968271330E+03  0.12101199547E+03 -0.52796363311E+03  0.72352263708E+03  0.00000000000E+00 0.  1.
        -11    1    3    3    0    0 -0.97213954492E+03  0.31763488614E+03 -0.93713690697E+03  0.13871455576E+04  0.00000000000E+00 0. -1.
         22    1    1    2    0    0  0.14518222582E+04 -0.43864688161E+03 -0.33301493266E+03  0.15527710397E+04  0.00000000000E+00 0.  1.
<mgrwt>
<rscale>  0 0.31917970E+04</rscale>
<asrwt>0</asrwt>
<pdfrwt beam="1">  1        2 0.14348645E+00 0.31917970E+04</pdfrwt>
<pdfrwt beam="2">  1       -2 0.42011958E+00 0.31917970E+04</pdfrwt>
<totfact> 0.12842148E-01</totfact>
</mgrwt>
</event>
<event>
 6    1  0.2463050E-005  0.3152410E+04  0.7818608E-02  0.8201500E-01
          2   -1    0    0  501    0  0.00000000000E+00  0.00000000000E+00  0.32502215345E+04  0.32502215345E+04  0.00000000000E+00 0.  1.
         -2   -1    0    0    0  501 -0.00000000000E+00 -0.00000000000E+00 -0.76438541899E+03  0.76438541899E+03  0.00000000000E+00 0. -1.
         23    2    1    2    0    0  0.37074650821E+03  0.18687561779E+02  0.31931309285E+04  0.32158152717E+04  0.87066276189E+02 0.  0.
         11    1    3    3    0    0  0.15693835002E+03 -0.25515932947E+02  0.15790918825E+04  0.15870765205E+04  0.00000000000E+00 0.  1.
        -11    1    3    3    0    0  0.21380815818E+03  0.44203494726E+02  0.16140390460E+04  0.16287387512E+04  0.00000000000E+00 0. -1.
         22    1    1    2    0    0 -0.37074650821E+03 -0.18687561779E+02 -0.70729481305E+03  0.79879168178E+03  0.00000000000E+00 0. -1.
<mgrwt>
<rscale>  0 0.31524098E+04</rscale>
<asrwt>0</asrwt>
<pdfrwt beam="1">  1        2 0.50003408E+00 0.31524098E+04</pdfrwt>
<pdfrwt beam="2">  1       -2 0.11759776E+00 0.31524098E+04</pdfrwt>
<totfact> 0.56669314E-01</totfact>
</mgrwt>
</event>
<event>
 6    1  0.2436515E-005  0.1894562E+04  0.7818608E-02  0.8657568E-01
         -2   -1    0    0    0  501 -0.00000000000E+00  0.00000000000E+00  0.29651202737E+03  0.29651202737E+03  0.00000000000E+00 0. -1.
          2   -1    0    0  501    0  0.00000000000E+00 -0.00000000000E+00 -0.30263233462E+04  0.30263233462E+04  0.00000000000E+00 0.  1.
         23    2    1    2    0    0  0.79288573230E+03 -0.26099929093E+03 -0.21456081260E+04  0.23039723872E+04  0.88691129950E+02 0.  0.
         11    1    3    3    0    0  0.43536506787E+03 -0.12012285861E+03 -0.12637102858E+04  0.13419895416E+04  0.00000000000E+00 0.  1.
        -11    1    3    3    0    0  0.35752066443E+03 -0.14087643232E+03 -0.88189784023E+03  0.96198284563E+03  0.00000000000E+00 0. -1.
         22    1    1    2    0    0 -0.79288573230E+03  0.26099929093E+03 -0.58420319283E+03  0.10188629863E+04  0.00000000000E+00 0. -1.
<mgrwt>
<rscale>  0 0.18945620E+04</rscale>
<asrwt>0</asrwt>
<pdfrwt beam="1">  1        2 0.46558820E+00 0.18945620E+04</pdfrwt>
<pdfrwt beam="2">  1       -2 0.45617235E-01 0.18945620E+04</pdfrwt>
<totfact> 0.71796020E+00</totfact>
</mgrwt>
</event>
<event>
 6    1  0.2436515E-005  0.2236085E+04  0.7818608E-02  0.8503557E-01
         -2   -1    0    0    0  501 -0.00000000000E+00  0.00000000000E+00  0.39731601425E+03  0.39731601425E+03  0.00000000000E+00 0. -1.
          2   -1    0    0  501    0  0.00000000000E+00 -0.00000000000E+00 -0.31461586106E+04  0.31461586106E+04  0.00000000000E+00 0.  1.
         23    2    1    2    0    0 -0.19029607710E+03 -0.56582867944E+03 -0.28712755798E+04  0.29340777699E+04  0.90632297985E+02 0.  0.
         13    1    3    3    0    0 -0.16266310548E+03 -0.38151470307E+03 -0.21043355618E+04  0.21448172209E+04  0.00000000000E+00 0.  1.
        -13    1    3    3    0    0 -0.27632971616E+02 -0.18431397637E+03 -0.76694001799E+03  0.78926054899E+03  0.00000000000E+00 0. -1.
         22    1    1    2    0    0  0.19029607710E+03  0.56582867944E+03  0.12243298338E+03  0.60939685498E+03  0.00000000000E+00 0. -1.
<mgrwt>
<rscale>  0 0.22360851E+04</rscale>
<asrwt>0</asrwt>
<pdfrwt beam="1">  1        2 0.48402440E+00 0.22360851E+04</pdfrwt>
<pdfrwt beam="2">  1       -2 0.61125540E-01 0.22360851E+04</pdfrwt>
<totfact> 0.31941569E+00</totfact>
</mgrwt>
</event>
<event>
 6    1  0.2436515E-005  0.4905847E+04  0.7818608E-02  0.7843198E-01
          2   -1    0    0  501    0  0.00000000000E+00  0.00000000000E+00  0.29901369299E+04  0.29901369299E+04  0.00000000000E+00 0.  1.
         -2   -1    0    0    0  501 -0.00000000000E+00 -0.00000000000E+00 -0.20122270148E+04  0.20122270148E+04  0.00000000000E+00 0. -1.
         23    2    1    2    0    0  0.21299903870E+04  0.82749823820E+03 -0.41772717078E+03  0.23247875671E+04  0.92351828119E+02 0.  0.
         13    1    3    3    0    0  0.15878940372E+04  0.60407997212E+03 -0.27122784594E+03  0.17204315245E+04  0.00000000000E+00 0. -1.
        -13    1    3    3    0    0  0.54209634977E+03  0.22341826607E+03 -0.14649932485E+03  0.60435604260E+03  0.00000000000E+00 0.  1.
         22    1    1    2    0    0 -0.21299903870E+04 -0.82749823820E+03  0.13956370858E+04  0.26775763776E+04  0.00000000000E+00 0.  1.
<mgrwt>
<rscale>  0 0.49058472E+04</rscale>
<asrwt>0</asrwt>
<pdfrwt beam="1">  1        2 0.46002106E+00 0.49058472E+04</pdfrwt>
<pdfrwt beam="2">  1       -2 0.30957339E+00 0.49058472E+04</pdfrwt>
<totfact> 0.35946336E-02</totfact>
</mgrwt>
</event>
<event>
 6    1  0.2436515E-005  0.1376873E+04  0.7818608E-02  0.8970731E-01
          2   -1    0    0  501    0  0.00000000000E+00  0.00000000000E+00  0.64057874248E+03  0.64057874248E+03  0.00000000000E+00 0.  1.
         -2   -1    0    0    0  501 -0.00000000000E+00 -0.00000000000E+00 -0.73987018459E+03  0.73987018459E+03  0.00000000000E+00 0. -1.
         23    2    1    2    0    0 -0.65183731517E+03 -0.17306962329E+03 -0.16967659062E+03  0.70236408792E+03  0.98387939534E+02 0.  0.
         13    1    3    3    0    0 -0.43749592736E+03 -0.10309396562E+03 -0.66379221317E+02  0.45435366537E+03  0.00000000000E+00 0.  1.
        -13    1    3    3    0    0 -0.21434138780E+03 -0.69975657671E+02 -0.10329736930E+03  0.24801042256E+03  0.00000000000E+00 0. -1.
         22    1    1    2    0    0  0.65183731517E+03  0.17306962329E+03  0.70385148506E+02  0.67808483915E+03  0.00000000000E+00 0.  1.
<mgrwt>
<rscale>  0 0.13768734E+04</rscale>
<asrwt>0</asrwt>
<pdfrwt beam="1">  1        2 0.98550576E-01 0.13768734E+04</pdfrwt>
<pdfrwt beam="2">  1       -2 0.11382618E+00 0.13768734E+04</pdfrwt>
<totfact> 0.26984537E+01</totfact>
</mgrwt>
</event>
<event>
 6    1  0.2436515E-005  0.1256604E+04  0.7818608E-02  0.9064704E-01
         -2   -1    0    0    0  501 -0.00000000000E+00  0.00000000000E+00  0.20178164496E+03  0.20178164496E+03  0.00000000000E+00 0. -1.
          2   -1    0    0  501    0  0.00000000000E+00 -0.00000000000E+00 -0.19563904328E+04  0.19563904328E+04  0.00000000000E+00 0.  1.
         23    2    1    2    0    0  0.46216580264E+03  0.28623671693E+03 -0.14115868777E+04  0.15153713948E+04  0.90797926340E+02 0.  0.
         11    1    3    3    0    0  0.22870104984E+03  0.14535715115E+03 -0.82817492399E+03  0.87138199219E+03  0.00000000000E+00 0.  1.
        -11    1    3    3    0    0  0.23346475280E+03  0.14087956579E+03 -0.58341195374E+03  0.64398940257E+03  0.00000000000E+00 0. -1.
         22    1    1    2    0    0 -0.46216580264E+03 -0.28623671693E+03 -0.34302191012E+03  0.64280068300E+03  0.00000000000E+00 0. -1.
<mgrwt>
<rscale>  0 0.12566044E+04</rscale>
<asrwt>0</asrwt>
<pdfrwt beam="1">  1        2 0.30098316E+00 0.12566044E+04</pdfrwt>
<pdfrwt beam="2">  1       -2 0.31043328E-01 0.12566044E+04</pdfrwt>
<totfact> 0.66857134E+01</totfact>
</mgrwt>
</event>
<event>
 6    1  0.2436515E-005  0.1698133E+04  0.7818608E-02  0.8762430E-01
         -2   -1    0    0    0  501 -0.00000000000E+00  0.00000000000E+00  0.10370703429E+04  0.10370703429E+04  0.00000000000E+00 0. -1.
          2   -1    0    0  501    0  0.00000000000E+00 -0.00000000000E+00 -0.69514427180E+03  0.69514427180E+03  0.00000000000E+00 0.  1.
         23    2    1    2    0    0 -0.44338123246E+03 -0.42697339253E+03  0.76438281493E+03  0.98564720609E+03  0.91247640480E+02 0.  0.
         11    1    3    3    0    0 -0.17737130044E+03 -0.11322604678E+03  0.24016397602E+03  0.31931090065E+03  0.00000000000E+00 0.  1.
        -11    1    3    3    0    0 -0.26600993202E+03 -0.31374734575E+03  0.52421883890E+03  0.66633630545E+03  0.00000000000E+00 0. -1.
         22    1    1    2    0    0  0.44338123246E+03  0.42697339253E+03 -0.42245674381E+03  0.74656740862E+03  0.00000000000E+00 0.  1.
<mgrwt>
<rscale>  0 0.16981325E+04</rscale>
<asrwt>0</asrwt>
<pdfrwt beam="1">  1        2 0.10694527E+00 0.16981325E+04</pdfrwt>
<pdfrwt beam="2">  1       -2 0.15954928E+00 0.16981325E+04</pdfrwt>
<totfact> 0.99791436E+00</totfact>
</mgrwt>
</event>
<event>
 6    1  0.2436515E-005  0.2716037E+04  0.7818608E-02  0.8329820E-01
          2   -1    0    0  501    0  0.00000000000E+00  0.00000000000E+00  0.23120016340E+04  0.23120016340E+04  0.00000000000E+00 0.  1.
         -2   -1    0    0    0  501 -0.00000000000E+00 -0.00000000000E+00 -0.79766996617E+03  0.79766996617E+03  0.00000000000E+00 0. -1.
         23    2    1    2    0    0 -0.58953918768E+03 -0.94057556250E+00 -0.64096967630E+03  0.87519599669E+03  0.86997518300E+02 0.  0.
         13    1    3    3    0    0 -0.16247089207E+03 -0.23306697206E+02 -0.22591528986E+03  0.27924489449E+03  0.00000000000E+00 0.  1.
        -13    1    3    3    0    0 -0.42706829561E+03  0.22366121643E+02 -0.41505438645E+03  0.59595110221E+03  0.00000000000E+00 0. -1.
         22    1    1    2    0    0  0.58953918768E+03  0.94057556250E+00  0.21553013442E+04  0.22344756035E+04  0.00000000000E+00 0.  1.
<mgrwt>
<rscale>  0 0.27160370E+04</rscale>
<asrwt>0</asrwt>
<pdfrwt beam="1">  1        2 0.35569256E+00 0.27160370E+04</pdfrwt>
<pdfrwt beam="2">  1       -2 0.12271846E+00 0.27160370E+04</pdfrwt>
<totfact> 0.19632236E+00</totfact>
</mgrwt>
</event>
<event>
 6    1  0.2436515E-005  0.3004590E+04  0.7818608E-02  0.8242421E-01
         -2   -1    0    0    0  501 -0.00000000000E+00  0.00000000000E+00  0.99996206089E+03  0.99996206089E+03  0.00000000000E+00 0. -1.
          2   -1    0    0  501    0  0.00000000000E+00 -0.00000000000E+00 -0.22569759979E+04  0.22569759979E+04  0.00000000000E+00 0.  1.
         23    2    1    2    0    0 -0.49756153521E+03 -0.20186762144E+03 -0.21483000751E+04  0.22164050234E+04  0.94551556924E+02 0.  0.
         13    1    3    3    0    0 -0.40605143140E+03 -0.14633864573E+03 -0.18436053806E+04  0.18934554559E+04  0.00000000000E+00 0.  1.
        -13    1    3    3    0    0 -0.91510103813E+02 -0.55528975705E+02 -0.30469469454E+03  0.32294956746E+03  0.00000000000E+00 0. -1.
         22    1    1    2    0    0  0.49756153521E+03  0.20186762144E+03  0.89128613809E+03  0.10405330355E+04  0.00000000000E+00 0. -1.
<mgrwt>
<rscale>  0 0.30045901E+04</rscale>
<asrwt>0</asrwt>
<pdfrwt beam="1">  1        2 0.34722707E+00 0.30045901E+04</pdfrwt>
<pdfrwt beam="2">  1       -2 0.15384032E+00 0.30045901E+04</pdfrwt>
<totfact> 0.11493090E+00</totfact>
</mgrwt>
</event>
<event>
 6    1  0.2436515E-005  0.1579638E+04  0.7818608E-02  0.8833156E-01
         -2   -1    0    0    0  501 -0.00000000000E+00  0.00000000000E+00  0.26118332421E+03  0.26118332421E+03  0.00000000000E+00 0. -1.
          2   -1    0    0  501    0  0.00000000000E+00 -0.00000000000E+00 -0.23884150014E+04  0.23884150014E+04  0.00000000000E+00 0.  1.
         23    2    1    2    0    0 -0.17316843970E+02  0.67218762864E+03 -0.17539570563E+04  0.18805274422E+04  0.88780764475E+02 0.  0.
         11    1    3    3    0    0 -0.47304800866E+02  0.28057413435E+03 -0.78641027551E+03  0.83630180585E+03  0.00000000000E+00 0. -1.
        -11    1    3    3    0    0  0.29987956895E+02  0.39161349429E+03 -0.96754678082E+03  0.10442256363E+04  0.00000000000E+00 0.  1.
         22    1    1    2    0    0  0.17316843970E+02 -0.67218762864E+03 -0.37327462087E+03  0.76907088344E+03  0.00000000000E+00 0. -1.
<mgrwt>
<rscale>  0 0.15796381E+04</rscale>
<asrwt>0</asrwt>
<pdfrwt beam="1">  1        2 0.36744848E+00 0.15796381E+04</pdfrwt>
<pdfrwt beam="2">  1       -2 0.40182048E-01 0.15796381E+04</pdfrwt>
<totfact> 0.22763616E+01</totfact>
</mgrwt>
</event>
<event>
 6    1  0.2436515E-005  0.2663231E+04  0.7818608E-02  0.8347035E-01
         -2   -1    0    0    0  501 -0.00000000000E+00  0.00000000000E+00  0.83956513740E+03  0.83956513740E+03  0.00000000000E+00 0. -1.
          2   -1    0    0  501    0  0.00000000000E+00 -0.00000000000E+00 -0.21120450975E+04  0.21120450975E+04  0.00000000000E+00 0.  1.
         23    2    1    2    0    0 -0.14794939929E+03 -0.62627644007E+03  0.65308751306E+03  0.92135869930E+03  0.90924963199E+02 0.  0.
         13    1    3    3    0    0 -0.13780000069E+03 -0.40913170124E+03  0.41239303894E+03  0.59703065894E+03  0.00000000000E+00 0.  1.
        -13    1    3    3    0    0 -0.10149398597E+02 -0.21714473882E+03  0.24069447412E+03  0.32432804036E+03  0.00000000000E+00 0. -1.
         22    1    1    2    0    0  0.14794939929E+03  0.62627644007E+03 -0.19255674732E+04  0.20302515356E+04  0.00000000000E+00 0.  1.
<mgrwt>
<rscale>  0 0.26632307E+04</rscale>
<asrwt>0</asrwt>
<pdfrwt beam="1">  1        2 0.32493001E+00 0.26632307E+04</pdfrwt>
<pdfrwt beam="2">  1       -2 0.12916387E+00 0.26632307E+04</pdfrwt>
<totfact> 0.22473481E+00</totfact>
</mgrwt>
</event>
<event>
 6    1  0.2555112E-005  0.2063103E+04  0.7818608E-02  0.8577673E-01
         -2   -1    0    0    0  501 -0.00000000000E+00  0.00000000000E+00  0.13670531657E+04  0.13670531657E+04  0.00000000000E+00 0.  1.
          2   -1    0    0  501    0  0.00000000000E+00 -0.00000000000E+00 -0.77838845049E+03  0.77838845049E+03  0.00000000000E+00 0. -1.
         23    2    1    2    0    0 -0.19288912021E+03 -0.90848498003E+03 -0.16709340014E+03  0.94806051540E+03  0.91363914396E+02 0.  0.
         13    1    3    3    0    0 -0.11659931563E+03 -0.39604388150E+03 -0.10704812489E+03  0.42650376027E+03  0.00000000000E+00 0. -1.
        -13    1    3    3    0    0 -0.76289804577E+02 -0.51244109852E+03 -0.60045275250E+02  0.52155675513E+03  0.00000000000E+00 0.  1.
         22    1    1    2    0    0  0.19288912021E+03  0.90848498003E+03  0.75575811535E+03  0.11973811008E+04  0.00000000000E+00 0.  1.
<mgrwt>
<rscale>  0 0.20631029E+04</rscale>
<asrwt>0</asrwt>
<pdfrwt beam="1">  1        2 0.11975207E+00 0.20631029E+04</pdfrwt>
<pdfrwt beam="2">  1       -2 0.21031587E+00 0.20631029E+04</pdfrwt>
<totfact> 0.37611838E+00</totfact>
</mgrwt>
</event>
<event>
 6    1  0.2436515E-005  0.1405475E+04  0.7818608E-02  0.8949865E-01
          2   -1    0    0  501    0  0.00000000000E+00  0.00000000000E+00  0.13639399810E+04  0.13639399810E+04  0.00000000000E+00 0.  1.
         -2   -1    0    0    0  501 -0.00000000000E+00 -0.00000000000E+00 -0.36206847827E+03  0.36206847827E+03  0.00000000000E+00 0. -1.
         23    2    1    2    0    0  0.12616707553E+03 -0.20864834000E+03 -0.30243262056E+03  0.39910925182E+03  0.91490131567E+02 0.  0.
         13    1    3    3    0    0  0.16908099383E+02 -0.59232067636E+02 -0.13957220531E+03  0.15256055243E+03  0.00000000000E+00 0. -1.
        -13    1    3    3    0    0  0.10925897615E+03 -0.14941627236E+03 -0.16286041525E+03  0.24654869939E+03  0.00000000000E+00 0.  1.
         22    1    1    2    0    0 -0.12616707553E+03  0.20864834000E+03  0.13043041232E+04  0.13268992074E+04  0.00000000000E+00 0.  1.
<mgrwt>
<rscale>  0 0.14054745E+04</rscale>
<asrwt>0</asrwt>
<pdfrwt beam="1">  1        2 0.20983692E+00 0.14054745E+04</pdfrwt>
<pdfrwt beam="2">  1       -2 0.55702844E-01 0.14054745E+04</pdfrwt>
<totfact> 0.44704632E+01</totfact>
</mgrwt>
</event>
<event>
 6    1  0.2436515E-005  0.2448102E+04  0.7818608E-02  0.8421711E-01
          2   -1    0    0  501    0  0.00000000000E+00  0.00000000000E+00  0.15394578182E+04  0.15394578182E+04  0.00000000000E+00 0. -1.
         -2   -1    0    0    0  501 -0.00000000000E+00 -0.00000000000E+00 -0.97326490996E+03  0.97326490996E+03  0.00000000000E+00 0.  1.
         23    2    1    2    0    0 -0.63735717569E+03 -0.97552153887E+03  0.66244507979E+03  0.13434789885E+04  0.90751675355E+02 0.  0.
         11    1    3    3    0    0 -0.36180054208E+03 -0.47582833482E+03  0.35674346183E+03  0.69611646584E+03  0.00000000000E+00 0. -1.
        -11    1    3    3    0    0 -0.27555663360E+03 -0.49969320405E+03  0.30570161796E+03  0.64736252264E+03  0.00000000000E+00 0.  1.
         22    1    1    2    0    0  0.63735717569E+03  0.97552153887E+03 -0.96252171560E+02  0.11692437397E+04  0.00000000000E+00 0. -1.
<mgrwt>
<rscale>  0 0.24481015E+04</rscale>
<asrwt>0</asrwt>
<pdfrwt beam="1">  1        2 0.23683967E+00 0.24481015E+04</pdfrwt>
<pdfrwt beam="2">  1       -2 0.14973306E+00 0.24481015E+04</pdfrwt>
<totfact> 0.32522831E+00</totfact>
</mgrwt>
</event>
<event>
 6    1  0.2436515E-005  0.1942302E+04  0.7818608E-02  0.8634082E-01
         -2   -1    0    0    0  501 -0.00000000000E+00  0.00000000000E+00  0.34662270028E+03  0.34662270028E+03  0.00000000000E+00 0. -1.
          2   -1    0    0  501    0  0.00000000000E+00 -0.00000000000E+00 -0.27209233133E+04  0.27209233133E+04  0.00000000000E+00 0.  1.
         23    2    1    2    0    0 -0.40033452586E+03 -0.92072522251E+02 -0.25758382072E+04  0.26099845600E+04  0.91278975966E+02 0.  0.
         13    1    3    3    0    0 -0.68967746122E+02 -0.17111670042E+01 -0.66059403740E+03  0.66418669088E+03  0.00000000000E+00 0.  1.
        -13    1    3    3    0    0 -0.33136677974E+03 -0.90361355246E+02 -0.19152441698E+04  0.19457978691E+04  0.00000000000E+00 0. -1.
         22    1    1    2    0    0  0.40033452586E+03  0.92072522251E+02  0.20153759422E+03  0.45756145362E+03  0.00000000000E+00 0. -1.
<mgrwt>
<rscale>  0 0.19423015E+04</rscale>
<asrwt>0</asrwt>
<pdfrwt beam="1">  1        2 0.41860359E+00 0.19423015E+04</pdfrwt>
<pdfrwt beam="2">  1       -2 0.53326569E-01 0.19423015E+04</pdfrwt>
<totfact> 0.79949620E+00</totfact>
</mgrwt>
</event>
<event>
 6    1  0.2436515E-005  0.5837351E+03  0.7818608E-02  0.9939737E-01
          2   -1    0    0  501    0  0.00000000000E+00  0.00000000000E+00  0.80835578249E+03  0.80835578249E+03  0.00000000000E+00 0.  1.
         -2   -1    0    0    0  501 -0.00000000000E+00 -0.00000000000E+00 -0.10538265462E+03  0.10538265462E+03  0.00000000000E+00 0. -1.
         23    2    1    2    0    0 -0.12634406092E+03 -0.61648011317E+02  0.74683628196E+03  0.76647243521E+03  0.99761028722E+02 0.  0.
         11    1    3    3    0    0 -0.11313539200E+02  0.15509828552E+02  0.24863033843E+03  0.24937039949E+03  0.00000000000E+00 0.  1.
        -11    1    3    3    0    0 -0.11503052172E+03 -0.77157839869E+02  0.49820594353E+03  0.51710203572E+03  0.00000000000E+00 0. -1.
         22    1    1    2    0    0  0.12634406092E+03  0.61648011317E+02 -0.43863154085E+02  0.14726600190E+03  0.00000000000E+00 0. -1.
<mgrwt>
<rscale>  0 0.58373514E+03</rscale>
<asrwt>0</asrwt>
<pdfrwt beam="1">  1        2 0.12436242E+00 0.58373514E+03</pdfrwt>
<pdfrwt beam="2">  1       -2 0.16212717E-01 0.58373514E+03</pdfrwt>
<totfact> 0.10482167E+03</totfact>
</mgrwt>
</event>
<event>
 6    1  0.2436515E-005  0.9227124E+03  0.7818608E-02  0.9397627E-01
          2   -1    0    0  501    0  0.00000000000E+00  0.00000000000E+00  0.22633415470E+04  0.22633415470E+04  0.00000000000E+00 0.  1.
         -2   -1    0    0    0  501 -0.00000000000E+00 -0.00000000000E+00 -0.94042157820E+02  0.94042157820E+02  0.00000000000E+00 0. -1.
         23    2    1    2    0    0  0.29902644479E+02  0.12695344556E+03  0.22134792009E+04  0.22196767651E+04  0.10229087561E+03 0.  0.
         11    1    3    3    0    0  0.50571807484E+02  0.66810223265E+02  0.72263731625E+03  0.72747907494E+03  0.00000000000E+00 0. -1.
        -11    1    3    3    0    0 -0.20669163006E+02  0.60143222295E+02  0.14908418846E+04  0.14921976901E+04  0.00000000000E+00 0.  1.
         22    1    1    2    0    0 -0.29902644479E+02 -0.12695344556E+03 -0.44179811710E+02  0.13770693973E+03  0.00000000000E+00 0. -1.
<mgrwt>
<rscale>  0 0.92271236E+03</rscale>
<asrwt>0</asrwt>
<pdfrwt beam="1">  1        2 0.34820635E+00 0.92271236E+03</pdfrwt>
<pdfrwt beam="2">  1       -2 0.14468026E-01 0.92271236E+03</pdfrwt>
<totfact> 0.17980237E+02</totfact>
</mgrwt>
</event>
<event>
 6    1  0.2436515E-005  0.3204347E+04  0.7818608E-02  0.8187670E-01
          2   -1    0    0  501    0  0.00000000000E+00  0.00000000000E+00  0.24777612608E+04  0.24777612608E+04  0.00000000000E+00 0.  1.
         -2   -1    0    0    0  501 -0.00000000000E+00 -0.00000000000E+00 -0.10359995160E+04  0.10359995160E+04  0.00000000000E+00 0. -1.
         23    2    1    2    0    0 -0.14665822630E+04 -0.63789864618E+03  0.80122679211E+03  0.17909539848E+04  0.88167943809E+02 0.  0.
         11    1    3    3    0    0 -0.86448556262E+03 -0.34506504215E+03  0.42905419800E+03  0.10249354497E+04  0.00000000000E+00 0.  1.
        -11    1    3    3    0    0 -0.60209670040E+03 -0.29283360403E+03  0.37217259411E+03  0.76601853508E+03  0.00000000000E+00 0. -1.
         22    1    1    2    0    0  0.14665822630E+04  0.63789864618E+03  0.64053495272E+03  0.17228067920E+04  0.00000000000E+00 0.  1.
<mgrwt>
<rscale>  0 0.32043467E+04</rscale>
<asrwt>0</asrwt>
<pdfrwt beam="1">  1        2 0.38119404E+00 0.32043467E+04</pdfrwt>
<pdfrwt beam="2">  1       -2 0.15938454E+00 0.32043467E+04</pdfrwt>
<totfact> 0.76822621E-01</totfact>
</mgrwt>
</event>
<event>
 6    1  0.2436515E-005  0.1056663E+04  0.7818608E-02  0.9248492E-01
         -2   -1    0    0    0  501 -0.00000000000E+00  0.00000000000E+00  0.38295324220E+03  0.38295324220E+03  0.00000000000E+00 0. -1.
          2   -1    0    0  501    0  0.00000000000E+00 -0.00000000000E+00 -0.72889925002E+03  0.72889925002E+03  0.00000000000E+00 0.  1.
         23    2    1    2    0    0 -0.41084376389E+03  0.53056093850E+02  0.16553633881E+03  0.45365667155E+03  0.82429052885E+02 0.  0.
         11    1    3    3    0    0 -0.22096514445E+03  0.20271558564E+02  0.13165991360E+03  0.25801330198E+03  0.00000000000E+00 0. -1.
        -11    1    3    3    0    0 -0.18987861944E+03  0.32784535286E+02  0.33876425202E+02  0.19564336957E+03  0.00000000000E+00 0.  1.
         22    1    1    2    0    0  0.41084376389E+03 -0.53056093850E+02 -0.51148234663E+03  0.65819582066E+03  0.00000000000E+00 0.  1.
<mgrwt>
<rscale>  0 0.10566633E+04</rscale>
<asrwt>0</asrwt>
<pdfrwt beam="1">  1        2 0.11213835E+00 0.10566633E+04</pdfrwt>
<pdfrwt beam="2">  1       -2 0.58915884E-01 0.10566633E+04</pdfrwt>
<totfact> 0.10428809E+02</totfact>
</mgrwt>
</event>
<event>
 6    1  0.2436515E-005  0.3412227E+04  0.7818608E-02  0.8134912E-01
         -2   -1    0    0    0  501 -0.00000000000E+00  0.00000000000E+00  0.20299971584E+04  0.20299971584E+04  0.00000000000E+00 0. -1.
          2   -1    0    0  501    0  0.00000000000E+00 -0.00000000000E+00 -0.14339053941E+04  0.14339053941E+04  0.00000000000E+00 0.  1.
         23    2    1    2    0    0 -0.87205641755E+02 -0.13037614303E+04 -0.81338952663E+03  0.15419149874E+04  0.92198781857E+02 0.  0.
         11    1    3    3    0    0 -0.90580437109E+02 -0.93750442737E+03 -0.62125700079E+03  0.11283083036E+04  0.00000000000E+00 0. -1.
        -11    1    3    3    0    0  0.33747953538E+01 -0.36625700294E+03 -0.19213252584E+03  0.41360668386E+03  0.00000000000E+00 0.  1.
         22    1    1    2    0    0  0.87205641755E+02  0.13037614303E+04  0.14094812909E+04  0.19219875651E+04  0.00000000000E+00 0. -1.
<mgrwt>
<rscale>  0 0.34122274E+04</rscale>
<asrwt>0</asrwt>
<pdfrwt beam="1">  1        2 0.22060083E+00 0.34122274E+04</pdfrwt>
<pdfrwt beam="2">  1       -2 0.31230725E+00 0.34122274E+04</pdfrwt>
<totfact> 0.30584326E-01</totfact>
</mgrwt>
</event>
<event>
 6    1  0.2436515E-005  0.3563366E+04  0.7818608E-02  0.8098935E-01
         -2   -1    0    0    0  501 -0.00000000000E+00  0.00000000000E+00  0.15685586487E+04  0.15685586487E+04  0.00000000000E+00 0. -1.
          2   -1    0    0  501    0  0.00000000000E+00 -0.00000000000E+00 -0.20237650299E+04  0.20237650299E+04  0.00000000000E+00 0.  1.
         23    2    1    2    0    0  0.42679733519E+03 -0.16850735284E+04  0.16094464395E+03  0.17480702125E+04  0.90650582863E+02 0.  0.
         11    1    3    3    0    0  0.14503587792E+03 -0.66782238300E+03  0.10104865744E+03  0.69082050657E+03  0.00000000000E+00 0.  1.
        -11    1    3    3    0    0  0.28176145727E+03 -0.10172511454E+04  0.59895986505E+02  0.10572497060E+04  0.00000000000E+00 0. -1.
         22    1    1    2    0    0 -0.42679733519E+03  0.16850735284E+04 -0.61615102518E+03  0.18442534661E+04  0.00000000000E+00 0.  1.
<mgrwt>
<rscale>  0 0.35633659E+04</rscale>
<asrwt>0</asrwt>
<pdfrwt beam="1">  1        2 0.31134847E+00 0.35633659E+04</pdfrwt>
<pdfrwt beam="2">  1       -2 0.24131672E+00 0.35633659E+04</pdfrwt>
<totfact> 0.38516395E-01</totfact>
</mgrwt>
</event>
<event>
 6    1  0.2436515E-005  0.2942961E+04  0.7818608E-02  0.8260209E-01
         -2   -1    0    0    0  501 -0.00000000000E+00  0.00000000000E+00  0.89706028596E+03  0.89706028596E+03  0.00000000000E+00 0. -1.
          2   -1    0    0  501    0  0.00000000000E+00 -0.00000000000E+00 -0.24137220243E+04  0.24137220243E+04  0.00000000000E+00 0.  1.
         23    2    1    2    0    0  0.86082611762E+03  0.10387257685E+04 -0.10187685233E+03  0.13558937966E+04  0.89979262752E+02 0.  0.
         11    1    3    3    0    0  0.24190461678E+03  0.23786141101E+03 -0.43876279403E+02  0.34208335587E+03  0.00000000000E+00 0.  1.
        -11    1    3    3    0    0  0.61892150084E+03  0.80086435751E+03 -0.58000572922E+02  0.10138104408E+04  0.00000000000E+00 0. -1.
         22    1    1    2    0    0 -0.86082611762E+03 -0.10387257685E+04 -0.14147848860E+04  0.19548885136E+04  0.00000000000E+00 0. -1.
<mgrwt>
<rscale>  0 0.29429605E+04</rscale>
<asrwt>0</asrwt>
<pdfrwt beam="1">  1        2 0.37134185E+00 0.29429605E+04</pdfrwt>
<pdfrwt beam="2">  1       -2 0.13800927E+00 0.29429605E+04</pdfrwt>
<totfact> 0.12513960E+00</totfact>
</mgrwt>
</event>
<event>
 6    1  0.3102147E-005  0.4782833E+04  0.7818608E-02  0.7862909E-01
          2   -1    0    0  501    0  0.00000000000E+00  0.00000000000E+00  0.22339621552E+04  0.22339621552E+04  0.00000000000E+00 0.  1.
         -2   -1    0    0    0  501 -0.00000000000E+00 -0.00000000000E+00 -0.25599680551E+04  0.25599680551E+04  0.00000000000E+00 0. -1.
         23    2    1    2    0    0  0.23541690676E+03 -0.13024770526E+04  0.18322913252E+04  0.22621098169E+04  0.89340532899E+02 0.  0.
         13    1    3    3    0    0  0.16032383173E+03 -0.83514995521E+03  0.11046768032E+04  0.13940911083E+04  0.00000000000E+00 0. -1.
        -13    1    3    3    0    0  0.75093075026E+02 -0.46732709737E+03  0.72761452200E+03  0.86801870860E+03  0.00000000000E+00 0.  1.
         22    1    1    2    0    0 -0.23541690676E+03  0.13024770526E+04 -0.21582972252E+04  0.25318203934E+04  0.00000000000E+00 0. -1.
<mgrwt>
<rscale>  0 0.47828325E+04</rscale>
<asrwt>0</asrwt>
<pdfrwt beam="1">  1        2 0.34368649E+00 0.47828325E+04</pdfrwt>
<pdfrwt beam="2">  1       -2 0.39384124E+00 0.47828325E+04</pdfrwt>
<totfact> 0.29811492E-02</totfact>
</mgrwt>
</event>
<event>
 6    1  0.2436515E-005  0.5155850E+03  0.7818608E-02  0.1009789E+00
         -2   -1    0    0    0  501 -0.00000000000E+00  0.00000000000E+00  0.62765607227E+02  0.62765607227E+02  0.00000000000E+00 0. -1.
          2   -1    0    0  501    0  0.00000000000E+00 -0.00000000000E+00 -0.10588120086E+04  0.10588120086E+04  0.00000000000E+00 0.  1.
         23    2    1    2    0    0  0.11865926558E+02 -0.18793209500E+02 -0.10547023597E+04  0.10588519720E+04  0.90974975139E+02 0.  0.
         11    1    3    3    0    0 -0.27795025734E+02 -0.39073809405E+02 -0.46349633297E+03  0.46597014573E+03  0.00000000000E+00 0.  1.
        -11    1    3    3    0    0  0.39660952291E+02  0.20280599905E+02 -0.59120602677E+03  0.59288182630E+03  0.00000000000E+00 0. -1.
         22    1    1    2    0    0 -0.11865926558E+02  0.18793209500E+02  0.58655958371E+02  0.62725643789E+02  0.00000000000E+00 0. -1.
<mgrwt>
<rscale>  0 0.51558502E+03</rscale>
<asrwt>0</asrwt>
<pdfrwt beam="1">  1        2 0.16289414E+00 0.51558502E+03</pdfrwt>
<pdfrwt beam="2">  1       -2 0.96562480E-02 0.51558502E+03</pdfrwt>
<totfact> 0.16928096E+03</totfact>
</mgrwt>
</event>
<event>
 6    1  0.2436515E-005  0.3543759E+04  0.7818608E-02  0.8103497E-01
         -2   -1    0    0    0  501 -0.00000000000E+00  0.00000000000E+00  0.20278837747E+04  0.20278837747E+04  0.00000000000E+00 0. -1.
          2   -1    0    0  501    0  0.00000000000E+00 -0.00000000000E+00 -0.15481939296E+04  0.15481939296E+04  0.00000000000E+00 0.  1.
         23    2    1    2    0    0 -0.54017038684E+02  0.13680972008E+04  0.13731482419E+04  0.19411845280E+04  0.89741217601E+02 0.  0.
         13    1    3    3    0    0 -0.77438292212E+02  0.11189265753E+04  0.11088019380E+04  0.15771604572E+04  0.00000000000E+00 0.  1.
        -13    1    3    3    0    0  0.23421253528E+02  0.24917062547E+03  0.26434630391E+03  0.36402407078E+03  0.00000000000E+00 0. -1.
         22    1    1    2    0    0  0.54017038684E+02 -0.13680972008E+04 -0.89345839681E+03  0.16348931763E+04  0.00000000000E+00 0.  1.
<mgrwt>
<rscale>  0 0.35437592E+04</rscale>
<asrwt>0</asrwt>
<pdfrwt beam="1">  1        2 0.23818368E+00 0.35437592E+04</pdfrwt>
<pdfrwt beam="2">  1       -2 0.31198212E+00 0.35437592E+04</pdfrwt>
<totfact> 0.26191637E-01</totfact>
</mgrwt>
</event>
<event>
 6    1  0.2436515E-005  0.4147020E+04  0.7818608E-02  0.7975527E-01
         -2   -1    0    0    0  501 -0.00000000000E+00  0.00000000000E+00  0.18239953382E+04  0.18239953382E+04  0.00000000000E+00 0. -1.
          2   -1    0    0  501    0  0.00000000000E+00 -0.00000000000E+00 -0.23571571688E+04  0.23571571688E+04  0.00000000000E+00 0.  1.
         23    2    1    2    0    0  0.30645738665E+03  0.15131613465E+04 -0.16607199483E+04  0.22693573561E+04  0.91753324844E+02 0.  0.
         13    1    3    3    0    0  0.17290134775E+03  0.94201572023E+03 -0.96928361482E+03  0.13626442012E+04  0.00000000000E+00 0. -1.
        -13    1    3    3    0    0  0.13355603890E+03  0.57114562623E+03 -0.69143633348E+03  0.90671315483E+03  0.00000000000E+00 0.  1.
         22    1    1    2    0    0 -0.30645738665E+03 -0.15131613465E+04  0.11275581177E+04  0.19117951509E+04  0.00000000000E+00 0. -1.
<mgrwt>
<rscale>  0 0.41470200E+04</rscale>
<asrwt>0</asrwt>
<pdfrwt beam="1">  1        2 0.36263957E+00 0.41470200E+04</pdfrwt>
<pdfrwt beam="2">  1       -2 0.28061467E+00 0.41470200E+04</pdfrwt>
<totfact> 0.13691560E-01</totfact>
</mgrwt>
</event>
<event>
 6    1  0.2436515E-005  0.3940936E+04  0.7818608E-02  0.8016569E-01
          1   -1    0    0  501    0  0.00000000000E+00  0.00000000000E+00  0.33363123480E+04  0.33363123480E+04  0.00000000000E+00 0.  1.
         -1   -1    0    0    0  501 -0.00000000000E+00 -0.00000000000E+00 -0.11637830410E+04  0.11637830410E+04  0.00000000000E+00 0. -1.
         23    2    1    2    0    0 -0.13979825252E+04  0.11892945792E+04  0.27155526528E+03  0.18576573019E+04  0.91496733051E+02 0.  0.
         13    1    3    3    0    0 -0.12409524877E+04  0.10864459762E+04  0.22879289927E+03  0.16651348674E+04  0.00000000000E+00 0. -1.
        -13    1    3    3    0    0 -0.15703003749E+03  0.10284860300E+03  0.42762366008E+02  0.19252243444E+03  0.00000000000E+00 0.  1.
         22    1    1    2    0    0  0.13979825252E+04 -0.11892945792E+04  0.19009740418E+04  0.26424380872E+04  0.00000000000E+00 0.  1.
<mgrwt>
<rscale>  0 0.39409358E+04</rscale>
<asrwt>0</asrwt>
<pdfrwt beam="1">  1        1 0.51327882E+00 0.39409358E+04</pdfrwt>
<pdfrwt beam="2">  1       -1 0.17904355E+00 0.39409358E+04</pdfrwt>
<totfact> 0.55638182E-02</totfact>
</mgrwt>
</event>
<event>
 6    1  0.2436515E-005  0.2234162E+04  0.7818608E-02  0.8504342E-01
         -2   -1    0    0    0  501 -0.00000000000E+00  0.00000000000E+00  0.14571983972E+04  0.14571983972E+04  0.00000000000E+00 0. -1.
          2   -1    0    0  501    0  0.00000000000E+00 -0.00000000000E+00 -0.85634892753E+03  0.85634892753E+03  0.00000000000E+00 0.  1.
         23    2    1    2    0    0 -0.30596033476E+03 -0.15810068613E+03  0.13991155362E+04  0.14441588808E+04  0.97278136834E+02 0.  0.
         11    1    3    3    0    0 -0.55522561190E+02 -0.74109882626E+02  0.41539960417E+03  0.42559588890E+03  0.00000000000E+00 0. -1.
        -11    1    3    3    0    0 -0.25043777357E+03 -0.83990803506E+02  0.98371593208E+03  0.10185629919E+04  0.00000000000E+00 0.  1.
         22    1    1    2    0    0  0.30596033476E+03  0.15810068613E+03 -0.79826606656E+03  0.86938844392E+03  0.00000000000E+00 0.  1.
<mgrwt>
<rscale>  0 0.22341623E+04</rscale>
<asrwt>0</asrwt>
<pdfrwt beam="1">  1        2 0.13174599E+00 0.22341623E+04</pdfrwt>
<pdfrwt beam="2">  1       -2 0.22418437E+00 0.22341623E+04</pdfrwt>
<totfact> 0.26621907E+00</totfact>
</mgrwt>
</event>
<event>
 6    1  0.2436515E-005  0.1516243E+04  0.7818608E-02  0.8873723E-01
          2   -1    0    0  501    0  0.00000000000E+00  0.00000000000E+00  0.40710606878E+03  0.40710606878E+03  0.00000000000E+00 0.  1.
         -2   -1    0    0    0  501 -0.00000000000E+00 -0.00000000000E+00 -0.14117906744E+04  0.14117906744E+04  0.00000000000E+00 0. -1.
         23    2    1    2    0    0 -0.70680955529E+03 -0.22754401825E+03 -0.33778252570E+03  0.82084142814E+03  0.91255617821E+02 0.  0.
         11    1    3    3    0    0 -0.20958490403E+03 -0.98550729332E+02 -0.13852238791E+03  0.26986391052E+03  0.00000000000E+00 0.  1.
        -11    1    3    3    0    0 -0.49722465125E+03 -0.12899328892E+03 -0.19926013780E+03  0.55097751761E+03  0.00000000000E+00 0. -1.
         22    1    1    2    0    0  0.70680955529E+03  0.22754401825E+03 -0.66690207994E+03  0.99805531506E+03  0.00000000000E+00 0.  1.
<mgrwt>
<rscale>  0 0.15162435E+04</rscale>
<asrwt>0</asrwt>
<pdfrwt beam="1">  1        2 0.62631703E-01 0.15162435E+04</pdfrwt>
<pdfrwt beam="2">  1       -2 0.21719856E+00 0.15162435E+04</pdfrwt>
<totfact> 0.77405160E+00</totfact>
</mgrwt>
</event>
<event>
 6    1  0.2436515E-005  0.3786208E+04  0.7818608E-02  0.8049121E-01
         -2   -1    0    0    0  501 -0.00000000000E+00  0.00000000000E+00  0.26988290482E+04  0.26988290482E+04  0.00000000000E+00 0. -1.
          2   -1    0    0  501    0  0.00000000000E+00 -0.00000000000E+00 -0.13279247905E+04  0.13279247905E+04  0.00000000000E+00 0.  1.
         23    2    1    2    0    0 -0.13567062331E+04  0.28909040409E+02  0.20884218023E+04  0.24917232325E+04  0.75442079797E+02 0.  0.
         13    1    3    3    0    0 -0.37976940232E+03  0.25577647346E+02  0.63981378266E+03  0.74447343234E+03  0.00000000000E+00 0.  1.
        -13    1    3    3    0    0 -0.97693683074E+03  0.33313930637E+01  0.14486080197E+04  0.17472498001E+04  0.00000000000E+00 0. -1.
         22    1    1    2    0    0  0.13567062331E+04 -0.28909040409E+02 -0.71751754458E+03  0.15350306063E+04  0.00000000000E+00 0.  1.
<mgrwt>
<rscale>  0 0.37862076E+04</rscale>
<asrwt>0</asrwt>
<pdfrwt beam="1">  1        2 0.20429612E+00 0.37862076E+04</pdfrwt>
<pdfrwt beam="2">  1       -2 0.41520447E+00 0.37862076E+04</pdfrwt>
<totfact> 0.75331491E-02</totfact>
</mgrwt>
</event>
<event>
 6    1  0.2436515E-005  0.3145035E+04  0.7818608E-02  0.8203486E-01
         -1   -1    0    0    0  501 -0.00000000000E+00  0.00000000000E+00  0.16174815558E+04  0.16174815558E+04  0.00000000000E+00 0. -1.
          1   -1    0    0  501    0  0.00000000000E+00 -0.00000000000E+00 -0.15288031263E+04  0.15288031263E+04  0.00000000000E+00 0.  1.
         23    2    1    2    0    0 -0.80600542699E+03 -0.11754481980E+04  0.70601896071E+03  0.15930839397E+04  0.90169016465E+02 0.  0.
         13    1    3    3    0    0 -0.68249279833E+03 -0.97191054077E+03  0.55279481285E+03  0.13099574894E+04  0.00000000000E+00 0. -1.
        -13    1    3    3    0    0 -0.12351262866E+03 -0.20353765726E+03  0.15322414785E+03  0.28312645028E+03  0.00000000000E+00 0.  1.
         22    1    1    2    0    0  0.80600542699E+03  0.11754481980E+04 -0.61734053127E+03  0.15532007424E+04  0.00000000000E+00 0.  1.
<mgrwt>
<rscale>  0 0.31450347E+04</rscale>
<asrwt>0</asrwt>
<pdfrwt beam="1">  1        1 0.23520048E+00 0.31450347E+04</pdfrwt>
<pdfrwt beam="2">  1       -1 0.24884332E+00 0.31450347E+04</pdfrwt>
<totfact> 0.37259024E-01</totfact>
</mgrwt>
</event>
<event>
 6    1  0.2436515E-005  0.3141138E+04  0.7818608E-02  0.8204538E-01
         -2   -1    0    0    0  501 -0.00000000000E+00  0.00000000000E+00  0.10236172373E+04  0.10236172373E+04  0.00000000000E+00 0. -1.
          2   -1    0    0  501    0  0.00000000000E+00 -0.00000000000E+00 -0.24097743995E+04  0.24097743995E+04  0.00000000000E+00 0.  1.
         23    2    1    2    0    0  0.11485805236E+04 -0.93953215630E+03 -0.12515581486E+04  0.19434000978E+04  0.91914356752E+02 0.  0.
         13    1    3    3    0    0  0.26856428684E+03 -0.23642265714E+03 -0.35137025429E+03  0.50148131029E+03  0.00000000000E+00 0. -1.
        -13    1    3    3    0    0  0.88001623672E+03 -0.70310949916E+03 -0.90018789435E+03  0.14419187875E+04  0.00000000000E+00 0.  1.
         22    1    1    2    0    0 -0.11485805236E+04  0.93953215630E+03 -0.13459901349E+03  0.14899915390E+04  0.00000000000E+00 0.  1.
<mgrwt>
<rscale>  0 0.31411378E+04</rscale>
<asrwt>0</asrwt>
<pdfrwt beam="1">  1        2 0.37073452E+00 0.31411378E+04</pdfrwt>
<pdfrwt beam="2">  1       -2 0.15747958E+00 0.31411378E+04</pdfrwt>
<totfact> 0.87323376E-01</totfact>
</mgrwt>
</event>
<event>
 6    1  0.2436515E-005  0.2248508E+04  0.7818608E-02  0.8498505E-01
          2   -1    0    0  501    0  0.00000000000E+00  0.00000000000E+00  0.19671574319E+04  0.19671574319E+04  0.00000000000E+00 0.  1.
         -2   -1    0    0    0  501 -0.00000000000E+00 -0.00000000000E+00 -0.64252472350E+03  0.64252472350E+03  0.00000000000E+00 0. -1.
         23    2    1    2    0    0 -0.35507768176E+03 -0.27499179798E+03  0.18572821823E+04  0.19129640552E+04  0.90739863502E+02 0.  0.
         13    1    3    3    0    0 -0.25191685972E+03 -0.21813920716E+03  0.15071266597E+04  0.15435276435E+04  0.00000000000E+00 0. -1.
        -13    1    3    3    0    0 -0.10316082203E+03 -0.56852590820E+02  0.35015552261E+03  0.36943641172E+03  0.00000000000E+00 0.  1.
         22    1    1    2    0    0  0.35507768176E+03  0.27499179798E+03 -0.53264947392E+03  0.69671810017E+03  0.00000000000E+00 0. -1.
<mgrwt>
<rscale>  0 0.22485082E+04</rscale>
<asrwt>0</asrwt>
<pdfrwt beam="1">  1        2 0.30263960E+00 0.22485082E+04</pdfrwt>
<pdfrwt beam="2">  1       -2 0.98849958E-01 0.22485082E+04</pdfrwt>
<totfact> 0.53853583E+00</totfact>
</mgrwt>
</event>
<event>
 6    1  0.2436515E-005  0.2659740E+04  0.7818608E-02  0.8348187E-01
         -2   -1    0    0    0  501 -0.00000000000E+00  0.00000000000E+00  0.74224663712E+03  0.74224663712E+03  0.00000000000E+00 0. -1.
          2   -1    0    0  501    0  0.00000000000E+00 -0.00000000000E+00 -0.23827043530E+04  0.23827043530E+04  0.00000000000E+00 0.  1.
         23    2    1    2    0    0 -0.17491473511E+03 -0.12089229168E+04 -0.14342704622E+04  0.18861600607E+04  0.91532685737E+02 0.  0.
         13    1    3    3    0    0 -0.10151704595E+03 -0.79957602417E+03 -0.10081703822E+04  0.12907498009E+04  0.00000000000E+00 0. -1.
        -13    1    3    3    0    0 -0.73397689164E+02 -0.40934689260E+03 -0.42610007995E+03  0.59541025973E+03  0.00000000000E+00 0.  1.
         22    1    1    2    0    0  0.17491473511E+03  0.12089229168E+04 -0.20618725368E+03  0.12387909294E+04  0.00000000000E+00 0. -1.
<mgrwt>
<rscale>  0 0.26597401E+04</rscale>
<asrwt>0</asrwt>
<pdfrwt beam="1">  1        2 0.36656991E+00 0.26597401E+04</pdfrwt>
<pdfrwt beam="2">  1       -2 0.11419179E+00 0.26597401E+04</pdfrwt>
<totfact> 0.21472281E+00</totfact>
</mgrwt>
</event>
<event>
 6    1  0.2436515E-005  0.3361679E+04  0.7818608E-02  0.8147376E-01
          2   -1    0    0  501    0  0.00000000000E+00  0.00000000000E+00  0.29928947613E+04  0.29928947613E+04  0.00000000000E+00 0. -1.
         -2   -1    0    0    0  501 -0.00000000000E+00 -0.00000000000E+00 -0.94397603429E+03  0.94397603429E+03  0.00000000000E+00 0.  1.
         23    2    1    2    0    0 -0.65217193781E+02  0.16664995766E+04  0.79198128748E+03  0.18484824581E+04  0.90437366569E+02 0.  0.
         11    1    3    3    0    0  0.95589788864E+01  0.85148805363E+03  0.38788008317E+03  0.93572123973E+03  0.00000000000E+00 0. -1.
        -11    1    3    3    0    0 -0.74776172667E+02  0.81501152293E+03  0.40410120431E+03  0.91276121841E+03  0.00000000000E+00 0.  1.
         22    1    1    2    0    0  0.65217193781E+02 -0.16664995766E+04  0.12569374395E+04  0.20883883374E+04  0.00000000000E+00 0.  1.
<mgrwt>
<rscale>  0 0.33616787E+04</rscale>
<asrwt>0</asrwt>
<pdfrwt beam="1">  1        2 0.46044534E+00 0.33616787E+04</pdfrwt>
<pdfrwt beam="2">  1       -2 0.14522708E+00 0.33616787E+04</pdfrwt>
<totfact> 0.47670982E-01</totfact>
</mgrwt>
</event>
<event>
 6    1  0.2436515E-005  0.5898911E+03  0.7818608E-02  0.9926604E-01
         -1   -1    0    0    0  501 -0.00000000000E+00  0.00000000000E+00  0.58865815018E+02  0.58865815018E+02  0.00000000000E+00 0. -1.
          1   -1    0    0  501    0  0.00000000000E+00 -0.00000000000E+00 -0.14778165937E+04  0.14778165937E+04  0.00000000000E+00 0.  1.
         23    2    1    2    0    0  0.19090626235E+03 -0.99033630902E+02 -0.12246482100E+04  0.12468439205E+04  0.92755931034E+02 0.  0.
         13    1    3    3    0    0  0.94973847301E+02 -0.12704021284E+02 -0.70140293042E+03  0.70791771742E+03  0.00000000000E+00 0.  1.
        -13    1    3    3    0    0  0.95932415052E+02 -0.86329609618E+02 -0.52324527960E+03  0.53892620309E+03  0.00000000000E+00 0. -1.
         22    1    1    2    0    0 -0.19090626235E+03  0.99033630902E+02 -0.19430256863E+03  0.28983848818E+03  0.00000000000E+00 0. -1.
<mgrwt>
<rscale>  0 0.58989110E+03</rscale>
<asrwt>0</asrwt>
<pdfrwt beam="1">  1        1 0.22735640E+00 0.58989110E+03</pdfrwt>
<pdfrwt beam="2">  1       -1 0.90562791E-02 0.58989110E+03</pdfrwt>
<totfact> 0.51341266E+02</totfact>
</mgrwt>
</event>
<event>
 6    1  0.2436515E-005  0.3361408E+04  0.7818608E-02  0.8147444E-01
          2   -1    0    0  501    0  0.00000000000E+00  0.00000000000E+00  0.24762431462E+04  0.24762431462E+04  0.00000000000E+00 0.  1.
         -2   -1    0    0    0  501 -0.00000000000E+00 -0.00000000000E+00 -0.11407466753E+04  0.11407466753E+04  0.00000000000E+00 0. -1.
         23    2    1    2    0    0  0.33278063851E+03  0.11253734050E+04  0.19610723235E+04  0.22871201281E+04  0.88913263354E+02 0.  0.
         13    1    3    3    0    0  0.95115688874E+02  0.47321566527E+03  0.82008520576E+03  0.95158804366E+03  0.00000000000E+00 0. -1.
        -13    1    3    3    0    0  0.23766494963E+03  0.65215773969E+03  0.11409871178E+04  0.13355320845E+04  0.00000000000E+00 0.  1.
         22    1    1    2    0    0 -0.33278063851E+03 -0.11253734050E+04 -0.62557585266E+03  0.13298696934E+04  0.00000000000E+00 0. -1.
<mgrwt>
<rscale>  0 0.33614081E+04</rscale>
<asrwt>0</asrwt>
<pdfrwt beam="1">  1        2 0.38096048E+00 0.33614081E+04</pdfrwt>
<pdfrwt beam="2">  1       -2 0.17549949E+00 0.33614081E+04</pdfrwt>
<totfact> 0.58191068E-01</totfact>
</mgrwt>
</event>
<event>
 6    1  0.2436515E-005  0.4013844E+04  0.7818608E-02  0.8001760E-01
          2   -1    0    0  501    0  0.00000000000E+00  0.00000000000E+00  0.40213330430E+04  0.40213330430E+04  0.00000000000E+00 0.  1.
         -2   -1    0    0    0  501 -0.00000000000E+00 -0.00000000000E+00 -0.10015922158E+04  0.10015922158E+04  0.00000000000E+00 0. -1.
         23    2    1    2    0    0 -0.11911122634E+04 -0.57215015564E+03 -0.37788334104E+03  0.13773863119E+04  0.91065954724E+02 0.  0.
         13    1    3    3    0    0 -0.31510300024E+03 -0.17975325948E+03 -0.71067243049E+02  0.36966429106E+03  0.00000000000E+00 0. -1.
        -13    1    3    3    0    0 -0.87600926315E+03 -0.39239689616E+03 -0.30681609799E+03  0.10077220208E+04  0.00000000000E+00 0.  1.
         22    1    1    2    0    0  0.11911122634E+04  0.57215015564E+03  0.33976241683E+04  0.36455389469E+04  0.00000000000E+00 0.  1.
<mgrwt>
<rscale>  0 0.40138440E+04</rscale>
<asrwt>0</asrwt>
<pdfrwt beam="1">  1        2 0.61866661E+00 0.40138440E+04</pdfrwt>
<pdfrwt beam="2">  1       -2 0.15409111E+00 0.40138440E+04</pdfrwt>
<totfact> 0.71967258E-02</totfact>
</mgrwt>
</event>
<event>
 6    1  0.2436515E-005  0.1247324E+04  0.7818608E-02  0.9072413E-01
         -2   -1    0    0    0  501 -0.00000000000E+00  0.00000000000E+00  0.97821935547E+03  0.97821935547E+03  0.00000000000E+00 0. -1.
          2   -1    0    0  501    0  0.00000000000E+00 -0.00000000000E+00 -0.39761466080E+03  0.39761466080E+03  0.00000000000E+00 0.  1.
         23    2    1    2    0    0  0.46236650067E+03  0.23198179070E+03 -0.85848878824E+02  0.53217608928E+03  0.90791122076E+02 0.  0.
         13    1    3    3    0    0  0.40689815144E+03  0.21871161612E+03 -0.10162760837E+03  0.47300005016E+03  0.00000000000E+00 0. -1.
        -13    1    3    3    0    0  0.55468349223E+02  0.13270174582E+02  0.15778729545E+02  0.59176039112E+02  0.00000000000E+00 0.  1.
         22    1    1    2    0    0 -0.46236650067E+03 -0.23198179070E+03  0.66645357350E+03  0.84365792700E+03  0.00000000000E+00 0. -1.
<mgrwt>
<rscale>  0 0.12473241E+04</rscale>
<asrwt>0</asrwt>
<pdfrwt beam="1">  1        2 0.61171486E-01 0.12473241E+04</pdfrwt>
<pdfrwt beam="2">  1       -2 0.15049529E+00 0.12473241E+04</pdfrwt>
<totfact> 0.23365244E+01</totfact>
</mgrwt>
</event>
<event>
 6    1  0.2436515E-005  0.1647199E+04  0.7818608E-02  0.8792065E-01
         -2   -1    0    0    0  501 -0.00000000000E+00  0.00000000000E+00  0.45255434242E+03  0.45255434242E+03  0.00000000000E+00 0. -1.
          2   -1    0    0  501    0  0.00000000000E+00 -0.00000000000E+00 -0.14988609214E+04  0.14988609214E+04  0.00000000000E+00 0.  1.
         23    2    1    2    0    0 -0.24010320419E+03  0.75452683062E+03 -0.77395458343E+03  0.11140766846E+04  0.12329182933E+03 0.  0.
         11    1    3    3    0    0 -0.73474595429E+02  0.42000177506E+03 -0.44330060332E+03  0.61507351766E+03  0.00000000000E+00 0.  1.
        -11    1    3    3    0    0 -0.16662860876E+03  0.33452505557E+03 -0.33065398011E+03  0.49900316695E+03  0.00000000000E+00 0. -1.
         22    1    1    2    0    0  0.24010320419E+03 -0.75452683062E+03 -0.27235199559E+03  0.83733857925E+03  0.00000000000E+00 0. -1.
<mgrwt>
<rscale>  0 0.16471989E+04</rscale>
<asrwt>0</asrwt>
<pdfrwt beam="1">  1        2 0.23059398E+00 0.16471989E+04</pdfrwt>
<pdfrwt beam="2">  1       -2 0.69623747E-01 0.16471989E+04</pdfrwt>
<totfact> 0.22845257E+01</totfact>
</mgrwt>
</event>
<event>
 6    1  0.3409836E-005  0.2801491E+04  0.7818608E-02  0.8302806E-01
          2   -1    0    0  501    0  0.00000000000E+00  0.00000000000E+00  0.12774829988E+04  0.12774829988E+04  0.00000000000E+00 0.  1.
         -2   -1    0    0    0  501 -0.00000000000E+00 -0.00000000000E+00 -0.15359017684E+04  0.15359017684E+04  0.00000000000E+00 0. -1.
         23    2    1    2    0    0 -0.60747174208E+03 -0.64671830232E+03  0.95721384873E+03  0.13083833909E+04  0.91336002260E+02 0.  0.
         11    1    3    3    0    0 -0.23282772314E+03 -0.28175535767E+03  0.33794047887E+03  0.49779372988E+03  0.00000000000E+00 0. -1.
        -11    1    3    3    0    0 -0.37464401894E+03 -0.36496294465E+03  0.61927336986E+03  0.81058966099E+03  0.00000000000E+00 0.  1.
         22    1    1    2    0    0  0.60747174208E+03  0.64671830232E+03 -0.12156326184E+04  0.15050013763E+04  0.00000000000E+00 0. -1.
<mgrwt>
<rscale>  0 0.28014913E+04</rscale>
<asrwt>0</asrwt>
<pdfrwt beam="1">  1        2 0.19653585E+00 0.28014913E+04</pdfrwt>
<pdfrwt beam="2">  1       -2 0.23629258E+00 0.28014913E+04</pdfrwt>
<totfact> 0.11580446E+00</totfact>
</mgrwt>
</event>
<event>
 6    1  0.2436515E-005  0.3793938E+04  0.7818608E-02  0.8047457E-01
         -2   -1    0    0    0  501 -0.00000000000E+00  0.00000000000E+00  0.10771255417E+04  0.10771255417E+04  0.00000000000E+00 0. -1.
          2   -1    0    0  501    0  0.00000000000E+00 -0.00000000000E+00 -0.33408280197E+04  0.33408280197E+04  0.00000000000E+00 0.  1.
         23    2    1    2    0    0 -0.27810313965E+03 -0.65678566074E+03 -0.31780134057E+04  0.32583530987E+04  0.91580283387E+02 0.  0.
         13    1    3    3    0    0 -0.54234842901E+02 -0.16101477782E+03 -0.93572707721E+03  0.95102699220E+03  0.00000000000E+00 0.  1.
        -13    1    3    3    0    0 -0.22386829675E+03 -0.49577088292E+03 -0.22422863285E+04  0.23073261065E+04  0.00000000000E+00 0. -1.
         22    1    1    2    0    0  0.27810313965E+03  0.65678566074E+03  0.91431092774E+03  0.11596004627E+04  0.00000000000E+00 0. -1.
<mgrwt>
<rscale>  0 0.37939379E+04</rscale>
<asrwt>0</asrwt>
<pdfrwt beam="1">  1        2 0.51397354E+00 0.37939379E+04</pdfrwt>
<pdfrwt beam="2">  1       -2 0.16571162E+00 0.37939379E+04</pdfrwt>
<totfact> 0.19167414E-01</totfact>
</mgrwt>
</event>
<event>
 6    1  0.2436515E-005  0.8394711E+03  0.7818608E-02  0.9504578E-01
         -2   -1    0    0    0  501 -0.00000000000E+00  0.00000000000E+00  0.65226912766E+02  0.65226912766E+02  0.00000000000E+00 0. -1.
          2   -1    0    0  501    0  0.00000000000E+00 -0.00000000000E+00 -0.27010008053E+04  0.27010008053E+04  0.00000000000E+00 0.  1.
         23    2    1    2    0    0  0.25628251609E+03  0.32385914017E+03 -0.14551178516E+04  0.15154223144E+04  0.92581630743E+02 0.  0.
         11    1    3    3    0    0  0.18455071387E+03  0.24784980251E+03 -0.92965609177E+03  0.97966776999E+03  0.00000000000E+00 0. -1.
        -11    1    3    3    0    0  0.71731802222E+02  0.76009337663E+02 -0.52546175982E+03  0.53575454445E+03  0.00000000000E+00 0.  1.
         22    1    1    2    0    0 -0.25628251609E+03 -0.32385914017E+03 -0.11806560409E+04  0.12508054036E+04  0.00000000000E+00 0. -1.
<mgrwt>
<rscale>  0 0.83947113E+03</rscale>
<asrwt>0</asrwt>
<pdfrwt beam="1">  1        2 0.41553852E+00 0.83947113E+03</pdfrwt>
<pdfrwt beam="2">  1       -2 0.10034911E-01 0.83947113E+03</pdfrwt>
<totfact> 0.18732735E+02</totfact>
</mgrwt>
</event>
<event>
 6    1  0.2436515E-005  0.1338790E+04  0.7818608E-02  0.8999357E-01
          2   -1    0    0  501    0  0.00000000000E+00  0.00000000000E+00  0.66284398818E+03  0.66284398818E+03  0.00000000000E+00 0.  1.
         -2   -1    0    0    0  501 -0.00000000000E+00 -0.00000000000E+00 -0.67601124578E+03  0.67601124578E+03  0.00000000000E+00 0. -1.
         23    2    1    2    0    0 -0.34105018969E+03 -0.16882910070E+03  0.54035694234E+03  0.66713539873E+03  0.90914894123E+02 0.  0.
         13    1    3    3    0    0 -0.30162908788E+03 -0.15701695834E+03  0.42278576631E+03  0.54257002871E+03  0.00000000000E+00 0. -1.
        -13    1    3    3    0    0 -0.39421101809E+02 -0.11812142364E+02  0.11757117603E+03  0.12456537002E+03  0.00000000000E+00 0.  1.
         22    1    1    2    0    0  0.34105018969E+03  0.16882910070E+03 -0.55352419994E+03  0.67171983524E+03  0.00000000000E+00 0. -1.
<mgrwt>
<rscale>  0 0.13387905E+04</rscale>
<asrwt>0</asrwt>
<pdfrwt beam="1">  1        2 0.10197600E+00 0.13387905E+04</pdfrwt>
<pdfrwt beam="2">  1       -2 0.10400173E+00 0.13387905E+04</pdfrwt>
<totfact> 0.32269352E+01</totfact>
</mgrwt>
</event>
<event>
 6    1  0.2436515E-005  0.2501799E+04  0.7818608E-02  0.8402345E-01
         -2   -1    0    0    0  501 -0.00000000000E+00  0.00000000000E+00  0.45968966474E+03  0.45968966474E+03  0.00000000000E+00 0. -1.
          2   -1    0    0  501    0  0.00000000000E+00 -0.00000000000E+00 -0.34039246648E+04  0.34039246648E+04  0.00000000000E+00 0.  1.
         23    2    1    2    0    0 -0.82116123025E+03 -0.41654297553E+03 -0.17025810705E+03  0.94081402513E+03  0.91265493689E+02 0.  0.
         11    1    3    3    0    0 -0.54407774701E+03 -0.24153512398E+03 -0.78127730037E+02  0.60038633654E+03  0.00000000000E+00 0. -1.
        -11    1    3    3    0    0 -0.27708348324E+03 -0.17500785155E+03 -0.92130377013E+02  0.34042768859E+03  0.00000000000E+00 0.  1.
         22    1    1    2    0    0  0.82116123025E+03  0.41654297553E+03 -0.27739768930E+04  0.29228003044E+04  0.00000000000E+00 0.  1.
<mgrwt>
<rscale>  0 0.25017985E+04</rscale>
<asrwt>0</asrwt>
<pdfrwt beam="1">  1        2 0.52368070E+00 0.25017985E+04</pdfrwt>
<pdfrwt beam="2">  1       -2 0.70721489E-01 0.25017985E+04</pdfrwt>
<totfact> 0.15373823E+00</totfact>
</mgrwt>
</event>
<event>
 6    1  0.2436515E-005  0.1043402E+04  0.7818608E-02  0.9262182E-01
         -2   -1    0    0    0  501 -0.00000000000E+00  0.00000000000E+00  0.25580383233E+03  0.25580383233E+03  0.00000000000E+00 0. -1.
          2   -1    0    0  501    0  0.00000000000E+00 -0.00000000000E+00 -0.10639878279E+04  0.10639878279E+04  0.00000000000E+00 0.  1.
         23    2    1    2    0    0 -0.23242426083E+03  0.32642575726E+02 -0.99054842809E+03  0.10225655494E+04  0.96786050605E+02 0.  0.
         13    1    3    3    0    0 -0.96874914516E+02  0.57025502170E+02 -0.35961706213E+03  0.37677723967E+03  0.00000000000E+00 0. -1.
        -13    1    3    3    0    0 -0.13554934632E+03 -0.24382926444E+02 -0.63093136596E+03  0.64578830970E+03  0.00000000000E+00 0.  1.
         22    1    1    2    0    0  0.23242426083E+03 -0.32642575726E+02  0.18236443247E+03  0.29722611091E+03  0.00000000000E+00 0. -1.
<mgrwt>
<rscale>  0 0.10434024E+04</rscale>
<asrwt>0</asrwt>
<pdfrwt beam="1">  1        2 0.16369044E+00 0.10434024E+04</pdfrwt>
<pdfrwt beam="2">  1       -2 0.39354435E-01 0.10434024E+04</pdfrwt>
<totfact> 0.13938706E+02</totfact>
</mgrwt>
</event>
<event>
 6    1  0.2436515E-005  0.1826987E+04  0.7818608E-02  0.8692078E-01
          2   -1    0    0  501    0  0.00000000000E+00  0.00000000000E+00  0.29799639686E+04  0.29799639686E+04  0.00000000000E+00 0.  1.
         -2   -1    0    0    0  501 -0.00000000000E+00 -0.00000000000E+00 -0.28002700334E+03  0.28002700334E+03  0.00000000000E+00 0. -1.
         23    2    1    2    0    0  0.73165839154E+03 -0.18740646168E+03  0.22628161872E+04  0.23873399773E+04  0.92789474144E+02 0.  0.
         11    1    3    3    0    0  0.59167944709E+03 -0.14272071040E+03  0.17005319727E+04  0.18061735131E+04  0.00000000000E+00 0. -1.
        -11    1    3    3    0    0  0.13997894445E+03 -0.44685751281E+02  0.56228421452E+03  0.58116646424E+03  0.00000000000E+00 0.  1.
         22    1    1    2    0    0 -0.73165839154E+03  0.18740646168E+03  0.43712077808E+03  0.87265099463E+03  0.00000000000E+00 0. -1.
<mgrwt>
<rscale>  0 0.18269870E+04</rscale>
<asrwt>0</asrwt>
<pdfrwt beam="1">  1        2 0.45845597E+00 0.18269870E+04</pdfrwt>
<pdfrwt beam="2">  1       -2 0.43081080E-01 0.18269870E+04</pdfrwt>
<totfact> 0.86548450E+00</totfact>
</mgrwt>
</event>
<event>
 6    1  0.2436515E-005  0.1647813E+04  0.7818608E-02  0.8791701E-01
          2   -1    0    0  501    0  0.00000000000E+00  0.00000000000E+00  0.98129085199E+03  0.98129085199E+03  0.00000000000E+00 0.  1.
         -2   -1    0    0    0  501 -0.00000000000E+00 -0.00000000000E+00 -0.69176435552E+03  0.69176435552E+03  0.00000000000E+00 0. -1.
         23    2    1    2    0    0  0.42816937483E+03  0.54881618835E+03 -0.29642533141E+03  0.76318281715E+03  0.10025873106E+03 0.  0.
         11    1    3    3    0    0  0.41629257744E+03  0.49117676123E+03 -0.26299555076E+03  0.69550038140E+03  0.00000000000E+00 0. -1.
        -11    1    3    3    0    0  0.11876797389E+02  0.57639427121E+02 -0.33429780654E+02  0.67682435754E+02  0.00000000000E+00 0.  1.
         22    1    1    2    0    0 -0.42816937483E+03 -0.54881618835E+03  0.58595182788E+03  0.90987239036E+03  0.00000000000E+00 0.  1.
<mgrwt>
<rscale>  0 0.16478131E+04</rscale>
<asrwt>0</asrwt>
<pdfrwt beam="1">  1        2 0.15096782E+00 0.16478131E+04</pdfrwt>
<pdfrwt beam="2">  1       -2 0.10642528E+00 0.16478131E+04</pdfrwt>
<totfact> 0.17611837E+01</totfact>
</mgrwt>
</event>
<event>
 6    1  0.2436515E-005  0.1721872E+04  0.7818608E-02  0.8748987E-01
         -2   -1    0    0    0  501 -0.00000000000E+00  0.00000000000E+00  0.12488914226E+04  0.12488914226E+04  0.00000000000E+00 0. -1.
          2   -1    0    0  501    0  0.00000000000E+00 -0.00000000000E+00 -0.59349490089E+03  0.59349490089E+03  0.00000000000E+00 0.  1.
         23    2    1    2    0    0 -0.25619065787E+03 -0.32433777877E+03  0.11338878833E+04  0.12101026600E+04  0.88419838991E+02 0.  0.
         11    1    3    3    0    0 -0.10254860258E+03 -0.65582194525E+02  0.32326785965E+03  0.34542632964E+03  0.00000000000E+00 0. -1.
        -11    1    3    3    0    0 -0.15364205529E+03 -0.25875558425E+03  0.81062002366E+03  0.86467633037E+03  0.00000000000E+00 0.  1.
         22    1    1    2    0    0  0.25619065787E+03  0.32433777877E+03 -0.47849136162E+03  0.63228366345E+03  0.00000000000E+00 0.  1.
<mgrwt>
<rscale>  0 0.17218719E+04</rscale>
<asrwt>0</asrwt>
<pdfrwt beam="1">  1        2 0.91306908E-01 0.17218719E+04</pdfrwt>
<pdfrwt beam="2">  1       -2 0.19213714E+00 0.17218719E+04</pdfrwt>
<totfact> 0.71529960E+00</totfact>
</mgrwt>
</event>
<event>
 6    1  0.2436515E-005  0.2379822E+04  0.7818608E-02  0.8447097E-01
          2   -1    0    0  501    0  0.00000000000E+00  0.00000000000E+00  0.30995361541E+04  0.30995361541E+04  0.00000000000E+00 0.  1.
         -2   -1    0    0    0  501 -0.00000000000E+00 -0.00000000000E+00 -0.45680658568E+03  0.45680658568E+03  0.00000000000E+00 0. -1.
         23    2    1    2    0    0  0.70794692072E+03 -0.92567942915E+03  0.16687079816E+04  0.20375309346E+04  0.94205803035E+02 0.  0.
         13    1    3    3    0    0  0.42581724440E+03 -0.63059902016E+03  0.10823339991E+04  0.13230352737E+04  0.00000000000E+00 0. -1.
        -13    1    3    3    0    0  0.28212967632E+03 -0.29508040899E+03  0.58637398249E+03  0.71449566085E+03  0.00000000000E+00 0.  1.
         22    1    1    2    0    0 -0.70794692072E+03  0.92567942915E+03  0.97402158685E+03  0.15188118052E+04  0.00000000000E+00 0. -1.
<mgrwt>
<rscale>  0 0.23798223E+04</rscale>
<asrwt>0</asrwt>
<pdfrwt beam="1">  1        2 0.47685170E+00 0.23798223E+04</pdfrwt>
<pdfrwt beam="2">  1       -2 0.70277938E-01 0.23798223E+04</pdfrwt>
<totfact> 0.25015299E+00</totfact>
</mgrwt>
</event>
<event>
 6    1  0.2436515E-005  0.3761557E+04  0.7818608E-02  0.8054455E-01
         -2   -1    0    0    0  501 -0.00000000000E+00  0.00000000000E+00  0.18014454706E+04  0.18014454706E+04  0.00000000000E+00 0. -1.
          2   -1    0    0  501    0  0.00000000000E+00 -0.00000000000E+00 -0.19636051890E+04  0.19636051890E+04  0.00000000000E+00 0.  1.
         23    2    1    2    0    0 -0.12903496884E+04 -0.44802503689E+03  0.12116813815E+04  0.18277411541E+04  0.82080471413E+02 0.  0.
         13    1    3    3    0    0 -0.65751824066E+03 -0.27135937587E+03  0.63679864948E+03  0.95471391927E+03  0.00000000000E+00 0.  1.
        -13    1    3    3    0    0 -0.63283144779E+03 -0.17666566101E+03  0.57488273204E+03  0.87302723479E+03  0.00000000000E+00 0. -1.
         22    1    1    2    0    0  0.12903496884E+04  0.44802503689E+03 -0.13738411000E+04  0.19373095055E+04  0.00000000000E+00 0.  1.
<mgrwt>
<rscale>  0 0.37615570E+04</rscale>
<asrwt>0</asrwt>
<pdfrwt beam="1">  1        2 0.30209310E+00 0.37615570E+04</pdfrwt>
<pdfrwt beam="2">  1       -2 0.27714546E+00 0.37615570E+04</pdfrwt>
<totfact> 0.24682391E-01</totfact>
</mgrwt>
</event>
<event>
 6    1  0.2436515E-005  0.2520007E+04  0.7818608E-02  0.8395892E-01
          2   -1    0    0  501    0  0.00000000000E+00  0.00000000000E+00  0.37702376587E+04  0.37702376587E+04  0.00000000000E+00 0.  1.
         -2   -1    0    0    0  501 -0.00000000000E+00 -0.00000000000E+00 -0.42108999501E+03  0.42108999501E+03  0.00000000000E+00 0. -1.
         23    2    1    2    0    0  0.10473527928E+04 -0.46034328346E+03  0.25482998773E+04  0.27948245251E+04  0.91367665012E+02 0.  0.
         11    1    3    3    0    0  0.12333740308E+03 -0.29546963132E+02  0.24145104386E+03  0.27273383474E+03  0.00000000000E+00 0. -1.
        -11    1    3    3    0    0  0.92401538973E+03 -0.43079632033E+03  0.23068488334E+04  0.25220906904E+04  0.00000000000E+00 0.  1.
         22    1    1    2    0    0 -0.10473527928E+04  0.46034328346E+03  0.80084778638E+03  0.13965031286E+04  0.00000000000E+00 0. -1.
<mgrwt>
<rscale>  0 0.25200074E+04</rscale>
<asrwt>0</asrwt>
<pdfrwt beam="1">  1        2 0.58003654E+00 0.25200074E+04</pdfrwt>
<pdfrwt beam="2">  1       -2 0.64783079E-01 0.25200074E+04</pdfrwt>
<totfact> 0.10150344E+00</totfact>
</mgrwt>
</event>
<event>
 6    1  0.2436515E-005  0.2635282E+04  0.7818608E-02  0.8356315E-01
         -2   -1    0    0    0  501 -0.00000000000E+00  0.00000000000E+00  0.16597817148E+04  0.16597817148E+04  0.00000000000E+00 0. -1.
          2   -1    0    0  501    0  0.00000000000E+00 -0.00000000000E+00 -0.10460276264E+04  0.10460276264E+04  0.00000000000E+00 0.  1.
         23    2    1    2    0    0  0.24711717285E+03 -0.32828442729E+03 -0.97655691357E+03  0.10632726916E+04  0.89709804408E+02 0.  0.
         11    1    3    3    0    0  0.58628642176E+02 -0.13240739635E+03 -0.41132514290E+03  0.43607041802E+03  0.00000000000E+00 0. -1.
        -11    1    3    3    0    0  0.18848853067E+03 -0.19587703094E+03 -0.56523177066E+03  0.62720227360E+03  0.00000000000E+00 0.  1.
         22    1    1    2    0    0 -0.24711717285E+03  0.32828442729E+03  0.15903110019E+04  0.16425366496E+04  0.00000000000E+00 0. -1.
<mgrwt>
<rscale>  0 0.26352818E+04</rscale>
<asrwt>0</asrwt>
<pdfrwt beam="1">  1        2 0.16092733E+00 0.26352818E+04</pdfrwt>
<pdfrwt beam="2">  1       -2 0.25535103E+00 0.26352818E+04</pdfrwt>
<totfact> 0.12370178E+00</totfact>
</mgrwt>
</event>
<event>
 6    1  0.2436515E-005  0.2844745E+04  0.7818608E-02  0.8289510E-01
         -2   -1    0    0    0  501 -0.00000000000E+00  0.00000000000E+00  0.49225805187E+03  0.49225805187E+03  0.00000000000E+00 0. -1.
          2   -1    0    0  501    0  0.00000000000E+00 -0.00000000000E+00 -0.41099259616E+04  0.41099259616E+04  0.00000000000E+00 0.  1.
         23    2    1    2    0    0  0.46962167802E+03  0.65586870525E+03  0.81844791550E+02  0.81574736328E+03  0.89648824810E+02 0.  0.
         13    1    3    3    0    0  0.21891095519E+03  0.35938635472E+03  0.74816400085E+02  0.42740853055E+03  0.00000000000E+00 0.  1.
        -13    1    3    3    0    0  0.25071072283E+03  0.29648235053E+03  0.70283914653E+01  0.38833883273E+03  0.00000000000E+00 0. -1.
         22    1    1    2    0    0 -0.46962167802E+03 -0.65586870525E+03 -0.36995127013E+04  0.37864366502E+04  0.00000000000E+00 0.  1.
<mgrwt>
<rscale>  0 0.28447454E+04</rscale>
<asrwt>0</asrwt>
<pdfrwt beam="1">  1        2 0.63229632E+00 0.28447454E+04</pdfrwt>
<pdfrwt beam="2">  1       -2 0.75732006E-01 0.28447454E+04</pdfrwt>
<totfact> 0.37634010E-01</totfact>
</mgrwt>
</event>
<event>
 6    1  0.2436515E-005  0.2914118E+04  0.7818608E-02  0.8268689E-01
         -1   -1    0    0    0  501 -0.00000000000E+00  0.00000000000E+00  0.68877521345E+03  0.68877521345E+03  0.00000000000E+00 0. -1.
          1   -1    0    0  501    0  0.00000000000E+00 -0.00000000000E+00 -0.30823139639E+04  0.30823139639E+04  0.00000000000E+00 0.  1.
         23    2    1    2    0    0 -0.12469436754E+04 -0.65835592795E+03 -0.16657264256E+04  0.21842647266E+04  0.89815439963E+02 0.  0.
         13    1    3    3    0    0 -0.65452310608E+03 -0.31437080015E+03 -0.91177264317E+03  0.11655723269E+04  0.00000000000E+00 0.  1.
        -13    1    3    3    0    0 -0.59242056929E+03 -0.34398512780E+03 -0.75395378245E+03  0.10186923997E+04  0.00000000000E+00 0. -1.
         22    1    1    2    0    0  0.12469436754E+04  0.65835592795E+03 -0.72781232481E+03  0.15868244508E+04  0.00000000000E+00 0. -1.
<mgrwt>
<rscale>  0 0.29141184E+04</rscale>
<asrwt>0</asrwt>
<pdfrwt beam="1">  1        1 0.47420214E+00 0.29141184E+04</pdfrwt>
<pdfrwt beam="2">  1       -1 0.10596542E+00 0.29141184E+04</pdfrwt>
<totfact> 0.37130592E-01</totfact>
</mgrwt>
</event>
<event>
 6    1  0.2436515E-005  0.1765590E+04  0.7818608E-02  0.8724815E-01
         -2   -1    0    0    0  501 -0.00000000000E+00  0.00000000000E+00  0.64113761976E+03  0.64113761976E+03  0.00000000000E+00 0. -1.
          2   -1    0    0  501    0  0.00000000000E+00 -0.00000000000E+00 -0.12155384691E+04  0.12155384691E+04  0.00000000000E+00 0.  1.
         23    2    1    2    0    0 -0.23279062831E+02 -0.34091937757E+03 -0.11412593599E+04  0.11947874971E+04  0.90974170978E+02 0.  0.
         13    1    3    3    0    0  0.30057066722E+02 -0.18535257600E+03 -0.66083815092E+03  0.68699786492E+03  0.00000000000E+00 0.  1.
        -13    1    3    3    0    0 -0.53336129553E+02 -0.15556680158E+03 -0.48042120901E+03  0.50778963217E+03  0.00000000000E+00 0. -1.
         22    1    1    2    0    0  0.23279062831E+02  0.34091937757E+03  0.56685851064E+03  0.66188859173E+03  0.00000000000E+00 0. -1.
<mgrwt>
<rscale>  0 0.17655905E+04</rscale>
<asrwt>0</asrwt>
<pdfrwt beam="1">  1        2 0.18700592E+00 0.17655905E+04</pdfrwt>
<pdfrwt beam="2">  1       -2 0.98636557E-01 0.17655905E+04</pdfrwt>
<totfact> 0.14978503E+01</totfact>
</mgrwt>
</event>
<event>
 6    1  0.2436515E-005  0.3249737E+04  0.7818608E-02  0.8175804E-01
          2   -1    0    0  501    0  0.00000000000E+00  0.00000000000E+00  0.28890885125E+04  0.28890885125E+04  0.00000000000E+00 0.  1.
         -2   -1    0    0    0  501 -0.00000000000E+00 -0.00000000000E+00 -0.91385140869E+03  0.91385140869E+03  0.00000000000E+00 0. -1.
         23    2    1    2    0    0 -0.45314169647E+03 -0.13556705796E+04  0.18895143052E+04  0.23709732611E+04  0.89831941641E+02 0.  0.
         13    1    3    3    0    0 -0.22166939785E+03 -0.79710434135E+03  0.10703402561E+04  0.13528270091E+04  0.00000000000E+00 0.  1.
        -13    1    3    3    0    0 -0.23147229862E+03 -0.55856623826E+03  0.81917404912E+03  0.10181462519E+04  0.00000000000E+00 0. -1.
         22    1    1    2    0    0  0.45314169647E+03  0.13556705796E+04  0.85722798639E+02  0.14319666601E+04  0.00000000000E+00 0. -1.
<mgrwt>
<rscale>  0 0.32497370E+04</rscale>
<asrwt>0</asrwt>
<pdfrwt beam="1">  1        2 0.44447515E+00 0.32497370E+04</pdfrwt>
<pdfrwt beam="2">  1       -2 0.14059253E+00 0.32497370E+04</pdfrwt>
<totfact> 0.60748805E-01</totfact>
</mgrwt>
</event>
<event>
 6    1  0.2436515E-005  0.3248323E+04  0.7818608E-02  0.8176170E-01
         -2   -1    0    0    0  501 -0.00000000000E+00  0.00000000000E+00  0.10800220762E+04  0.10800220762E+04  0.00000000000E+00 0. -1.
          2   -1    0    0  501    0  0.00000000000E+00 -0.00000000000E+00 -0.24424508299E+04  0.24424508299E+04  0.00000000000E+00 0.  1.
         23    2    1    2    0    0 -0.74318330914E+03 -0.98248360762E+02  0.87917670998E+03  0.11588381572E+04  0.89330934884E+02 0.  0.
         13    1    3    3    0    0 -0.24482770557E+03 -0.74496618698E+02  0.30793352669E+03  0.40039156893E+03  0.00000000000E+00 0. -1.
        -13    1    3    3    0    0 -0.49835560357E+03 -0.23751742064E+02  0.57124318330E+03  0.75844658831E+03  0.00000000000E+00 0.  1.
         22    1    1    2    0    0  0.74318330914E+03  0.98248360762E+02 -0.22416054636E+04  0.23636347489E+04  0.00000000000E+00 0.  1.
<mgrwt>
<rscale>  0 0.32483231E+04</rscale>
<asrwt>0</asrwt>
<pdfrwt beam="1">  1        2 0.37576166E+00 0.32483231E+04</pdfrwt>
<pdfrwt beam="2">  1       -2 0.16615724E+00 0.32483231E+04</pdfrwt>
<totfact> 0.71574271E-01</totfact>
</mgrwt>
</event>
<event>
 6    1  0.3833617E-005  0.4563623E+04  0.7818608E-02  0.7899592E-01
         -2   -1    0    0    0  501 -0.00000000000E+00  0.00000000000E+00  0.23647017825E+04  0.23647017825E+04  0.00000000000E+00 0. -1.
          2   -1    0    0  501    0  0.00000000000E+00 -0.00000000000E+00 -0.22018267289E+04  0.22018267289E+04  0.00000000000E+00 0.  1.
         23    2    1    2    0    0 -0.57109730268E+03 -0.22004290277E+04  0.26617032860E+03  0.22908506016E+04  0.95445271275E+02 0.  0.
         13    1    3    3    0    0 -0.24518803900E+03 -0.78180863404E+03  0.75135126652E+02  0.82279232008E+03  0.00000000000E+00 0. -1.
        -13    1    3    3    0    0 -0.32590926368E+03 -0.14186203937E+04  0.19103520195E+03  0.14680582815E+04  0.00000000000E+00 0.  1.
         22    1    1    2    0    0  0.57109730268E+03  0.22004290277E+04 -0.10329527495E+03  0.22756779098E+04  0.00000000000E+00 0.  1.
<mgrwt>
<rscale>  0 0.45636229E+04</rscale>
<asrwt>0</asrwt>
<pdfrwt beam="1">  1        2 0.33874257E+00 0.45636229E+04</pdfrwt>
<pdfrwt beam="2">  1       -2 0.36380027E+00 0.45636229E+04</pdfrwt>
<totfact> 0.49393147E-02</totfact>
</mgrwt>
</event>
<event>
 6    1  0.2436515E-005  0.3110291E+04  0.7818608E-02  0.8212919E-01
         -2   -1    0    0    0  501 -0.00000000000E+00  0.00000000000E+00  0.13439192202E+04  0.13439192202E+04  0.00000000000E+00 0. -1.
          2   -1    0    0  501    0  0.00000000000E+00 -0.00000000000E+00 -0.17995708781E+04  0.17995708781E+04  0.00000000000E+00 0.  1.
         23    2    1    2    0    0 -0.45794819589E+03  0.51484776171E+03 -0.16347208630E+04  0.17778441125E+04  0.11675881294E+03 0.  0.
         13    1    3    3    0    0 -0.34519749107E+03  0.39878149975E+03 -0.13643395054E+04  0.14627406737E+04  0.00000000000E+00 0. -1.
        -13    1    3    3    0    0 -0.11275070483E+03  0.11606626196E+03 -0.27038135764E+03  0.31510343883E+03  0.00000000000E+00 0.  1.
         22    1    1    2    0    0  0.45794819589E+03 -0.51484776171E+03  0.11790692052E+04  0.13656459858E+04  0.00000000000E+00 0. -1.
<mgrwt>
<rscale>  0 0.31102912E+04</rscale>
<asrwt>0</asrwt>
<pdfrwt beam="1">  1        2 0.27685706E+00 0.31102912E+04</pdfrwt>
<pdfrwt beam="2">  1       -2 0.20675680E+00 0.31102912E+04</pdfrwt>
<totfact> 0.88015178E-01</totfact>
</mgrwt>
</event>
<event>
 6    1  0.2436515E-005  0.3186305E+04  0.7818608E-02  0.8192443E-01
          2   -1    0    0  501    0  0.00000000000E+00  0.00000000000E+00  0.36601781997E+04  0.36601781997E+04  0.00000000000E+00 0.  1.
         -2   -1    0    0    0  501 -0.00000000000E+00 -0.00000000000E+00 -0.69344588302E+03  0.69344588302E+03  0.00000000000E+00 0. -1.
         23    2    1    2    0    0  0.11970829963E+04 -0.47815122925E+03  0.20864138990E+03  0.13091698034E+04  0.93584435196E+02 0.  0.
         13    1    3    3    0    0  0.37308512249E+03 -0.13936333724E+03  0.21788484866E+02  0.39886010889E+03  0.00000000000E+00 0.  1.
        -13    1    3    3    0    0  0.82399787385E+03 -0.33878789201E+03  0.18685290503E+03  0.91030969455E+03  0.00000000000E+00 0. -1.
         22    1    1    2    0    0 -0.11970829963E+04  0.47815122925E+03  0.27580909268E+04  0.30444542793E+04  0.00000000000E+00 0.  1.
<mgrwt>
<rscale>  0 0.31863054E+04</rscale>
<asrwt>0</asrwt>
<pdfrwt beam="1">  1        2 0.56310433E+00 0.31863054E+04</pdfrwt>
<pdfrwt beam="2">  1       -2 0.10668398E+00 0.31863054E+04</pdfrwt>
<totfact> 0.37187932E-01</totfact>
</mgrwt>
</event>
<event>
 6    1  0.2436515E-005  0.2188847E+04  0.7818608E-02  0.8523085E-01
          2   -1    0    0  501    0  0.00000000000E+00  0.00000000000E+00  0.90965943875E+03  0.90965943875E+03  0.00000000000E+00 0.  1.
         -2   -1    0    0    0  501 -0.00000000000E+00 -0.00000000000E+00 -0.13167153070E+04  0.13167153070E+04  0.00000000000E+00 0. -1.
         23    2    1    2    0    0  0.10857068917E+04  0.91237325310E+02 -0.12162720332E+03  0.11000740634E+04  0.91027820922E+02 0.  0.
         11    1    3    3    0    0  0.68128154314E+03  0.14437551425E+02 -0.87037871028E+02  0.68697057791E+03  0.00000000000E+00 0. -1.
        -11    1    3    3    0    0  0.40442534857E+03  0.76799773884E+02 -0.34589332296E+02  0.41310348552E+03  0.00000000000E+00 0.  1.
         22    1    1    2    0    0 -0.10857068917E+04 -0.91237325310E+02 -0.28542866492E+03  0.11263006823E+04  0.00000000000E+00 0.  1.
<mgrwt>
<rscale>  0 0.21888467E+04</rscale>
<asrwt>0</asrwt>
<pdfrwt beam="1">  1        2 0.13994761E+00 0.21888467E+04</pdfrwt>
<pdfrwt beam="2">  1       -2 0.20257159E+00 0.21888467E+04</pdfrwt>
<totfact> 0.33796715E+00</totfact>
</mgrwt>
</event>
<event>
 6    1  0.2436515E-005  0.2116060E+04  0.7818608E-02  0.8554202E-01
          2   -1    0    0  501    0  0.00000000000E+00  0.00000000000E+00  0.13598387595E+04  0.13598387595E+04  0.00000000000E+00 0. -1.
         -2   -1    0    0    0  501 -0.00000000000E+00 -0.00000000000E+00 -0.82320621178E+03  0.82320621178E+03  0.00000000000E+00 0.  1.
         23    2    1    2    0    0  0.43765478302E+03 -0.31141391522E+03 -0.66917649872E+03  0.86300868687E+03  0.92013431042E+02 0.  0.
         11    1    3    3    0    0  0.55554258290E+02 -0.22864716519E+02 -0.12149263366E+03  0.13553424257E+03  0.00000000000E+00 0. -1.
        -11    1    3    3    0    0  0.38210052473E+03 -0.28854919870E+03 -0.54768386505E+03  0.72747444430E+03  0.00000000000E+00 0.  1.
         22    1    1    2    0    0 -0.43765478302E+03  0.31141391522E+03  0.12058090464E+04  0.13200362844E+04  0.00000000000E+00 0. -1.
<mgrwt>
<rscale>  0 0.21160602E+04</rscale>
<asrwt>0</asrwt>
<pdfrwt beam="1">  1        2 0.20920596E+00 0.21160602E+04</pdfrwt>
<pdfrwt beam="2">  1       -2 0.12664711E+00 0.21160602E+04</pdfrwt>
<totfact> 0.65174378E+00</totfact>
</mgrwt>
</event>
<event>
 6    1  0.2436515E-005  0.2129099E+04  0.7818608E-02  0.8548532E-01
          1   -1    0    0  501    0  0.00000000000E+00  0.00000000000E+00  0.21160866095E+04  0.21160866095E+04  0.00000000000E+00 0.  1.
         -1   -1    0    0    0  501 -0.00000000000E+00 -0.00000000000E+00 -0.53554762668E+03  0.53554762668E+03  0.00000000000E+00 0. -1.
         23    2    1    2    0    0  0.66378537569E+01  0.10053973720E+04  0.12199448106E+04  0.15835068590E+04  0.91436834668E+02 0.  0.
         11    1    3    3    0    0  0.38932412295E+02  0.83840244785E+03  0.10032413463E+04  0.13080243103E+04  0.00000000000E+00 0. -1.
        -11    1    3    3    0    0 -0.32294558538E+02  0.16699492420E+03  0.21670346428E+03  0.27548254872E+03  0.00000000000E+00 0.  1.
         22    1    1    2    0    0 -0.66378537569E+01 -0.10053973720E+04  0.36059417219E+03  0.10681273772E+04  0.00000000000E+00 0. -1.
<mgrwt>
<rscale>  0 0.21290986E+04</rscale>
<asrwt>0</asrwt>
<pdfrwt beam="1">  1        1 0.32555178E+00 0.21290986E+04</pdfrwt>
<pdfrwt beam="2">  1       -1 0.82391944E-01 0.21290986E+04</pdfrwt>
<totfact> 0.33381896E+00</totfact>
</mgrwt>
</event>
<event>
 6    1  0.2436515E-005  0.6767779E+03  0.7818608E-02  0.9757790E-01
          4   -1    0    0  501    0  0.00000000000E+00  0.00000000000E+00  0.21707247470E+03  0.21707247470E+03  0.00000000000E+00 0.  1.
         -4   -1    0    0    0  501 -0.00000000000E+00 -0.00000000000E+00 -0.52750617714E+03  0.52750617714E+03  0.00000000000E+00 0. -1.
         23    2    1    2    0    0 -0.27913388594E+03 -0.17900832868E+03 -0.15681042805E+03  0.37912028424E+03  0.95827822476E+02 0.  0.
         11    1    3    3    0    0 -0.20868486253E+03 -0.15688101342E+03 -0.81149273793E+02  0.27339756557E+03  0.00000000000E+00 0.  1.
        -11    1    3    3    0    0 -0.70449023410E+02 -0.22127315262E+02 -0.75661154259E+02  0.10572271867E+03  0.00000000000E+00 0. -1.
         22    1    1    2    0    0  0.27913388594E+03  0.17900832868E+03 -0.15362327438E+03  0.36545836760E+03  0.00000000000E+00 0.  1.
<mgrwt>
<rscale>  0 0.67677787E+03</rscale>
<asrwt>0</asrwt>
<pdfrwt beam="1">  1        4 0.33395766E-01 0.67677787E+03</pdfrwt>
<pdfrwt beam="2">  1       -4 0.81154795E-01 0.67677787E+03</pdfrwt>
<totfact> 0.23237698E+01</totfact>
</mgrwt>
</event>
<event>
 6    1  0.2436515E-005  0.2096689E+04  0.7818608E-02  0.8562703E-01
          1   -1    0    0  501    0  0.00000000000E+00  0.00000000000E+00  0.23087780185E+04  0.23087780185E+04  0.00000000000E+00 0.  1.
         -1   -1    0    0    0  501 -0.00000000000E+00 -0.00000000000E+00 -0.47602085494E+03  0.47602085494E+03  0.00000000000E+00 0. -1.
         23    2    1    2    0    0  0.20961344238E+03 -0.81715922527E+03  0.17402426776E+04  0.19361258359E+04  0.91933022001E+02 0.  0.
         13    1    3    3    0    0  0.16985460170E+03 -0.58960592235E+03  0.11764828223E+04  0.13268751111E+04  0.00000000000E+00 0.  1.
        -13    1    3    3    0    0  0.39758840677E+02 -0.22755330292E+03  0.56375985534E+03  0.60925072472E+03  0.00000000000E+00 0. -1.
         22    1    1    2    0    0 -0.20961344238E+03  0.81715922527E+03  0.92514485967E+02  0.84867303762E+03  0.00000000000E+00 0. -1.
<mgrwt>
<rscale>  0 0.20966893E+04</rscale>
<asrwt>0</asrwt>
<pdfrwt beam="1">  1        1 0.35519661E+00 0.20966893E+04</pdfrwt>
<pdfrwt beam="2">  1       -1 0.73233979E-01 0.20966893E+04</pdfrwt>
<totfact> 0.31731730E+00</totfact>
</mgrwt>
</event>
<event>
 6    1  0.2436515E-005  0.3029915E+04  0.7818608E-02  0.8235240E-01
          2   -1    0    0  501    0  0.00000000000E+00  0.00000000000E+00  0.29344107239E+04  0.29344107239E+04  0.00000000000E+00 0.  1.
         -2   -1    0    0    0  501 -0.00000000000E+00 -0.00000000000E+00 -0.78213172352E+03  0.78213172352E+03  0.00000000000E+00 0. -1.
         23    2    1    2    0    0 -0.11485506356E+04 -0.74015890560E+03  0.18758368737E+04  0.23224750109E+04  0.90124533623E+02 0.  0.
         11    1    3    3    0    0 -0.95411437131E+03 -0.60973997996E+03  0.16090272607E+04  0.19675075101E+04  0.00000000000E+00 0. -1.
        -11    1    3    3    0    0 -0.19443626431E+03 -0.13041892564E+03  0.26680961296E+03  0.35496750078E+03  0.00000000000E+00 0.  1.
         22    1    1    2    0    0  0.11485506356E+04  0.74015890560E+03  0.27644212671E+03  0.13940674365E+04  0.00000000000E+00 0. -1.
<mgrwt>
<rscale>  0 0.30299147E+04</rscale>
<asrwt>0</asrwt>
<pdfrwt beam="1">  1        2 0.45144780E+00 0.30299147E+04</pdfrwt>
<pdfrwt beam="2">  1       -2 0.12032796E+00 0.30299147E+04</pdfrwt>
<totfact> 0.86109262E-01</totfact>
</mgrwt>
</event>
<event>
 6    1  0.2436515E-005  0.2230576E+04  0.7818608E-02  0.8505809E-01
          2   -1    0    0  501    0  0.00000000000E+00  0.00000000000E+00  0.20622711574E+04  0.20622711574E+04  0.00000000000E+00 0.  1.
         -2   -1    0    0    0  501 -0.00000000000E+00 -0.00000000000E+00 -0.60315395843E+03  0.60315395843E+03  0.00000000000E+00 0. -1.
         23    2    1    2    0    0  0.91324624491E+03 -0.28095829035E+03  0.47858802141E+02  0.96113449290E+03  0.92373068216E+02 0.  0.
         11    1    3    3    0    0  0.57414531576E+03 -0.20478180026E+03  0.65840496981E+02  0.61311777039E+03  0.00000000000E+00 0. -1.
        -11    1    3    3    0    0  0.33910092915E+03 -0.76176490087E+02 -0.17981694840E+02  0.34801672250E+03  0.00000000000E+00 0.  1.
         22    1    1    2    0    0 -0.91324624491E+03  0.28095829035E+03  0.14112583968E+04  0.17042906229E+04  0.00000000000E+00 0.  1.
<mgrwt>
<rscale>  0 0.22305757E+04</rscale>
<asrwt>0</asrwt>
<pdfrwt beam="1">  1        2 0.31727248E+00 0.22305757E+04</pdfrwt>
<pdfrwt beam="2">  1       -2 0.92792918E-01 0.22305757E+04</pdfrwt>
<totfact> 0.55362344E+00</totfact>
</mgrwt>
</event>
<event>
 6    1  0.2436515E-005  0.3030025E+04  0.7818608E-02  0.8235209E-01
         -2   -1    0    0    0  501 -0.00000000000E+00  0.00000000000E+00  0.15098555356E+04  0.15098555356E+04  0.00000000000E+00 0. -1.
          2   -1    0    0  501    0  0.00000000000E+00 -0.00000000000E+00 -0.15201868383E+04  0.15201868383E+04  0.00000000000E+00 0.  1.
         23    2    1    2    0    0  0.12187215944E+04 -0.87849415141E+03  0.17951777797E+03  0.15157514599E+04  0.90783020976E+02 0.  0.
         13    1    3    3    0    0  0.73299296434E+03 -0.47354058739E+03  0.98596663049E+02  0.87820309475E+03  0.00000000000E+00 0.  1.
        -13    1    3    3    0    0  0.48572863010E+03 -0.40495356402E+03  0.80921114919E+02  0.63754836519E+03  0.00000000000E+00 0. -1.
         22    1    1    2    0    0 -0.12187215944E+04  0.87849415141E+03 -0.18984908066E+03  0.15142909140E+04  0.00000000000E+00 0.  1.
<mgrwt>
<rscale>  0 0.30300248E+04</rscale>
<asrwt>0</asrwt>
<pdfrwt beam="1">  1        2 0.23387490E+00 0.30300248E+04</pdfrwt>
<pdfrwt beam="2">  1       -2 0.23228547E+00 0.30300248E+04</pdfrwt>
<totfact> 0.87356340E-01</totfact>
</mgrwt>
</event>
<event>
 6    1  0.2436515E-005  0.1250556E+04  0.7818608E-02  0.9069720E-01
         -2   -1    0    0    0  501 -0.00000000000E+00  0.00000000000E+00  0.26545961496E+03  0.26545961496E+03  0.00000000000E+00 0. -1.
          2   -1    0    0  501    0  0.00000000000E+00 -0.00000000000E+00 -0.14728144175E+04  0.14728144175E+04  0.00000000000E+00 0.  1.
         23    2    1    2    0    0  0.19445350983E+03 -0.17733750297E+03 -0.13902179135E+04  0.14178061326E+04  0.90595944547E+02 0.  0.
         11    1    3    3    0    0  0.22580324909E+02  0.58123627765E+01 -0.66466566331E+02  0.70437625413E+02  0.00000000000E+00 0. -1.
        -11    1    3    3    0    0  0.17187318492E+03 -0.18314986575E+03 -0.13237513472E+04  0.13473685072E+04  0.00000000000E+00 0.  1.
         22    1    1    2    0    0 -0.19445350983E+03  0.17733750297E+03  0.18286311100E+03  0.32046789981E+03  0.00000000000E+00 0. -1.
<mgrwt>
<rscale>  0 0.12505563E+04</rscale>
<asrwt>0</asrwt>
<pdfrwt beam="1">  1        2 0.22658683E+00 0.12505563E+04</pdfrwt>
<pdfrwt beam="2">  1       -2 0.40839941E-01 0.12505563E+04</pdfrwt>
<totfact> 0.73401924E+01</totfact>
</mgrwt>
</event>
<event>
 6    1  0.2436515E-005  0.2382261E+04  0.7818608E-02  0.8446175E-01
          2   -1    0    0  501    0  0.00000000000E+00  0.00000000000E+00  0.17954206559E+04  0.17954206559E+04  0.00000000000E+00 0.  1.
         -2   -1    0    0    0  501 -0.00000000000E+00 -0.00000000000E+00 -0.79022792531E+03  0.79022792531E+03  0.00000000000E+00 0. -1.
         23    2    1    2    0    0  0.69781011698E+03  0.95559966007E+03  0.37228590469E+03  0.12437541293E+04  0.90652466701E+02 0.  0.
         11    1    3    3    0    0  0.38795728013E+03  0.50128689201E+03  0.15567102399E+03  0.65271193264E+03  0.00000000000E+00 0.  1.
        -11    1    3    3    0    0  0.30985283685E+03  0.45431276806E+03  0.21661488070E+03  0.59104219669E+03  0.00000000000E+00 0. -1.
         22    1    1    2    0    0 -0.69781011698E+03 -0.95559966007E+03  0.63290682588E+03  0.13418944519E+04  0.00000000000E+00 0. -1.
<mgrwt>
<rscale>  0 0.23822607E+04</rscale>
<asrwt>0</asrwt>
<pdfrwt beam="1">  1        2 0.27621856E+00 0.23822607E+04</pdfrwt>
<pdfrwt beam="2">  1       -2 0.12157353E+00 0.23822607E+04</pdfrwt>
<totfact> 0.40181886E+00</totfact>
</mgrwt>
</event>
<event>
 6    1  0.2436515E-005  0.2957900E+04  0.7818608E-02  0.8255856E-01
         -2   -1    0    0    0  501 -0.00000000000E+00  0.00000000000E+00  0.15884111261E+04  0.15884111261E+04  0.00000000000E+00 0. -1.
          2   -1    0    0  501    0  0.00000000000E+00 -0.00000000000E+00 -0.13770323307E+04  0.13770323307E+04  0.00000000000E+00 0.  1.
         23    2    1    2    0    0  0.14293632153E+04  0.24697045610E+03 -0.17604538433E+03  0.14640537331E+04  0.91584653131E+02 0.  0.
         13    1    3    3    0    0  0.10383410040E+04  0.13895307420E+03 -0.13682470610E+03  0.10564946747E+04  0.00000000000E+00 0.  1.
        -13    1    3    3    0    0  0.39102221127E+03  0.10801738190E+03 -0.39220678234E+02  0.40755905842E+03  0.00000000000E+00 0. -1.
         22    1    1    2    0    0 -0.14293632153E+04 -0.24697045610E+03  0.38742417982E+03  0.15013897237E+04  0.00000000000E+00 0. -1.
<mgrwt>
<rscale>  0 0.29579003E+04</rscale>
<asrwt>0</asrwt>
<pdfrwt beam="1">  1        2 0.21185113E+00 0.29579003E+04</pdfrwt>
<pdfrwt beam="2">  1       -2 0.24437094E+00 0.29579003E+04</pdfrwt>
<totfact> 0.89189228E-01</totfact>
</mgrwt>
</event>
<event>
 6    1  0.2436515E-005  0.2690573E+04  0.7818608E-02  0.8338070E-01
         -2   -1    0    0    0  501 -0.00000000000E+00  0.00000000000E+00  0.13208032119E+04  0.13208032119E+04  0.00000000000E+00 0. -1.
          2   -1    0    0  501    0  0.00000000000E+00 -0.00000000000E+00 -0.13702233260E+04  0.13702233260E+04  0.00000000000E+00 0.  1.
         23    2    1    2    0    0 -0.12440431959E+02 -0.23538090562E+03 -0.13478833937E+04  0.13713425516E+04  0.90729354341E+02 0.  0.
         13    1    3    3    0    0 -0.27948157402E+02 -0.18792003096E+03 -0.85061972308E+03  0.87157842494E+03  0.00000000000E+00 0. -1.
        -13    1    3    3    0    0  0.15507725443E+02 -0.47460874662E+02 -0.49726367065E+03  0.49976412668E+03  0.00000000000E+00 0.  1.
         22    1    1    2    0    0  0.12440431959E+02  0.23538090562E+03  0.12984632796E+04  0.13196839863E+04  0.00000000000E+00 0. -1.
<mgrwt>
<rscale>  0 0.26905727E+04</rscale>
<asrwt>0</asrwt>
<pdfrwt beam="1">  1        2 0.21080359E+00 0.26905727E+04</pdfrwt>
<pdfrwt beam="2">  1       -2 0.20320050E+00 0.26905727E+04</pdfrwt>
<totfact> 0.16749363E+00</totfact>
</mgrwt>
</event>
<event>
 6    1  0.2436515E-005  0.1916284E+04  0.7818608E-02  0.8646793E-01
          2   -1    0    0  501    0  0.00000000000E+00  0.00000000000E+00  0.20316030991E+04  0.20316030991E+04  0.00000000000E+00 0.  1.
         -2   -1    0    0    0  501 -0.00000000000E+00 -0.00000000000E+00 -0.45187756248E+03  0.45187756248E+03  0.00000000000E+00 0. -1.
         23    2    1    2    0    0  0.28094921602E+03 -0.21945746365E+03 -0.35948728592E+03  0.51177063944E+03  0.74726423173E+02 0.  0.
         13    1    3    3    0    0  0.22279399272E+03 -0.13488237515E+03 -0.27581215610E+03  0.37934517761E+03  0.00000000000E+00 0. -1.
        -13    1    3    3    0    0  0.58155223301E+02 -0.84575088503E+02 -0.83675129812E+02  0.13242546183E+03  0.00000000000E+00 0.  1.
         22    1    1    2    0    0 -0.28094921602E+03  0.21945746365E+03  0.19392128226E+04  0.19717100222E+04  0.00000000000E+00 0.  1.
<mgrwt>
<rscale>  0 0.19162838E+04</rscale>
<asrwt>0</asrwt>
<pdfrwt beam="1">  1        2 0.31255432E+00 0.19162838E+04</pdfrwt>
<pdfrwt beam="2">  1       -2 0.69519626E-01 0.19162838E+04</pdfrwt>
<totfact> 0.11323971E+01</totfact>
</mgrwt>
</event>
<event>
 6    1  0.2436515E-005  0.2369054E+04  0.7818608E-02  0.8451181E-01
          2   -1    0    0  501    0  0.00000000000E+00  0.00000000000E+00  0.19334032054E+04  0.19334032054E+04  0.00000000000E+00 0.  1.
         -2   -1    0    0    0  501 -0.00000000000E+00 -0.00000000000E+00 -0.72571721147E+03  0.72571721147E+03  0.00000000000E+00 0. -1.
         23    2    1    2    0    0  0.94204703039E+03 -0.62245853798E+03  0.99897876787E+03  0.15108756933E+04  0.99395890929E+02 0.  0.
         13    1    3    3    0    0  0.89351435842E+03 -0.56062705181E+03  0.92610942091E+03  0.14036912978E+04  0.00000000000E+00 0. -1.
        -13    1    3    3    0    0  0.48532671964E+02 -0.61831486169E+02  0.72869346955E+02  0.10718439558E+03  0.00000000000E+00 0.  1.
         22    1    1    2    0    0 -0.94204703039E+03  0.62245853798E+03  0.20870722610E+03  0.11482447236E+04  0.00000000000E+00 0. -1.
<mgrwt>
<rscale>  0 0.23690538E+04</rscale>
<asrwt>0</asrwt>
<pdfrwt beam="1">  1        2 0.29744665E+00 0.23690538E+04</pdfrwt>
<pdfrwt beam="2">  1       -2 0.11164880E+00 0.23690538E+04</pdfrwt>
<totfact> 0.41567376E+00</totfact>
</mgrwt>
</event>
<event>
 6    1  0.2436515E-005  0.6646000E+04  0.7818608E-02  0.7615088E-01
          2   -1    0    0  501    0  0.00000000000E+00  0.00000000000E+00  0.22077241302E+04  0.22077241302E+04  0.00000000000E+00 0.  1.
         -2   -1    0    0    0  501 -0.00000000000E+00 -0.00000000000E+00 -0.50016792390E+04  0.50016792390E+04  0.00000000000E+00 0. -1.
         23    2    1    2    0    0  0.13001705539E+04 -0.28949336709E+04 -0.33040821492E+03  0.31919230984E+04  0.90105767974E+02 0.  0.
         13    1    3    3    0    0  0.79536364889E+03 -0.17857445443E+04 -0.24713587884E+03  0.19704220497E+04  0.00000000000E+00 0.  1.
        -13    1    3    3    0    0  0.50480690498E+03 -0.11091891266E+04 -0.83272336079E+02  0.12215010486E+04  0.00000000000E+00 0. -1.
         22    1    1    2    0    0 -0.13001705539E+04  0.28949336709E+04 -0.24635468940E+04  0.40174802708E+04  0.00000000000E+00 0. -1.
<mgrwt>
<rscale>  0 0.66459997E+04</rscale>
<asrwt>0</asrwt>
<pdfrwt beam="1">  1        2 0.33964987E+00 0.66459997E+04</pdfrwt>
<pdfrwt beam="2">  1       -2 0.76948910E+00 0.66459997E+04</pdfrwt>
<totfact> 0.38391559E-04</totfact>
</mgrwt>
</event>
<event>
 6    1  0.2436515E-005  0.4031179E+04  0.7818608E-02  0.7998286E-01
         -2   -1    0    0    0  501 -0.00000000000E+00  0.00000000000E+00  0.10289993349E+04  0.10289993349E+04  0.00000000000E+00 0. -1.
          2   -1    0    0  501    0  0.00000000000E+00 -0.00000000000E+00 -0.39481079677E+04  0.39481079677E+04  0.00000000000E+00 0.  1.
         23    2    1    2    0    0  0.52405701013E+03  0.84395194691E+03  0.70334141545E+03  0.12209077618E+04  0.95057759136E+02 0.  0.
         11    1    3    3    0    0  0.13621692951E+03  0.19649169968E+03  0.21825279561E+03  0.32372569054E+03  0.00000000000E+00 0.  1.
        -11    1    3    3    0    0  0.38784008062E+03  0.64746024723E+03  0.48508861985E+03  0.89718207125E+03  0.00000000000E+00 0. -1.
         22    1    1    2    0    0 -0.52405701013E+03 -0.84395194691E+03 -0.36224500482E+04  0.37561995408E+04  0.00000000000E+00 0.  1.
<mgrwt>
<rscale>  0 0.40311787E+04</rscale>
<asrwt>0</asrwt>
<pdfrwt beam="1">  1        2 0.60740122E+00 0.40311787E+04</pdfrwt>
<pdfrwt beam="2">  1       -2 0.15830759E+00 0.40311787E+04</pdfrwt>
<totfact> 0.76571455E-02</totfact>
</mgrwt>
</event>
<event>
 6    1  0.2436515E-005  0.5347794E+04  0.7818608E-02  0.7776987E-01
         -2   -1    0    0    0  501 -0.00000000000E+00  0.00000000000E+00  0.21089705538E+04  0.21089705538E+04  0.00000000000E+00 0. -1.
          2   -1    0    0  501    0  0.00000000000E+00 -0.00000000000E+00 -0.33901495628E+04  0.33901495628E+04  0.00000000000E+00 0.  1.
         23    2    1    2    0    0 -0.17912352720E+04  0.10863701367E+04  0.10665825757E+04  0.23525810128E+04  0.91187485863E+02 0.  0.
         11    1    3    3    0    0 -0.13815796959E+04  0.82075315356E+03  0.77757870276E+03  0.17852245893E+04  0.00000000000E+00 0. -1.
        -11    1    3    3    0    0 -0.40965557604E+03  0.26561698315E+03  0.28900387293E+03  0.56735642350E+03  0.00000000000E+00 0.  1.
         22    1    1    2    0    0  0.17912352720E+04 -0.10863701367E+04 -0.23477615846E+04  0.31465391038E+04  0.00000000000E+00 0.  1.
<mgrwt>
<rscale>  0 0.53477942E+04</rscale>
<asrwt>0</asrwt>
<pdfrwt beam="1">  1        2 0.52156147E+00 0.53477942E+04</pdfrwt>
<pdfrwt beam="2">  1       -2 0.32445701E+00 0.53477942E+04</pdfrwt>
<totfact> 0.15385884E-02</totfact>
</mgrwt>
</event>
<event>
 6    1  0.2436515E-005  0.1756204E+04  0.7818608E-02  0.8729943E-01
          2   -1    0    0  501    0  0.00000000000E+00  0.00000000000E+00  0.12002698029E+04  0.12002698029E+04  0.00000000000E+00 0.  1.
         -2   -1    0    0    0  501 -0.00000000000E+00 -0.00000000000E+00 -0.64240842059E+03  0.64240842059E+03  0.00000000000E+00 0. -1.
         23    2    1    2    0    0  0.42957243629E+03  0.70399668992E+03 -0.30103226865E+02  0.82983756520E+03  0.87065279637E+02 0.  0.
         13    1    3    3    0    0  0.30385557503E+03  0.48657408217E+03 -0.60563016745E+02  0.57684523653E+03  0.00000000000E+00 0. -1.
        -13    1    3    3    0    0  0.12571686126E+03  0.21742260775E+03  0.30459789880E+02  0.25299232867E+03  0.00000000000E+00 0.  1.
         22    1    1    2    0    0 -0.42957243629E+03 -0.70399668992E+03  0.58796460915E+03  0.10128406583E+04  0.00000000000E+00 0. -1.
<mgrwt>
<rscale>  0 0.17562043E+04</rscale>
<asrwt>0</asrwt>
<pdfrwt beam="1">  1        2 0.18465689E+00 0.17562043E+04</pdfrwt>
<pdfrwt beam="2">  1       -2 0.98832065E-01 0.17562043E+04</pdfrwt>
<totfact> 0.15236354E+01</totfact>
</mgrwt>
</event>
<event>
 6    1  0.2436515E-005  0.3333768E+04  0.7818608E-02  0.8154356E-01
         -2   -1    0    0    0  501 -0.00000000000E+00  0.00000000000E+00  0.97343770919E+03  0.97343770919E+03  0.00000000000E+00 0. -1.
          2   -1    0    0  501    0  0.00000000000E+00 -0.00000000000E+00 -0.28543192933E+04  0.28543192933E+04  0.00000000000E+00 0.  1.
         23    2    1    2    0    0  0.33857977450E+02 -0.46596184816E+03  0.89445551117E+03  0.10133720255E+04  0.92765262569E+02 0.  0.
         13    1    3    3    0    0  0.59614596871E+02 -0.28768143260E+03  0.60260755601E+03  0.67041060059E+03  0.00000000000E+00 0. -1.
        -13    1    3    3    0    0 -0.25756619420E+02 -0.17828041555E+03  0.29184795515E+03  0.34296142486E+03  0.00000000000E+00 0.  1.
         22    1    1    2    0    0 -0.33857977450E+02  0.46596184816E+03 -0.27753370953E+04  0.28143849771E+04  0.00000000000E+00 0.  1.
<mgrwt>
<rscale>  0 0.33337679E+04</rscale>
<asrwt>0</asrwt>
<pdfrwt beam="1">  1        2 0.43912605E+00 0.33337679E+04</pdfrwt>
<pdfrwt beam="2">  1       -2 0.14975965E+00 0.33337679E+04</pdfrwt>
<totfact> 0.53679086E-01</totfact>
</mgrwt>
</event>
<event>
 6    1  0.2436515E-005  0.1447899E+04  0.7818608E-02  0.8919858E-01
         -2   -1    0    0    0  501 -0.00000000000E+00  0.00000000000E+00  0.43397297526E+03  0.43397297526E+03  0.00000000000E+00 0. -1.
          2   -1    0    0  501    0  0.00000000000E+00 -0.00000000000E+00 -0.12076860861E+04  0.12076860861E+04  0.00000000000E+00 0.  1.
         23    2    1    2    0    0  0.30567789763E+03 -0.58797493679E+03 -0.71083572995E+03  0.97599618240E+03  0.90153256617E+02 0.  0.
         11    1    3    3    0    0  0.12962706618E+03 -0.18898030919E+03 -0.29354747332E+03  0.37240683753E+03  0.00000000000E+00 0. -1.
        -11    1    3    3    0    0  0.17605083145E+03 -0.39899462760E+03 -0.41728825663E+03  0.60358934486E+03  0.00000000000E+00 0.  1.
         22    1    1    2    0    0 -0.30567789763E+03  0.58797493679E+03 -0.62877380882E+02  0.66566287896E+03  0.00000000000E+00 0. -1.
<mgrwt>
<rscale>  0 0.14478993E+04</rscale>
<asrwt>0</asrwt>
<pdfrwt beam="1">  1        2 0.18579786E+00 0.14478993E+04</pdfrwt>
<pdfrwt beam="2">  1       -2 0.66765074E-01 0.14478993E+04</pdfrwt>
<totfact> 0.37457111E+01</totfact>
</mgrwt>
</event>
<event>
 6    1  0.2436515E-005  0.2587487E+04  0.7818608E-02  0.8372464E-01
          2   -1    0    0  501    0  0.00000000000E+00  0.00000000000E+00  0.11166585762E+04  0.11166585762E+04  0.00000000000E+00 0.  1.
         -2   -1    0    0    0  501 -0.00000000000E+00 -0.00000000000E+00 -0.14989116190E+04  0.14989116190E+04  0.00000000000E+00 0. -1.
         23    2    1    2    0    0 -0.11661607998E+04  0.53307681432E+03 -0.35291440243E+03  0.13330092194E+04  0.90901609348E+02 0.  0.
         11    1    3    3    0    0 -0.27071192007E+03  0.14082313166E+03 -0.12113518505E+03  0.32831361704E+03  0.00000000000E+00 0. -1.
        -11    1    3    3    0    0 -0.89544887970E+03  0.39225368267E+03 -0.23177921738E+03  0.10046956023E+04  0.00000000000E+00 0.  1.
         22    1    1    2    0    0  0.11661607998E+04 -0.53307681432E+03 -0.29338640426E+02  0.12825609758E+04  0.00000000000E+00 0. -1.
<mgrwt>
<rscale>  0 0.25874872E+04</rscale>
<asrwt>0</asrwt>
<pdfrwt beam="1">  1        2 0.17179363E+00 0.25874872E+04</pdfrwt>
<pdfrwt beam="2">  1       -2 0.23060179E+00 0.25874872E+04</pdfrwt>
<totfact> 0.15967966E+00</totfact>
</mgrwt>
</event>
<event>
 6    1  0.2436515E-005  0.8880841E+03  0.7818608E-02  0.9440601E-01
         -2   -1    0    0    0  501 -0.00000000000E+00  0.00000000000E+00  0.26527386545E+03  0.26527386545E+03  0.00000000000E+00 0. -1.
          2   -1    0    0  501    0  0.00000000000E+00 -0.00000000000E+00 -0.74328219192E+03  0.74328219192E+03  0.00000000000E+00 0.  1.
         23    2    1    2    0    0 -0.27719128284E+03  0.31545210198E+03 -0.95135254389E+02  0.44028074975E+03  0.91931420375E+02 0.  0.
         11    1    3    3    0    0 -0.86740493516E+02  0.10140688655E+03 -0.74976223610E+02  0.15306437849E+03  0.00000000000E+00 0. -1.
        -11    1    3    3    0    0 -0.19045078932E+03  0.21404521543E+03 -0.20159030779E+02  0.28721637126E+03  0.00000000000E+00 0.  1.
         22    1    1    2    0    0  0.27719128284E+03 -0.31545210198E+03 -0.38287307208E+03  0.56827530762E+03  0.00000000000E+00 0. -1.
<mgrwt>
<rscale>  0 0.88808410E+03</rscale>
<asrwt>0</asrwt>
<pdfrwt beam="1">  1        2 0.11435111E+00 0.88808410E+03</pdfrwt>
<pdfrwt beam="2">  1       -2 0.40811364E-01 0.88808410E+03</pdfrwt>
<totfact> 0.21633185E+02</totfact>
</mgrwt>
</event>
<event>
 6    1  0.2436515E-005  0.3516683E+04  0.7818608E-02  0.8109848E-01
          2   -1    0    0  501    0  0.00000000000E+00  0.00000000000E+00  0.19321822782E+04  0.19321822782E+04  0.00000000000E+00 0.  1.
         -2   -1    0    0    0  501 -0.00000000000E+00 -0.00000000000E+00 -0.16001412387E+04  0.16001412387E+04  0.00000000000E+00 0. -1.
         23    2    1    2    0    0  0.53869394129E+03 -0.13832582718E+04  0.11105518186E+04  0.18561154027E+04  0.90798884061E+02 0.  0.
         11    1    3    3    0    0  0.23153462775E+03 -0.49253869927E+03  0.37768879159E+03  0.66245866091E+03  0.00000000000E+00 0.  1.
        -11    1    3    3    0    0  0.30715931354E+03 -0.89071957256E+03  0.73286302702E+03  0.11936567418E+04  0.00000000000E+00 0. -1.
         22    1    1    2    0    0 -0.53869394129E+03  0.13832582718E+04 -0.77851077908E+03  0.16762081142E+04  0.00000000000E+00 0. -1.
<mgrwt>
<rscale>  0 0.35166828E+04</rscale>
<asrwt>0</asrwt>
<pdfrwt beam="1">  1        2 0.29725881E+00 0.35166828E+04</pdfrwt>
<pdfrwt beam="2">  1       -2 0.24617557E+00 0.35166828E+04</pdfrwt>
<totfact> 0.40573216E-01</totfact>
</mgrwt>
</event>
<event>
 6    1  0.2436515E-005  0.1678682E+04  0.7818608E-02  0.8773617E-01
         -2   -1    0    0    0  501 -0.00000000000E+00  0.00000000000E+00  0.47131903039E+03  0.47131903039E+03  0.00000000000E+00 0. -1.
          2   -1    0    0  501    0  0.00000000000E+00 -0.00000000000E+00 -0.14947271893E+04  0.14947271893E+04  0.00000000000E+00 0.  1.
         23    2    1    2    0    0  0.77874756047E+03 -0.19369680582E+03 -0.79097695585E+03  0.11305879744E+04  0.92835378861E+02 0.  0.
         13    1    3    3    0    0  0.55512918845E+03 -0.11959778442E+03 -0.50366978560E+03  0.75904894364E+03  0.00000000000E+00 0. -1.
        -13    1    3    3    0    0  0.22361837201E+03 -0.74099021404E+02 -0.28730717025E+03  0.37153903073E+03  0.00000000000E+00 0.  1.
         22    1    1    2    0    0 -0.77874756047E+03  0.19369680582E+03 -0.23243120305E+03  0.83545824532E+03  0.00000000000E+00 0.  1.
<mgrwt>
<rscale>  0 0.16786821E+04</rscale>
<asrwt>0</asrwt>
<pdfrwt beam="1">  1        2 0.22995802E+00 0.16786821E+04</pdfrwt>
<pdfrwt beam="2">  1       -2 0.72510622E-01 0.16786821E+04</pdfrwt>
<totfact> 0.20959259E+01</totfact>
</mgrwt>
</event>
<event>
 6    1  0.2436515E-005  0.1153639E+04  0.7818608E-02  0.9154433E-01
          2   -1    0    0  501    0  0.00000000000E+00  0.00000000000E+00  0.22806074463E+04  0.22806074463E+04  0.00000000000E+00 0.  1.
         -2   -1    0    0    0  501 -0.00000000000E+00 -0.00000000000E+00 -0.14589118326E+03  0.14589118326E+03  0.00000000000E+00 0. -1.
         23    2    1    2    0    0  0.33112866546E+03 -0.43432894123E+03  0.70897841993E+03  0.89973203981E+03  0.92625705154E+02 0.  0.
         13    1    3    3    0    0  0.26740525221E+03 -0.29337502656E+03  0.47196278339E+03  0.61670361116E+03  0.00000000000E+00 0. -1.
        -13    1    3    3    0    0  0.63723413251E+02 -0.14095391467E+03  0.23701563654E+03  0.28302842865E+03  0.00000000000E+00 0.  1.
         22    1    1    2    0    0 -0.33112866546E+03  0.43432894123E+03  0.14257378431E+04  0.15267665897E+04  0.00000000000E+00 0.  1.
<mgrwt>
<rscale>  0 0.11536386E+04</rscale>
<asrwt>0</asrwt>
<pdfrwt beam="1">  1        2 0.35086266E+00 0.11536386E+04</pdfrwt>
<pdfrwt beam="2">  1       -2 0.22444799E-01 0.11536386E+04</pdfrwt>
<totfact> 0.80530600E+01</totfact>
</mgrwt>
</event>
<event>
 6    1  0.2436515E-005  0.9904341E+03  0.7818608E-02  0.9319099E-01
         -2   -1    0    0    0  501 -0.00000000000E+00  0.00000000000E+00  0.32115552980E+03  0.32115552980E+03  0.00000000000E+00 0. -1.
          2   -1    0    0  501    0  0.00000000000E+00 -0.00000000000E+00 -0.76361737773E+03  0.76361737773E+03  0.00000000000E+00 0.  1.
         23    2    1    2    0    0  0.31717901825E+03  0.37474325180E+03 -0.21413520989E+03  0.54332292091E+03  0.91163994417E+02 0.  0.
         11    1    3    3    0    0  0.11616575754E+03  0.78958794800E+02 -0.78001518074E+02  0.16066490383E+03  0.00000000000E+00 0.  1.
        -11    1    3    3    0    0  0.20101326071E+03  0.29578445700E+03 -0.13613369182E+03  0.38265801707E+03  0.00000000000E+00 0. -1.
         22    1    1    2    0    0 -0.31717901825E+03 -0.37474325180E+03 -0.22832663804E+03  0.54144998663E+03  0.00000000000E+00 0. -1.
<mgrwt>
<rscale>  0 0.99043413E+03</rscale>
<asrwt>0</asrwt>
<pdfrwt beam="1">  1        2 0.11747960E+00 0.99043413E+03</pdfrwt>
<pdfrwt beam="2">  1       -2 0.49408543E-01 0.99043413E+03</pdfrwt>
<totfact> 0.14186594E+02</totfact>
</mgrwt>
</event>
<event>
 6    1  0.2436515E-005  0.1959422E+04  0.7818608E-02  0.8625831E-01
          2   -1    0    0  501    0  0.00000000000E+00  0.00000000000E+00  0.15083719627E+04  0.15083719627E+04  0.00000000000E+00 0.  1.
         -2   -1    0    0    0  501 -0.00000000000E+00 -0.00000000000E+00 -0.63633759893E+03  0.63633759893E+03  0.00000000000E+00 0. -1.
         23    2    1    2    0    0  0.73207983326E+03  0.41018314594E+03 -0.11195748304E+03  0.85148450386E+03  0.91105909979E+02 0.  0.
         11    1    3    3    0    0  0.47517085558E+02  0.32932925145E+02 -0.31197940441E+02  0.65694462981E+02  0.00000000000E+00 0.  1.
        -11    1    3    3    0    0  0.68456274770E+03  0.37725022079E+03 -0.80759542600E+02  0.78579004088E+03  0.00000000000E+00 0. -1.
         22    1    1    2    0    0 -0.73207983326E+03 -0.41018314594E+03  0.98399184681E+03  0.12932250578E+04  0.00000000000E+00 0.  1.
<mgrwt>
<rscale>  0 0.19594222E+04</rscale>
<asrwt>0</asrwt>
<pdfrwt beam="1">  1        2 0.23205722E+00 0.19594222E+04</pdfrwt>
<pdfrwt beam="2">  1       -2 0.97898092E-01 0.19594222E+04</pdfrwt>
<totfact> 0.10166032E+01</totfact>
</mgrwt>
</event>
<event>
 6    1  0.2436515E-005  0.5461501E+04  0.7818608E-02  0.7761009E-01
         -2   -1    0    0    0  501 -0.00000000000E+00  0.00000000000E+00  0.19623129679E+04  0.19623129679E+04  0.00000000000E+00 0. -1.
          2   -1    0    0  501    0  0.00000000000E+00 -0.00000000000E+00 -0.38001059923E+04  0.38001059923E+04  0.00000000000E+00 0.  1.
         23    2    1    2    0    0  0.10855433799E+04 -0.23075754723E+04 -0.19473273615E+04  0.32099090658E+04  0.90129727426E+02 0.  0.
         13    1    3    3    0    0  0.36805113999E+03 -0.77800571562E+03 -0.60404700736E+03  0.10514881465E+04  0.00000000000E+00 0. -1.
        -13    1    3    3    0    0  0.71749223989E+03 -0.15295697567E+04 -0.13432803541E+04  0.21584209193E+04  0.00000000000E+00 0.  1.
         22    1    1    2    0    0 -0.10855433799E+04  0.23075754723E+04  0.10953433704E+03  0.25525098944E+04  0.00000000000E+00 0. -1.
<mgrwt>
<rscale>  0 0.54615006E+04</rscale>
<asrwt>0</asrwt>
<pdfrwt beam="1">  1        2 0.58463169E+00 0.54615006E+04</pdfrwt>
<pdfrwt beam="2">  1       -2 0.30189431E+00 0.54615006E+04</pdfrwt>
<totfact> 0.10627170E-02</totfact>
</mgrwt>
</event>
<event>
 6    1  0.2436515E-005  0.2235095E+04  0.7818608E-02  0.8503961E-01
         -2   -1    0    0    0  501 -0.00000000000E+00  0.00000000000E+00  0.10855078881E+04  0.10855078881E+04  0.00000000000E+00 0. -1.
          2   -1    0    0  501    0  0.00000000000E+00 -0.00000000000E+00 -0.11505330475E+04  0.11505330475E+04  0.00000000000E+00 0.  1.
         23    2    1    2    0    0 -0.85463377012E+03  0.57415929444E+03 -0.46264723512E+03  0.11323375825E+04  0.89934199020E+02 0.  0.
         11    1    3    3    0    0 -0.48667604998E+03  0.37478913601E+03 -0.25395680545E+03  0.66469130665E+03  0.00000000000E+00 0. -1.
        -11    1    3    3    0    0 -0.36795772014E+03  0.19937015842E+03 -0.20869042967E+03  0.46764627585E+03  0.00000000000E+00 0.  1.
         22    1    1    2    0    0  0.85463377012E+03 -0.57415929444E+03  0.39762207570E+03  0.11037033530E+04  0.00000000000E+00 0. -1.
<mgrwt>
<rscale>  0 0.22350953E+04</rscale>
<asrwt>0</asrwt>
<pdfrwt beam="1">  1        2 0.17700509E+00 0.22350953E+04</pdfrwt>
<pdfrwt beam="2">  1       -2 0.16700121E+00 0.22350953E+04</pdfrwt>
<totfact> 0.41405879E+00</totfact>
</mgrwt>
</event>
<event>
 6    1  0.2436515E-005  0.1390599E+04  0.7818608E-02  0.8960652E-01
         -1   -1    0    0    0  501 -0.00000000000E+00  0.00000000000E+00  0.37549152926E+03  0.37549152926E+03  0.00000000000E+00 0. -1.
          1   -1    0    0  501    0  0.00000000000E+00 -0.00000000000E+00 -0.12874892041E+04  0.12874892041E+04  0.00000000000E+00 0.  1.
         23    2    1    2    0    0  0.47442561181E+03  0.17374491564E+03  0.10789572402E+03  0.52480258303E+03  0.92245905289E+02 0.  0.
         11    1    3    3    0    0  0.32901367364E+03  0.12611594075E+03  0.31455395239E+02  0.35375792548E+03  0.00000000000E+00 0. -1.
        -11    1    3    3    0    0  0.14541193817E+03  0.47628974895E+02  0.76440328780E+02  0.17104465755E+03  0.00000000000E+00 0.  1.
         22    1    1    2    0    0 -0.47442561181E+03 -0.17374491564E+03 -0.10198933989E+04  0.11381781503E+04  0.00000000000E+00 0.  1.
<mgrwt>
<rscale>  0 0.13905988E+04</rscale>
<asrwt>0</asrwt>
<pdfrwt beam="1">  1        1 0.19807526E+00 0.13905988E+04</pdfrwt>
<pdfrwt beam="2">  1       -1 0.57767928E-01 0.13905988E+04</pdfrwt>
<totfact> 0.27348742E+01</totfact>
</mgrwt>
</event>
<event>
 6    1  0.2436515E-005  0.1331339E+04  0.7818608E-02  0.9005076E-01
          2   -1    0    0  501    0  0.00000000000E+00  0.00000000000E+00  0.89975700966E+03  0.89975700966E+03  0.00000000000E+00 0.  1.
         -2   -1    0    0    0  501 -0.00000000000E+00 -0.00000000000E+00 -0.49248397431E+03  0.49248397431E+03  0.00000000000E+00 0. -1.
         23    2    1    2    0    0 -0.36735471653E+02 -0.46046767583E+03 -0.29200195148E+03  0.55416850347E+03  0.91965293494E+02 0.  0.
         13    1    3    3    0    0 -0.43368532109E+02 -0.43747923556E+03 -0.24975014398E+03  0.50561254488E+03  0.00000000000E+00 0.  1.
        -13    1    3    3    0    0  0.66330604558E+01 -0.22988440266E+02 -0.42251807505E+02  0.48555958587E+02  0.00000000000E+00 0. -1.
         22    1    1    2    0    0  0.36735471653E+02  0.46046767583E+03  0.69927498683E+03  0.83807248050E+03  0.00000000000E+00 0.  1.
<mgrwt>
<rscale>  0 0.13313390E+04</rscale>
<asrwt>0</asrwt>
<pdfrwt beam="1">  1        2 0.13842415E+00 0.13313390E+04</pdfrwt>
<pdfrwt beam="2">  1       -2 0.75766766E-01 0.13313390E+04</pdfrwt>
<totfact> 0.44802323E+01</totfact>
</mgrwt>
</event>
<event>
 6    1  0.2436515E-005  0.3853804E+04  0.7818608E-02  0.8034706E-01
         -2   -1    0    0    0  501 -0.00000000000E+00  0.00000000000E+00  0.10274506898E+04  0.10274506898E+04  0.00000000000E+00 0. -1.
          2   -1    0    0  501    0  0.00000000000E+00 -0.00000000000E+00 -0.36137512762E+04  0.36137512762E+04  0.00000000000E+00 0.  1.
         23    2    1    2    0    0 -0.10806442536E+04  0.80751039668E+03  0.36129484969E+03  0.13995690598E+04  0.91621729110E+02 0.  0.
         13    1    3    3    0    0 -0.62024792037E+03  0.45735741139E+03  0.25293071903E+03  0.81108398648E+03  0.00000000000E+00 0.  1.
        -13    1    3    3    0    0 -0.46039633325E+03  0.35015298528E+03  0.10836413066E+03  0.58848507337E+03  0.00000000000E+00 0. -1.
         22    1    1    2    0    0  0.10806442536E+04 -0.80751039668E+03 -0.29475954361E+04  0.32416329062E+04  0.00000000000E+00 0.  1.
<mgrwt>
<rscale>  0 0.38538040E+04</rscale>
<asrwt>0</asrwt>
<pdfrwt beam="1">  1        2 0.55596174E+00 0.38538040E+04</pdfrwt>
<pdfrwt beam="2">  1       -2 0.15806934E+00 0.38538040E+04</pdfrwt>
<totfact> 0.13995258E-01</totfact>
</mgrwt>
</event>
<event>
 6    1  0.2436515E-005  0.3052616E+04  0.7818608E-02  0.8228864E-01
          2   -1    0    0  501    0  0.00000000000E+00  0.00000000000E+00  0.20831165189E+04  0.20831165189E+04  0.00000000000E+00 0.  1.
         -2   -1    0    0    0  501 -0.00000000000E+00 -0.00000000000E+00 -0.11183321596E+04  0.11183321596E+04  0.00000000000E+00 0. -1.
         23    2    1    2    0    0  0.22071345579E+01 -0.14935334021E+04  0.16155023622E+03  0.15056208715E+04  0.10074142618E+03 0.  0.
         13    1    3    3    0    0 -0.22314451826E+02 -0.61819942294E+03  0.11103169255E+03  0.62848746847E+03  0.00000000000E+00 0. -1.
        -13    1    3    3    0    0  0.24521586383E+02 -0.87533397921E+03  0.50518543671E+02  0.87713340298E+03  0.00000000000E+00 0.  1.
         22    1    1    2    0    0 -0.22071345579E+01  0.14935334021E+04  0.80323412305E+03  0.16958278071E+04  0.00000000000E+00 0. -1.
<mgrwt>
<rscale>  0 0.30526161E+04</rscale>
<asrwt>0</asrwt>
<pdfrwt beam="1">  1        2 0.32047946E+00 0.30526161E+04</pdfrwt>
<pdfrwt beam="2">  1       -2 0.17205110E+00 0.30526161E+04</pdfrwt>
<totfact> 0.10549613E+00</totfact>
</mgrwt>
</event>
<event>
 6    1  0.2436515E-005  0.7728847E+03  0.7818608E-02  0.9600116E-01
         -2   -1    0    0    0  501 -0.00000000000E+00  0.00000000000E+00  0.26655770031E+03  0.26655770031E+03  0.00000000000E+00 0. -1.
          2   -1    0    0  501    0  0.00000000000E+00 -0.00000000000E+00 -0.56024526198E+03  0.56024526198E+03  0.00000000000E+00 0.  1.
         23    2    1    2    0    0 -0.64741827303E+02  0.34579051289E+03  0.81830800015E+01  0.36324232191E+03  0.90085729299E+02 0.  0.
         13    1    3    3    0    0 -0.36838194389E+02  0.30554999706E+03  0.30806012598E+02  0.30930060407E+03  0.00000000000E+00 0. -1.
        -13    1    3    3    0    0 -0.27903632914E+02  0.40240515830E+02 -0.22622932597E+02  0.53941717838E+02  0.00000000000E+00 0.  1.
         22    1    1    2    0    0  0.64741827303E+02 -0.34579051289E+03 -0.30187064167E+03  0.46356064038E+03  0.00000000000E+00 0. -1.
<mgrwt>
<rscale>  0 0.77288470E+03</rscale>
<asrwt>0</asrwt>
<pdfrwt beam="1">  1        2 0.86191578E-01 0.77288470E+03</pdfrwt>
<pdfrwt beam="2">  1       -2 0.41008877E-01 0.77288470E+03</pdfrwt>
<totfact> 0.30536993E+02</totfact>
</mgrwt>
</event>
<event>
 6    1  0.2436515E-005  0.3045498E+04  0.7818608E-02  0.8230857E-01
          2   -1    0    0  501    0  0.00000000000E+00  0.00000000000E+00  0.14454372661E+04  0.14454372661E+04  0.00000000000E+00 0.  1.
         -2   -1    0    0    0  501 -0.00000000000E+00 -0.00000000000E+00 -0.16041963060E+04  0.16041963060E+04  0.00000000000E+00 0. -1.
         23    2    1    2    0    0  0.72625067448E+03 -0.13365631343E+04 -0.11699111274E+03  0.15279287342E+04  0.83894231028E+02 0.  0.
         13    1    3    3    0    0  0.47263034158E+03 -0.79232245472E+03 -0.88576826259E+02  0.92682261852E+03  0.00000000000E+00 0.  1.
        -13    1    3    3    0    0  0.25362033291E+03 -0.54424067959E+03 -0.28414286481E+02  0.60110611564E+03  0.00000000000E+00 0. -1.
         22    1    1    2    0    0 -0.72625067448E+03  0.13365631343E+04 -0.41767927207E+02  0.15217048380E+04  0.00000000000E+00 0.  1.
<mgrwt>
<rscale>  0 0.30454984E+04</rscale>
<asrwt>0</asrwt>
<pdfrwt beam="1">  1        2 0.22237496E+00 0.30454984E+04</pdfrwt>
<pdfrwt beam="2">  1       -2 0.24679943E+00 0.30454984E+04</pdfrwt>
<totfact> 0.78178076E-01</totfact>
</mgrwt>
</event>
<event>
 6    1  0.2436515E-005  0.7299980E+03  0.7818608E-02  0.9667264E-01
          1   -1    0    0  501    0  0.00000000000E+00  0.00000000000E+00  0.91110890084E+03  0.91110890084E+03  0.00000000000E+00 0.  1.
         -1   -1    0    0    0  501 -0.00000000000E+00 -0.00000000000E+00 -0.14622213052E+03  0.14622213052E+03  0.00000000000E+00 0. -1.
         23    2    1    2    0    0  0.28043585143E+03  0.27628466842E+02  0.63732983614E+02  0.30166957836E+03  0.86804621762E+02 0.  0.
         13    1    3    3    0    0  0.63411575887E+02  0.24512232736E+02 -0.17028319554E+02  0.70084528799E+02  0.00000000000E+00 0.  1.
        -13    1    3    3    0    0  0.21702427554E+03  0.31162341066E+01  0.80761303167E+02  0.23158504956E+03  0.00000000000E+00 0. -1.
         22    1    1    2    0    0 -0.28043585143E+03 -0.27628466842E+02  0.70115378670E+03  0.75566145300E+03  0.00000000000E+00 0.  1.
<mgrwt>
<rscale>  0 0.72999804E+03</rscale>
<asrwt>0</asrwt>
<pdfrwt beam="1">  1        1 0.14017060E+00 0.72999804E+03</pdfrwt>
<pdfrwt beam="2">  1       -1 0.22495713E-01 0.72999804E+03</pdfrwt>
<totfact> 0.30223215E+02</totfact>
</mgrwt>
</event>
<event>
 6    1  0.2436515E-005  0.2814802E+04  0.7818608E-02  0.8298688E-01
         -2   -1    0    0    0  501 -0.00000000000E+00  0.00000000000E+00  0.21044861589E+04  0.21044861589E+04  0.00000000000E+00 0. -1.
          2   -1    0    0  501    0  0.00000000000E+00 -0.00000000000E+00 -0.94121661058E+03  0.94121661058E+03  0.00000000000E+00 0.  1.
         23    2    1    2    0    0  0.11616359565E+04 -0.66692335017E+03  0.10445983528E+04  0.17009843220E+04  0.89314581540E+02 0.  0.
         11    1    3    3    0    0  0.92078811639E+03 -0.49158160899E+03  0.78885705480E+03  0.13083572473E+04  0.00000000000E+00 0. -1.
        -11    1    3    3    0    0  0.24084784015E+03 -0.17534174118E+03  0.25574129795E+03  0.39262707470E+03  0.00000000000E+00 0.  1.
         22    1    1    2    0    0 -0.11616359565E+04  0.66692335017E+03  0.11867119561E+03  0.13447184476E+04  0.00000000000E+00 0.  1.
<mgrwt>
<rscale>  0 0.28148018E+04</rscale>
<asrwt>0</asrwt>
<pdfrwt beam="1">  1        2 0.14480256E+00 0.28148018E+04</pdfrwt>
<pdfrwt beam="2">  1       -2 0.32376710E+00 0.28148018E+04</pdfrwt>
<totfact> 0.54265625E-01</totfact>
</mgrwt>
</event>
<event>
 6    1  0.2436515E-005  0.1001631E+04  0.7818608E-02  0.9306757E-01
         -2   -1    0    0    0  501 -0.00000000000E+00  0.00000000000E+00  0.20856011257E+03  0.20856011257E+03  0.00000000000E+00 0. -1.
          2   -1    0    0  501    0  0.00000000000E+00 -0.00000000000E+00 -0.12026092490E+04  0.12026092490E+04  0.00000000000E+00 0.  1.
         23    2    1    2    0    0 -0.43043609611E+03  0.24219666110E+03 -0.57615493215E+03  0.76419948481E+03  0.90066038299E+02 0.  0.
         13    1    3    3    0    0 -0.42538652542E+03  0.22519460091E+03 -0.56848278962E+03  0.74487514818E+03  0.00000000000E+00 0.  1.
        -13    1    3    3    0    0 -0.50495706902E+01  0.17002060193E+02 -0.76721425315E+01  0.19324336624E+02  0.00000000000E+00 0. -1.
         22    1    1    2    0    0  0.43043609611E+03 -0.24219666110E+03 -0.41789420429E+03  0.64696987678E+03  0.00000000000E+00 0. -1.
<mgrwt>
<rscale>  0 0.10016313E+04</rscale>
<asrwt>0</asrwt>
<pdfrwt beam="1">  1        2 0.18501681E+00 0.10016313E+04</pdfrwt>
<pdfrwt beam="2">  1       -2 0.32086171E-01 0.10016313E+04</pdfrwt>
<totfact> 0.17004459E+02</totfact>
</mgrwt>
</event>
<event>
 6    1  0.2436515E-005  0.1398943E+04  0.7818608E-02  0.8954584E-01
          2   -1    0    0  501    0  0.00000000000E+00  0.00000000000E+00  0.24289902254E+04  0.24289902254E+04  0.00000000000E+00 0.  1.
         -2   -1    0    0    0  501 -0.00000000000E+00 -0.00000000000E+00 -0.20142547724E+03  0.20142547724E+03  0.00000000000E+00 0. -1.
         23    2    1    2    0    0 -0.10884228405E+03 -0.30354851782E+03  0.22792233694E+04  0.23038319330E+04  0.93776662106E+02 0.  0.
         13    1    3    3    0    0 -0.41007545932E+02 -0.23580511028E+03  0.16887645966E+04  0.17056410911E+04  0.00000000000E+00 0. -1.
        -13    1    3    3    0    0 -0.67834738117E+02 -0.67743407544E+02  0.59045877279E+03  0.59819084189E+03  0.00000000000E+00 0.  1.
         22    1    1    2    0    0  0.10884228405E+03  0.30354851782E+03 -0.51658621211E+02  0.32658376968E+03  0.00000000000E+00 0. -1.
<mgrwt>
<rscale>  0 0.13989432E+04</rscale>
<asrwt>0</asrwt>
<pdfrwt beam="1">  1        2 0.37369078E+00 0.13989432E+04</pdfrwt>
<pdfrwt beam="2">  1       -2 0.30988537E-01 0.13989432E+04</pdfrwt>
<totfact> 0.36050457E+01</totfact>
</mgrwt>
</event>
<event>
 6    1  0.2436515E-005  0.1360006E+04  0.7818608E-02  0.8983288E-01
         -2   -1    0    0    0  501 -0.00000000000E+00  0.00000000000E+00  0.36033262734E+03  0.36033262734E+03  0.00000000000E+00 0. -1.
          2   -1    0    0  501    0  0.00000000000E+00 -0.00000000000E+00 -0.12832693975E+04  0.12832693975E+04  0.00000000000E+00 0.  1.
         23    2    1    2    0    0  0.24018765307E+03  0.46683259808E+03  0.53011915687E+02  0.53540591371E+03  0.90699756963E+02 0.  0.
         11    1    3    3    0    0  0.75476747819E+02  0.69487876424E+02  0.72819251953E+01  0.10285101296E+03  0.00000000000E+00 0. -1.
        -11    1    3    3    0    0  0.16471090525E+03  0.39734472166E+03  0.45729990491E+02  0.43255490076E+03  0.00000000000E+00 0.  1.
         22    1    1    2    0    0 -0.24018765307E+03 -0.46683259808E+03 -0.97594868584E+03  0.11081961111E+04  0.00000000000E+00 0.  1.
<mgrwt>
<rscale>  0 0.13600056E+04</rscale>
<asrwt>0</asrwt>
<pdfrwt beam="1">  1        2 0.19742606E+00 0.13600056E+04</pdfrwt>
<pdfrwt beam="2">  1       -2 0.55435789E-01 0.13600056E+04</pdfrwt>
<totfact> 0.50466798E+01</totfact>
</mgrwt>
</event>
<event>
 6    1  0.2436515E-005  0.1335844E+04  0.7818608E-02  0.9001614E-01
         -2   -1    0    0    0  501 -0.00000000000E+00  0.00000000000E+00  0.37223571261E+03  0.37223571261E+03  0.00000000000E+00 0. -1.
          2   -1    0    0  501    0  0.00000000000E+00 -0.00000000000E+00 -0.11984874155E+04  0.11984874155E+04  0.00000000000E+00 0.  1.
         23    2    1    2    0    0  0.52828269620E+03  0.15112568054E+03 -0.85510336574E+03  0.10204922704E+04  0.91000710578E+02 0.  0.
         11    1    3    3    0    0  0.37291044989E+03  0.94033478584E+02 -0.66696718439E+03  0.76990241186E+03  0.00000000000E+00 0. -1.
        -11    1    3    3    0    0  0.15537224630E+03  0.57092201955E+02 -0.18813618135E+03  0.25058985849E+03  0.00000000000E+00 0.  1.
         22    1    1    2    0    0 -0.52828269620E+03 -0.15112568054E+03  0.28851662813E+02  0.55023085779E+03  0.00000000000E+00 0. -1.
<mgrwt>
<rscale>  0 0.13358440E+04</rscale>
<asrwt>0</asrwt>
<pdfrwt beam="1">  1        2 0.18438268E+00 0.13358440E+04</pdfrwt>
<pdfrwt beam="2">  1       -2 0.57267033E-01 0.13358440E+04</pdfrwt>
<totfact> 0.53022210E+01</totfact>
</mgrwt>
</event>
<event>
 6    1  0.2436515E-005  0.1339124E+04  0.7818608E-02  0.8999102E-01
          2   -1    0    0  501    0  0.00000000000E+00  0.00000000000E+00  0.11284851142E+04  0.11284851142E+04  0.00000000000E+00 0.  1.
         -2   -1    0    0    0  501 -0.00000000000E+00 -0.00000000000E+00 -0.39727006948E+03  0.39727006948E+03  0.00000000000E+00 0. -1.
         23    2    1    2    0    0 -0.11270707156E+03  0.23113601411E+03  0.10678062934E+04  0.11021747195E+04  0.91935254744E+02 0.  0.
         13    1    3    3    0    0 -0.60916521560E+02  0.20694271353E+03  0.82622456300E+03  0.85392220827E+03  0.00000000000E+00 0.  1.
        -13    1    3    3    0    0 -0.51790550005E+02  0.24193300585E+02  0.24158173040E+03  0.24825251122E+03  0.00000000000E+00 0. -1.
         22    1    1    2    0    0  0.11270707156E+03 -0.23113601411E+03 -0.33659124865E+03  0.42358046422E+03  0.00000000000E+00 0. -1.
<mgrwt>
<rscale>  0 0.13391241E+04</rscale>
<asrwt>0</asrwt>
<pdfrwt beam="1">  1        2 0.17361309E+00 0.13391241E+04</pdfrwt>
<pdfrwt beam="2">  1       -2 0.61118473E-01 0.13391241E+04</pdfrwt>
<totfact> 0.50943316E+01</totfact>
</mgrwt>
</event>
<event>
 6    1  0.2436515E-005  0.1400230E+04  0.7818608E-02  0.8953652E-01
         -2   -1    0    0    0  501 -0.00000000000E+00  0.00000000000E+00  0.13385213125E+04  0.13385213125E+04  0.00000000000E+00 0. -1.
          2   -1    0    0  501    0  0.00000000000E+00 -0.00000000000E+00 -0.36619567685E+03  0.36619567685E+03  0.00000000000E+00 0.  1.
         23    2    1    2    0    0 -0.34306899641E+02 -0.36158538955E+03  0.12125991497E+04  0.12692260953E+04  0.92829013221E+02 0.  0.
         13    1    3    3    0    0 -0.12048459593E+02 -0.63608889861E+02  0.36018268646E+03  0.36595467462E+03  0.00000000000E+00 0. -1.
        -13    1    3    3    0    0 -0.22258440048E+02 -0.29797649969E+03  0.85241646325E+03  0.90327142064E+03  0.00000000000E+00 0.  1.
         22    1    1    2    0    0  0.34306899641E+02  0.36158538955E+03 -0.24027351405E+03  0.43549089411E+03  0.00000000000E+00 0.  1.
<mgrwt>
<rscale>  0 0.14002296E+04</rscale>
<asrwt>0</asrwt>
<pdfrwt beam="1">  1        2 0.56337797E-01 0.14002296E+04</pdfrwt>
<pdfrwt beam="2">  1       -2 0.20592635E+00 0.14002296E+04</pdfrwt>
<totfact> 0.10392141E+01</totfact>
</mgrwt>
</event>
<event>
 6    1  0.2436515E-005  0.1580735E+04  0.7818608E-02  0.8832472E-01
         -2   -1    0    0    0  501 -0.00000000000E+00  0.00000000000E+00  0.36859677242E+03  0.36859677242E+03  0.00000000000E+00 0. -1.
          2   -1    0    0  501    0  0.00000000000E+00 -0.00000000000E+00 -0.16947529136E+04  0.16947529136E+04  0.00000000000E+00 0.  1.
         23    2    1    2    0    0  0.70761415027E+03  0.32679816021E+03 -0.81354734011E+03  0.11304603003E+04  0.92554809011E+02 0.  0.
         11    1    3    3    0    0  0.35692950492E+03  0.18155503381E+03 -0.48046748477E+03  0.62546774953E+03  0.00000000000E+00 0.  1.
        -11    1    3    3    0    0  0.35068464535E+03  0.14524312640E+03 -0.33307985534E+03  0.50499255072E+03  0.00000000000E+00 0. -1.
         22    1    1    2    0    0 -0.70761415027E+03 -0.32679816021E+03 -0.51260880108E+03  0.93288938579E+03  0.00000000000E+00 0.  1.
<mgrwt>
<rscale>  0 0.15807346E+04</rscale>
<asrwt>0</asrwt>
<pdfrwt beam="1">  1        2 0.26073122E+00 0.15807346E+04</pdfrwt>
<pdfrwt beam="2">  1       -2 0.56707196E-01 0.15807346E+04</pdfrwt>
<totfact> 0.27651839E+01</totfact>
</mgrwt>
</event>
<event>
 6    1  0.2436515E-005  0.1509103E+04  0.7818608E-02  0.8878422E-01
         -2   -1    0    0    0  501 -0.00000000000E+00  0.00000000000E+00  0.89686566599E+03  0.89686566599E+03  0.00000000000E+00 0. -1.
          2   -1    0    0  501    0  0.00000000000E+00 -0.00000000000E+00 -0.63481994942E+03  0.63481994942E+03  0.00000000000E+00 0.  1.
         23    2    1    2    0    0 -0.11903951219E+03  0.11073223989E+02  0.88530502593E+03  0.89706353223E+03  0.81639268495E+02 0.  0.
         11    1    3    3    0    0 -0.10207084969E+03 -0.21880865265E+02  0.55933474759E+03  0.56899261021E+03  0.00000000000E+00 0. -1.
        -11    1    3    3    0    0 -0.16968662497E+02  0.32954089254E+02  0.32597027835E+03  0.32807092201E+03  0.00000000000E+00 0.  1.
         22    1    1    2    0    0  0.11903951219E+03 -0.11073223989E+02 -0.62325930937E+03  0.63462208318E+03  0.00000000000E+00 0.  1.
<mgrwt>
<rscale>  0 0.15091033E+04</rscale>
<asrwt>0</asrwt>
<pdfrwt beam="1">  1        2 0.97664607E-01 0.15091033E+04</pdfrwt>
<pdfrwt beam="2">  1       -2 0.13797933E+00 0.15091033E+04</pdfrwt>
<totfact> 0.16662928E+01</totfact>
</mgrwt>
</event>
<event>
 6    1  0.2436515E-005  0.4977566E+04  0.7818608E-02  0.7831977E-01
         -2   -1    0    0    0  501 -0.00000000000E+00  0.00000000000E+00  0.14308063652E+04  0.14308063652E+04  0.00000000000E+00 0. -1.
          2   -1    0    0  501    0  0.00000000000E+00 -0.00000000000E+00 -0.43290553584E+04  0.43290553584E+04  0.00000000000E+00 0.  1.
         23    2    1    2    0    0  0.13857468602E+04 -0.20642977534E+04 -0.15559315928E+04  0.29343643198E+04  0.89169861500E+02 0.  0.
         13    1    3    3    0    0  0.12243846974E+04 -0.18686744625E+04 -0.14092720012E+04  0.26414219102E+04  0.00000000000E+00 0. -1.
        -13    1    3    3    0    0  0.16136216282E+03 -0.19562329088E+03 -0.14665959164E+03  0.29294240960E+03  0.00000000000E+00 0.  1.
         22    1    1    2    0    0 -0.13857468602E+04  0.20642977534E+04 -0.13423174004E+04  0.28254974038E+04  0.00000000000E+00 0. -1.
<mgrwt>
<rscale>  0 0.49775657E+04</rscale>
<asrwt>0</asrwt>
<pdfrwt beam="1">  1        2 0.66600851E+00 0.49775657E+04</pdfrwt>
<pdfrwt beam="2">  1       -2 0.22012406E+00 0.49775657E+04</pdfrwt>
<totfact> 0.12746548E-02</totfact>
</mgrwt>
</event>
<event>
 6    1  0.2436515E-005  0.5250756E+03  0.7818608E-02  0.1007433E+00
         -2   -1    0    0    0  501 -0.00000000000E+00  0.00000000000E+00  0.59499712841E+02  0.59499712841E+02  0.00000000000E+00 0. -1.
          2   -1    0    0  501    0  0.00000000000E+00 -0.00000000000E+00 -0.11584275929E+04  0.11584275929E+04  0.00000000000E+00 0.  1.
         23    2    1    2    0    0  0.24751918984E+03  0.65705694083E+02 -0.52293496375E+03  0.58756960791E+03  0.78702479326E+02 0.  0.
         11    1    3    3    0    0  0.11932206104E+03  0.43243991484E+01 -0.17631783177E+03  0.21294232195E+03  0.00000000000E+00 0.  1.
        -11    1    3    3    0    0  0.12819712880E+03  0.61381294935E+02 -0.34661713198E+03  0.37462728596E+03  0.00000000000E+00 0. -1.
         22    1    1    2    0    0 -0.24751918984E+03 -0.65705694083E+02 -0.57599291629E+03  0.63035769782E+03  0.00000000000E+00 0. -1.
<mgrwt>
<rscale>  0 0.52507565E+03</rscale>
<asrwt>0</asrwt>
<pdfrwt beam="1">  1        2 0.17821963E+00 0.52507565E+03</pdfrwt>
<pdfrwt beam="2">  1       -2 0.91538018E-02 0.52507565E+03</pdfrwt>
<totfact> 0.16065288E+03</totfact>
</mgrwt>
</event>
<event>
 6    1  0.2436515E-005  0.2041034E+04  0.7818608E-02  0.8587673E-01
         -2   -1    0    0    0  501 -0.00000000000E+00  0.00000000000E+00  0.95112241742E+03  0.95112241742E+03  0.00000000000E+00 0. -1.
          2   -1    0    0  501    0  0.00000000000E+00 -0.00000000000E+00 -0.10949750201E+04  0.10949750201E+04  0.00000000000E+00 0.  1.
         23    2    1    2    0    0 -0.17791303138E+03 -0.92406620957E+02  0.92891425154E+03  0.95475846458E+03  0.92141242925E+02 0.  0.
         13    1    3    3    0    0 -0.16248498816E+03 -0.68025319967E+02  0.62112769764E+03  0.64562251534E+03  0.00000000000E+00 0.  1.
        -13    1    3    3    0    0 -0.15428043224E+02 -0.24381300990E+02  0.30778655389E+03  0.30913594924E+03  0.00000000000E+00 0. -1.
         22    1    1    2    0    0  0.17791303138E+03  0.92406620957E+02 -0.10727668542E+04  0.10913389729E+04  0.00000000000E+00 0.  1.
<mgrwt>
<rscale>  0 0.20410343E+04</rscale>
<asrwt>0</asrwt>
<pdfrwt beam="1">  1        2 0.16845770E+00 0.20410343E+04</pdfrwt>
<pdfrwt beam="2">  1       -2 0.14632653E+00 0.20410343E+04</pdfrwt>
<totfact> 0.65003184E+00</totfact>
</mgrwt>
</event>
<event>
 6    1  0.2436515E-005  0.4096826E+04  0.7818608E-02  0.7985294E-01
          2   -1    0    0  501    0  0.00000000000E+00  0.00000000000E+00  0.22463202686E+04  0.22463202686E+04  0.00000000000E+00 0.  1.
         -2   -1    0    0    0  501 -0.00000000000E+00 -0.00000000000E+00 -0.18679418543E+04  0.18679418543E+04  0.00000000000E+00 0. -1.
         23    2    1    2    0    0  0.64912102253E+03  0.53890507317E+03  0.20626378883E+04  0.22305140623E+04  0.94557624104E+02 0.  0.
         11    1    3    3    0    0  0.35650879376E+03  0.35222803496E+03  0.12628982613E+04  0.13587034728E+04  0.00000000000E+00 0.  1.
        -11    1    3    3    0    0  0.29261222877E+03  0.18667703821E+03  0.79973962700E+03  0.87181058953E+03  0.00000000000E+00 0. -1.
         22    1    1    2    0    0 -0.64912102253E+03 -0.53890507317E+03 -0.16842594740E+04  0.18837480605E+04  0.00000000000E+00 0. -1.
<mgrwt>
<rscale>  0 0.40968259E+04</rscale>
<asrwt>0</asrwt>
<pdfrwt beam="1">  1        2 0.34558774E+00 0.40968259E+04</pdfrwt>
<pdfrwt beam="2">  1       -2 0.28737567E+00 0.40968259E+04</pdfrwt>
<totfact> 0.14450585E-01</totfact>
</mgrwt>
</event>
<event>
 6    1  0.2436515E-005  0.2033778E+04  0.7818608E-02  0.8590989E-01
          2   -1    0    0  501    0  0.00000000000E+00  0.00000000000E+00  0.40495848208E+04  0.40495848208E+04  0.00000000000E+00 0.  1.
         -2   -1    0    0    0  501 -0.00000000000E+00 -0.00000000000E+00 -0.25535051298E+03  0.25535051298E+03  0.00000000000E+00 0. -1.
         23    2    1    2    0    0  0.72653716319E+03 -0.75587262254E+02  0.40967762106E+03  0.84245159381E+03  0.91209928206E+02 0.  0.
         13    1    3    3    0    0  0.38588742158E+03  0.50540456164E+01  0.22318976755E+03  0.44581197589E+03  0.00000000000E+00 0.  1.
        -13    1    3    3    0    0  0.34064974161E+03 -0.80641307870E+02  0.18648785351E+03  0.39663961792E+03  0.00000000000E+00 0. -1.
         22    1    1    2    0    0 -0.72653716319E+03  0.75587262254E+02  0.33845566867E+04  0.34624837400E+04  0.00000000000E+00 0.  1.
<mgrwt>
<rscale>  0 0.20337783E+04</rscale>
<asrwt>0</asrwt>
<pdfrwt beam="1">  1        2 0.62301300E+00 0.20337783E+04</pdfrwt>
<pdfrwt beam="2">  1       -2 0.39284697E-01 0.20337783E+04</pdfrwt>
<totfact> 0.17878061E+00</totfact>
</mgrwt>
</event>
<event>
 6    1  0.2436515E-005  0.2567326E+04  0.7818608E-02  0.8379385E-01
          2   -1    0    0  501    0  0.00000000000E+00  0.00000000000E+00  0.95767930818E+03  0.95767930818E+03  0.00000000000E+00 0.  1.
         -2   -1    0    0    0  501 -0.00000000000E+00 -0.00000000000E+00 -0.17206084211E+04  0.17206084211E+04  0.00000000000E+00 0. -1.
         23    2    1    2    0    0  0.65234247057E+02 -0.11733238535E+04  0.15287034831E+03  0.11884444404E+04  0.89924814042E+02 0.  0.
         13    1    3    3    0    0  0.22799224777E+02 -0.44591793544E+03  0.14215375275E+02  0.44672663531E+03  0.00000000000E+00 0. -1.
        -13    1    3    3    0    0  0.42435022280E+02 -0.72740591810E+03  0.13865497303E+03  0.74171780507E+03  0.00000000000E+00 0.  1.
         22    1    1    2    0    0 -0.65234247057E+02  0.11733238535E+04 -0.91579946123E+03  0.14898432889E+04  0.00000000000E+00 0.  1.
<mgrwt>
<rscale>  0 0.25673263E+04</rscale>
<asrwt>0</asrwt>
<pdfrwt beam="1">  1        2 0.14733528E+00 0.25673263E+04</pdfrwt>
<pdfrwt beam="2">  1       -2 0.26470899E+00 0.25673263E+04</pdfrwt>
<totfact> 0.12427061E+00</totfact>
</mgrwt>
</event>
<event>
 6    1  0.2436515E-005  0.1621869E+04  0.7818608E-02  0.8807225E-01
         -2   -1    0    0    0  501 -0.00000000000E+00  0.00000000000E+00  0.28938688403E+03  0.28938688403E+03  0.00000000000E+00 0. -1.
          2   -1    0    0  501    0  0.00000000000E+00 -0.00000000000E+00 -0.22724409716E+04  0.22724409716E+04  0.00000000000E+00 0.  1.
         23    2    1    2    0    0 -0.64845819762E+03  0.47120487992E+03 -0.82541025223E+03  0.11537542345E+04  0.85525881043E+02 0.  0.
         13    1    3    3    0    0 -0.42289734144E+03  0.35584536595E+03 -0.57396243029E+03  0.79680672515E+03  0.00000000000E+00 0. -1.
        -13    1    3    3    0    0 -0.22556085618E+03  0.11535951397E+03 -0.25144782194E+03  0.35694750939E+03  0.00000000000E+00 0.  1.
         22    1    1    2    0    0  0.64845819762E+03 -0.47120487992E+03 -0.11576438354E+04  0.14080736211E+04  0.00000000000E+00 0. -1.
<mgrwt>
<rscale>  0 0.16218688E+04</rscale>
<asrwt>0</asrwt>
<pdfrwt beam="1">  1        2 0.34960630E+00 0.16218688E+04</pdfrwt>
<pdfrwt beam="2">  1       -2 0.44521060E-01 0.16218688E+04</pdfrwt>
<totfact> 0.21547253E+01</totfact>
</mgrwt>
</event>
<event>
 6    1  0.2436515E-005  0.2040177E+04  0.7818608E-02  0.8588063E-01
          2   -1    0    0  501    0  0.00000000000E+00  0.00000000000E+00  0.33824827695E+04  0.33824827695E+04  0.00000000000E+00 0.  1.
         -2   -1    0    0    0  501 -0.00000000000E+00 -0.00000000000E+00 -0.30763823041E+03  0.30763823041E+03  0.00000000000E+00 0. -1.
         23    2    1    2    0    0 -0.55301394123E+03 -0.13299738845E+03  0.13547566725E+02  0.57643317394E+03  0.92622583227E+02 0.  0.
         13    1    3    3    0    0 -0.32658056794E+03 -0.35882444113E+02 -0.11759538919E+02  0.32875629866E+03  0.00000000000E+00 0.  1.
        -13    1    3    3    0    0 -0.22643337329E+03 -0.97114944334E+02  0.25307105644E+02  0.24767687528E+03  0.00000000000E+00 0. -1.
         22    1    1    2    0    0  0.55301394123E+03  0.13299738845E+03  0.30612969723E+04  0.31136878259E+04  0.00000000000E+00 0.  1.
<mgrwt>
<rscale>  0 0.20401775E+04</rscale>
<asrwt>0</asrwt>
<pdfrwt beam="1">  1        2 0.52038194E+00 0.20401775E+04</pdfrwt>
<pdfrwt beam="2">  1       -2 0.47328961E-01 0.20401775E+04</pdfrwt>
<totfact> 0.38563944E+00</totfact>
</mgrwt>
</event>
<event>
 6    1  0.2436515E-005  0.2619590E+04  0.7818608E-02  0.8361577E-01
         -2   -1    0    0    0  501 -0.00000000000E+00  0.00000000000E+00  0.97586640056E+03  0.97586640056E+03  0.00000000000E+00 0. -1.
          2   -1    0    0  501    0  0.00000000000E+00 -0.00000000000E+00 -0.17579896596E+04  0.17579896596E+04  0.00000000000E+00 0.  1.
         23    2    1    2    0    0 -0.10715731687E+04  0.46920995949E+03 -0.10026612248E+04  0.15434510718E+04  0.92112090749E+02 0.  0.
         13    1    3    3    0    0 -0.32379604555E+03  0.96537095365E+02 -0.29457497519E+03  0.44826075660E+03  0.00000000000E+00 0. -1.
        -13    1    3    3    0    0 -0.74777712319E+03  0.37267286413E+03 -0.70808624961E+03  0.10951903152E+04  0.00000000000E+00 0.  1.
         22    1    1    2    0    0  0.10715731687E+04 -0.46920995949E+03  0.22053796572E+03  0.11904049884E+04  0.00000000000E+00 0. -1.
<mgrwt>
<rscale>  0 0.26195901E+04</rscale>
<asrwt>0</asrwt>
<pdfrwt beam="1">  1        2 0.27045995E+00 0.26195901E+04</pdfrwt>
<pdfrwt beam="2">  1       -2 0.15013329E+00 0.26195901E+04</pdfrwt>
<totfact> 0.24039036E+00</totfact>
</mgrwt>
</event>
<event>
 6    1  0.2436515E-005  0.1951898E+04  0.7818608E-02  0.8629446E-01
         -2   -1    0    0    0  501 -0.00000000000E+00  0.00000000000E+00  0.27925338020E+04  0.27925338020E+04  0.00000000000E+00 0. -1.
          2   -1    0    0  501    0  0.00000000000E+00 -0.00000000000E+00 -0.34107953171E+03  0.34107953171E+03  0.00000000000E+00 0.  1.
         23    2    1    2    0    0 -0.21572324336E+03 -0.92807307701E+03  0.90814582420E+03  0.13198721411E+04  0.97352333440E+02 0.  0.
         13    1    3    3    0    0 -0.17196288880E+03 -0.80331099079E+03  0.73738480953E+03  0.11039094802E+04  0.00000000000E+00 0. -1.
        -13    1    3    3    0    0 -0.43760354561E+02 -0.12476208622E+03  0.17076101467E+03  0.21596266094E+03  0.00000000000E+00 0.  1.
         22    1    1    2    0    0  0.21572324336E+03  0.92807307701E+03  0.15433084461E+04  0.18137411926E+04  0.00000000000E+00 0. -1.
<mgrwt>
<rscale>  0 0.19518977E+04</rscale>
<asrwt>0</asrwt>
<pdfrwt beam="1">  1        2 0.52473776E-01 0.19518977E+04</pdfrwt>
<pdfrwt beam="2">  1       -2 0.42962057E+00 0.19518977E+04</pdfrwt>
<totfact> 0.42135470E-01</totfact>
</mgrwt>
</event>
<event>
 6    1  0.2436515E-005  0.1649858E+04  0.7818608E-02  0.8790491E-01
          1   -1    0    0  501    0  0.00000000000E+00  0.00000000000E+00  0.21593748863E+04  0.21593748863E+04  0.00000000000E+00 0. -1.
         -1   -1    0    0    0  501 -0.00000000000E+00 -0.00000000000E+00 -0.31514097495E+03  0.31514097495E+03  0.00000000000E+00 0.  1.
         23    2    1    2    0    0  0.78598756147E+03  0.17400714559E+03  0.67291321541E+03  0.10532322491E+04  0.91820702981E+02 0.  0.
         11    1    3    3    0    0  0.32102202400E+03  0.10966637109E+03  0.31521405867E+03  0.46307856313E+03  0.00000000000E+00 0.  1.
        -11    1    3    3    0    0  0.46496553747E+03  0.64340774496E+02  0.35769915674E+03  0.59015368594E+03  0.00000000000E+00 0. -1.
         22    1    1    2    0    0 -0.78598756147E+03 -0.17400714559E+03  0.11713206959E+04  0.14212836121E+04  0.00000000000E+00 0. -1.
<mgrwt>
<rscale>  0 0.16498576E+04</rscale>
<asrwt>0</asrwt>
<pdfrwt beam="1">  1        1 0.33221151E+00 0.16498576E+04</pdfrwt>
<pdfrwt beam="2">  1       -1 0.48483228E-01 0.16498576E+04</pdfrwt>
<totfact> 0.94500376E+00</totfact>
</mgrwt>
</event>
<event>
 6    1  0.2436515E-005  0.3251779E+04  0.7818608E-02  0.8175275E-01
          2   -1    0    0  501    0  0.00000000000E+00  0.00000000000E+00  0.17428907342E+04  0.17428907342E+04  0.00000000000E+00 0.  1.
         -2   -1    0    0    0  501 -0.00000000000E+00 -0.00000000000E+00 -0.15167423460E+04  0.15167423460E+04  0.00000000000E+00 0. -1.
         23    2    1    2    0    0 -0.81619362217E+03  0.28118552718E+02  0.15210347726E+04  0.17287204666E+04  0.89246793165E+02 0.  0.
         11    1    3    3    0    0 -0.69810122255E+03  0.51389232659E+02  0.13292226844E+04  0.15022713187E+04  0.00000000000E+00 0. -1.
        -11    1    3    3    0    0 -0.11809239962E+03 -0.23270679941E+02  0.19181208822E+03  0.22644914789E+03  0.00000000000E+00 0.  1.
         22    1    1    2    0    0  0.81619362217E+03 -0.28118552718E+02 -0.12948863845E+04  0.15309126136E+04  0.00000000000E+00 0. -1.
<mgrwt>
<rscale>  0 0.32517787E+04</rscale>
<asrwt>0</asrwt>
<pdfrwt beam="1">  1        2 0.26813704E+00 0.32517787E+04</pdfrwt>
<pdfrwt beam="2">  1       -2 0.23334498E+00 0.32517787E+04</pdfrwt>
<totfact> 0.63423585E-01</totfact>
</mgrwt>
</event>
<event>
 6    1  0.2436515E-005  0.1464492E+04  0.7818608E-02  0.8908415E-01
          2   -1    0    0  501    0  0.00000000000E+00  0.00000000000E+00  0.62881142221E+03  0.62881142221E+03  0.00000000000E+00 0. -1.
         -2   -1    0    0    0  501 -0.00000000000E+00 -0.00000000000E+00 -0.85269446903E+03  0.85269446903E+03  0.00000000000E+00 0.  1.
         23    2    1    2    0    0  0.43724702956E+03 -0.56099477806E+03 -0.27617649446E+03  0.76831958280E+03  0.90229814085E+02 0.  0.
         13    1    3    3    0    0  0.30854582286E+03 -0.45549596675E+03 -0.20124529518E+03  0.58581291328E+03  0.00000000000E+00 0. -1.
        -13    1    3    3    0    0  0.12870120671E+03 -0.10549881131E+03 -0.74931199284E+02  0.18250666953E+03  0.00000000000E+00 0.  1.
         22    1    1    2    0    0 -0.43724702956E+03  0.56099477806E+03  0.52293447644E+02  0.71318630844E+03  0.00000000000E+00 0. -1.
<mgrwt>
<rscale>  0 0.14644918E+04</rscale>
<asrwt>0</asrwt>
<pdfrwt beam="1">  1        2 0.96740219E-01 0.14644918E+04</pdfrwt>
<pdfrwt beam="2">  1       -2 0.13118376E+00 0.14644918E+04</pdfrwt>
<totfact> 0.19250534E+01</totfact>
</mgrwt>
</event>
<event>
 6    1  0.2436515E-005  0.6054241E+03  0.7818608E-02  0.9894216E-01
         -2   -1    0    0    0  501 -0.00000000000E+00  0.00000000000E+00  0.50089690676E+02  0.50089690676E+02  0.00000000000E+00 0. -1.
          2   -1    0    0  501    0  0.00000000000E+00 -0.00000000000E+00 -0.18294097823E+04  0.18294097823E+04  0.00000000000E+00 0.  1.
         23    2    1    2    0    0 -0.13981988551E+02 -0.15783142528E+03 -0.16856803258E+04  0.16954487719E+04  0.89006307123E+02 0.  0.
         11    1    3    3    0    0 -0.17548434444E+02 -0.12341271979E+03 -0.85407388604E+03  0.86312273158E+03  0.00000000000E+00 0. -1.
        -11    1    3    3    0    0  0.35664458932E+01 -0.34418705481E+02 -0.83160643976E+03  0.83232604036E+03  0.00000000000E+00 0.  1.
         22    1    1    2    0    0  0.13981988551E+02  0.15783142528E+03 -0.93639765844E+02  0.18405070105E+03  0.00000000000E+00 0. -1.
<mgrwt>
<rscale>  0 0.60542405E+03</rscale>
<asrwt>0</asrwt>
<pdfrwt beam="1">  1        2 0.28144761E+00 0.60542405E+03</pdfrwt>
<pdfrwt beam="2">  1       -2 0.77061077E-02 0.60542405E+03</pdfrwt>
<totfact> 0.89211764E+02</totfact>
</mgrwt>
</event>
<event>
 6    1  0.2436515E-005  0.3032747E+04  0.7818608E-02  0.8234441E-01
         -2   -1    0    0    0  501 -0.00000000000E+00  0.00000000000E+00  0.11129267603E+04  0.11129267603E+04  0.00000000000E+00 0. -1.
          2   -1    0    0  501    0  0.00000000000E+00 -0.00000000000E+00 -0.20660737778E+04  0.20660737778E+04  0.00000000000E+00 0.  1.
         23    2    1    2    0    0 -0.57127556227E+03 -0.10132212440E+04  0.54051480908E+03  0.12858553483E+04  0.91075026763E+02 0.  0.
         11    1    3    3    0    0 -0.22227798099E+03 -0.35402714041E+03  0.15153404035E+03  0.44464062158E+03  0.00000000000E+00 0.  1.
        -11    1    3    3    0    0 -0.34899758128E+03 -0.65919410361E+03  0.38898076873E+03  0.84121472670E+03  0.00000000000E+00 0. -1.
         22    1    1    2    0    0  0.57127556227E+03  0.10132212440E+04 -0.14936618266E+04  0.18931451898E+04  0.00000000000E+00 0.  1.
<mgrwt>
<rscale>  0 0.30327471E+04</rscale>
<asrwt>0</asrwt>
<pdfrwt beam="1">  1        2 0.31785750E+00 0.30327471E+04</pdfrwt>
<pdfrwt beam="2">  1       -2 0.17121950E+00 0.30327471E+04</pdfrwt>
<totfact> 0.10948471E+00</totfact>
</mgrwt>
</event>
<event>
 6    1  0.2436515E-005  0.2375731E+04  0.7818608E-02  0.8448646E-01
         -1   -1    0    0    0  501 -0.00000000000E+00  0.00000000000E+00  0.12989865264E+04  0.12989865264E+04  0.00000000000E+00 0. -1.
          1   -1    0    0  501    0  0.00000000000E+00 -0.00000000000E+00 -0.10862506929E+04  0.10862506929E+04  0.00000000000E+00 0.  1.
         23    2    1    2    0    0  0.23369287404E+03  0.75567952059E+03  0.99388586033E+03  0.12735451479E+04  0.91892562935E+02 0.  0.
         13    1    3    3    0    0  0.17426201064E+03  0.42674505004E+03  0.60885297593E+03  0.76366257757E+03  0.00000000000E+00 0. -1.
        -13    1    3    3    0    0  0.59430863408E+02  0.32893447055E+03  0.38503288440E+03  0.50988257031E+03  0.00000000000E+00 0.  1.
         22    1    1    2    0    0 -0.23369287404E+03 -0.75567952059E+03 -0.78115002682E+03  0.11116920714E+04  0.00000000000E+00 0.  1.
<mgrwt>
<rscale>  0 0.23757315E+04</rscale>
<asrwt>0</asrwt>
<pdfrwt beam="1">  1        1 0.16711549E+00 0.23757315E+04</pdfrwt>
<pdfrwt beam="2">  1       -1 0.19984408E+00 0.23757315E+04</pdfrwt>
<totfact> 0.17594226E+00</totfact>
</mgrwt>
</event>
<event>
 6    1  0.2436515E-005  0.3279443E+04  0.7818608E-02  0.8168146E-01
         -2   -1    0    0    0  501 -0.00000000000E+00  0.00000000000E+00  0.10118223908E+04  0.10118223908E+04  0.00000000000E+00 0. -1.
          2   -1    0    0  501    0  0.00000000000E+00 -0.00000000000E+00 -0.26572706656E+04  0.26572706656E+04  0.00000000000E+00 0.  1.
         23    2    1    2    0    0  0.11765579346E+03 -0.15409287261E+04 -0.21448971946E+03  0.15629243519E+04  0.91773990031E+02 0.  0.
         13    1    3    3    0    0  0.71590093492E+02 -0.67976887266E+03 -0.53343411547E+02  0.68560657908E+03  0.00000000000E+00 0.  1.
        -13    1    3    3    0    0  0.46065699966E+02 -0.86115985344E+03 -0.16114630791E+03  0.87731777279E+03  0.00000000000E+00 0. -1.
         22    1    1    2    0    0 -0.11765579346E+03  0.15409287261E+04 -0.14309585554E+04  0.21061687045E+04  0.00000000000E+00 0.  1.
<mgrwt>
<rscale>  0 0.32794426E+04</rscale>
<asrwt>0</asrwt>
<pdfrwt beam="1">  1        2 0.40881087E+00 0.32794426E+04</pdfrwt>
<pdfrwt beam="2">  1       -2 0.15566498E+00 0.32794426E+04</pdfrwt>
<totfact> 0.63899121E-01</totfact>
</mgrwt>
</event>
<event>
 6    1  0.2436515E-005  0.3232151E+04  0.7818608E-02  0.8180377E-01
         -2   -1    0    0    0  501 -0.00000000000E+00  0.00000000000E+00  0.14547781464E+04  0.14547781464E+04  0.00000000000E+00 0. -1.
          2   -1    0    0  501    0  0.00000000000E+00 -0.00000000000E+00 -0.17952565289E+04  0.17952565289E+04  0.00000000000E+00 0.  1.
         23    2    1    2    0    0  0.64703685242E+02 -0.35508377517E+03 -0.17530734532E+04  0.17920580334E+04  0.89075298068E+02 0.  0.
         11    1    3    3    0    0  0.47255017667E+02 -0.71553328990E+02 -0.48879184778E+03  0.49625637128E+03  0.00000000000E+00 0.  1.
        -11    1    3    3    0    0  0.17448667575E+02 -0.28353044618E+03 -0.12642816054E+04  0.12958016622E+04  0.00000000000E+00 0. -1.
         22    1    1    2    0    0 -0.64703685242E+02  0.35508377517E+03  0.14125950708E+04  0.14579766419E+04  0.00000000000E+00 0. -1.
<mgrwt>
<rscale>  0 0.32321510E+04</rscale>
<asrwt>0</asrwt>
<pdfrwt beam="1">  1        2 0.27619331E+00 0.32321510E+04</pdfrwt>
<pdfrwt beam="2">  1       -2 0.22381202E+00 0.32321510E+04</pdfrwt>
<totfact> 0.68175467E-01</totfact>
</mgrwt>
</event>
<event>
 6    1  0.2436515E-005  0.2247913E+04  0.7818608E-02  0.8498746E-01
         -2   -1    0    0    0  501 -0.00000000000E+00  0.00000000000E+00  0.10046835142E+04  0.10046835142E+04  0.00000000000E+00 0. -1.
          2   -1    0    0  501    0  0.00000000000E+00 -0.00000000000E+00 -0.12573889073E+04  0.12573889073E+04  0.00000000000E+00 0.  1.
         23    2    1    2    0    0  0.11148149620E+04 -0.11253971830E+03 -0.62207189623E+02  0.11255130728E+04  0.86211106010E+02 0.  0.
         11    1    3    3    0    0  0.40590361006E+03 -0.82747442221E+02 -0.24261580407E+02  0.41496205145E+03  0.00000000000E+00 0. -1.
        -11    1    3    3    0    0  0.70891135195E+03 -0.29792276075E+02 -0.37945609216E+02  0.71055102132E+03  0.00000000000E+00 0.  1.
         22    1    1    2    0    0 -0.11148149620E+04  0.11253971830E+03 -0.19049820341E+03  0.11365593487E+04  0.00000000000E+00 0.  1.
<mgrwt>
<rscale>  0 0.22479127E+04</rscale>
<asrwt>0</asrwt>
<pdfrwt beam="1">  1        2 0.19344445E+00 0.22479127E+04</pdfrwt>
<pdfrwt beam="2">  1       -2 0.15456669E+00 0.22479127E+04</pdfrwt>
<totfact> 0.44102273E+00</totfact>
</mgrwt>
</event>
<event>
 6    1  0.2436515E-005  0.5974228E+03  0.7818608E-02  0.9910767E-01
         -2   -1    0    0    0  501 -0.00000000000E+00  0.00000000000E+00  0.12284055549E+03  0.12284055549E+03  0.00000000000E+00 0. -1.
          2   -1    0    0  501    0  0.00000000000E+00 -0.00000000000E+00 -0.72637652506E+03  0.72637652506E+03  0.00000000000E+00 0.  1.
         23    2    1    2    0    0  0.25735680114E+03 -0.55917197334E+02 -0.12911551693E+03  0.30659933118E+03  0.89292088797E+02 0.  0.
         13    1    3    3    0    0  0.86516988329E+02 -0.40367714310E+02 -0.64112933415E+01  0.95686186623E+02  0.00000000000E+00 0.  1.
        -13    1    3    3    0    0  0.17083981281E+03 -0.15549483024E+02 -0.12270422359E+03  0.21091314456E+03  0.00000000000E+00 0. -1.
         22    1    1    2    0    0 -0.25735680114E+03  0.55917197334E+02 -0.47442045264E+03  0.54261774937E+03  0.00000000000E+00 0.  1.
<mgrwt>
<rscale>  0 0.59742278E+03</rscale>
<asrwt>0</asrwt>
<pdfrwt beam="1">  1        2 0.11175023E+00 0.59742278E+03</pdfrwt>
<pdfrwt beam="2">  1       -2 0.18898547E-01 0.59742278E+03</pdfrwt>
<totfact> 0.92538738E+02</totfact>
</mgrwt>
</event>
<event>
 6    1  0.2436515E-005  0.1055252E+04  0.7818608E-02  0.9249938E-01
          2   -1    0    0  501    0  0.00000000000E+00  0.00000000000E+00  0.61451947839E+03  0.61451947839E+03  0.00000000000E+00 0.  1.
         -2   -1    0    0    0  501 -0.00000000000E+00 -0.00000000000E+00 -0.45301974159E+03  0.45301974159E+03  0.00000000000E+00 0. -1.
         23    2    1    2    0    0  0.49919701514E+03 -0.25158445514E+02 -0.76609069359E+02  0.51389094636E+03  0.91566085091E+02 0.  0.
         13    1    3    3    0    0  0.29864016636E+03  0.26764855055E+02 -0.62203804053E+02  0.30622152059E+03  0.00000000000E+00 0. -1.
        -13    1    3    3    0    0  0.20055684878E+03 -0.51923300568E+02 -0.14405265306E+02  0.20766942578E+03  0.00000000000E+00 0.  1.
         22    1    1    2    0    0 -0.49919701514E+03  0.25158445514E+02  0.23810880616E+03  0.55364827361E+03  0.00000000000E+00 0.  1.
<mgrwt>
<rscale>  0 0.10552525E+04</rscale>
<asrwt>0</asrwt>
<pdfrwt beam="1">  1        2 0.94541458E-01 0.10552525E+04</pdfrwt>
<pdfrwt beam="2">  1       -2 0.69695345E-01 0.10552525E+04</pdfrwt>
<totfact> 0.90059515E+01</totfact>
</mgrwt>
</event>
<event>
 6    1  0.2436515E-005  0.3777706E+04  0.7818608E-02  0.8050956E-01
         -2   -1    0    0    0  501 -0.00000000000E+00  0.00000000000E+00  0.15824077272E+04  0.15824077272E+04  0.00000000000E+00 0.  1.
          2   -1    0    0  501    0  0.00000000000E+00 -0.00000000000E+00 -0.22546432204E+04  0.22546432204E+04  0.00000000000E+00 0. -1.
         23    2    1    2    0    0  0.69801524871E+03 -0.65057022854E+03  0.13181222592E+04  0.16297922649E+04  0.91157155228E+02 0.  0.
         11    1    3    3    0    0  0.17272924968E+03 -0.20756739371E+03  0.41145599959E+03  0.49215409805E+03  0.00000000000E+00 0.  1.
        -11    1    3    3    0    0  0.52528599903E+03 -0.44300283482E+03  0.90666625962E+03  0.11376381669E+04  0.00000000000E+00 0. -1.
         22    1    1    2    0    0 -0.69801524871E+03  0.65057022854E+03 -0.19903577524E+04  0.22072586826E+04  0.00000000000E+00 0. -1.
<mgrwt>
<rscale>  0 0.37777056E+04</rscale>
<asrwt>0</asrwt>
<pdfrwt beam="1">  1        2 0.34686819E+00 0.37777056E+04</pdfrwt>
<pdfrwt beam="2">  1       -2 0.24344734E+00 0.37777056E+04</pdfrwt>
<totfact> 0.27250996E-01</totfact>
</mgrwt>
</event>
<event>
 6    1  0.2436515E-005  0.4991590E+04  0.7818608E-02  0.7829806E-01
          2   -1    0    0  501    0  0.00000000000E+00  0.00000000000E+00  0.26795468189E+04  0.26795468189E+04  0.00000000000E+00 0.  1.
         -2   -1    0    0    0  501 -0.00000000000E+00 -0.00000000000E+00 -0.23246440612E+04  0.23246440612E+04  0.00000000000E+00 0. -1.
         23    2    1    2    0    0  0.17421695683E+04 -0.16070768768E+04 -0.60438578582E+03  0.24472228705E+04  0.75938838638E+02 0.  0.
         11    1    3    3    0    0  0.61478995771E+02 -0.45907319291E+02 -0.30956307971E+02  0.82737185647E+02  0.00000000000E+00 0.  1.
        -11    1    3    3    0    0  0.16806905725E+04 -0.15611695575E+04 -0.57342947785E+03  0.23644856848E+04  0.00000000000E+00 0. -1.
         22    1    1    2    0    0 -0.17421695683E+04  0.16070768768E+04  0.95928854355E+03  0.25569680096E+04  0.00000000000E+00 0.  1.
<mgrwt>
<rscale>  0 0.49915900E+04</rscale>
<asrwt>0</asrwt>
<pdfrwt beam="1">  1        2 0.41223797E+00 0.49915900E+04</pdfrwt>
<pdfrwt beam="2">  1       -2 0.35763755E+00 0.49915900E+04</pdfrwt>
<totfact> 0.27696997E-02</totfact>
</mgrwt>
</event>
<event>
 6    1  0.2436515E-005  0.3942986E+04  0.7818608E-02  0.8016148E-01
          2   -1    0    0  501    0  0.00000000000E+00  0.00000000000E+00  0.17417881843E+04  0.17417881843E+04  0.00000000000E+00 0.  1.
         -2   -1    0    0    0  501 -0.00000000000E+00 -0.00000000000E+00 -0.22314914570E+04  0.22314914570E+04  0.00000000000E+00 0. -1.
         23    2    1    2    0    0  0.14054914689E+04 -0.82988815495E+03  0.86866538082E+03  0.18497716903E+04  0.54361231782E+02 0.  0.
         13    1    3    3    0    0  0.26751696908E+03 -0.16941157641E+03  0.14709497090E+03  0.34914544452E+03  0.00000000000E+00 0. -1.
        -13    1    3    3    0    0  0.11379744999E+04 -0.66047657854E+03  0.72157040991E+03  0.15006262458E+04  0.00000000000E+00 0.  1.
         22    1    1    2    0    0 -0.14054914689E+04  0.82988815495E+03 -0.13583686535E+04  0.21235079510E+04  0.00000000000E+00 0. -1.
<mgrwt>
<rscale>  0 0.39429864E+04</rscale>
<asrwt>0</asrwt>
<pdfrwt beam="1">  1        2 0.26796741E+00 0.39429864E+04</pdfrwt>
<pdfrwt beam="2">  1       -2 0.34330638E+00 0.39429864E+04</pdfrwt>
<totfact> 0.12626169E-01</totfact>
</mgrwt>
</event>
<event>
 6    1  0.2436515E-005  0.1690704E+04  0.7818608E-02  0.8766684E-01
         -2   -1    0    0    0  501 -0.00000000000E+00  0.00000000000E+00  0.15297519762E+04  0.15297519762E+04  0.00000000000E+00 0.  1.
          2   -1    0    0  501    0  0.00000000000E+00 -0.00000000000E+00 -0.46714785064E+03  0.46714785064E+03  0.00000000000E+00 0. -1.
         23    2    1    2    0    0  0.68137274035E+02  0.39719990155E+03  0.14070733057E+04  0.14667399773E+04  0.95186256989E+02 0.  0.
         13    1    3    3    0    0  0.29925368289E+02  0.13396929035E+03  0.33219229482E+03  0.35943708652E+03  0.00000000000E+00 0. -1.
        -13    1    3    3    0    0  0.38211905747E+02  0.26323061120E+03  0.10748810109E+04  0.11073028908E+04  0.00000000000E+00 0.  1.
         22    1    1    2    0    0 -0.68137274035E+02 -0.39719990155E+03 -0.34446918020E+03  0.53015984949E+03  0.00000000000E+00 0. -1.
<mgrwt>
<rscale>  0 0.16907044E+04</rscale>
<asrwt>0</asrwt>
<pdfrwt beam="1">  1        2 0.71868900E-01 0.16907044E+04</pdfrwt>
<pdfrwt beam="2">  1       -2 0.23534646E+00 0.16907044E+04</pdfrwt>
<totfact> 0.50210183E+00</totfact>
</mgrwt>
</event>
<event>
 6    1  0.2436515E-005  0.2593258E+04  0.7818608E-02  0.8370495E-01
         -2   -1    0    0    0  501 -0.00000000000E+00  0.00000000000E+00  0.63726706638E+03  0.63726706638E+03  0.00000000000E+00 0. -1.
          2   -1    0    0  501    0  0.00000000000E+00 -0.00000000000E+00 -0.26382141591E+04  0.26382141591E+04  0.00000000000E+00 0.  1.
         23    2    1    2    0    0 -0.13551271587E+03 -0.47193215234E+03 -0.25152591177E+04  0.25644253124E+04  0.93086526185E+02 0.  0.
         13    1    3    3    0    0 -0.95080628135E+02 -0.16999192885E+03 -0.10273280800E+04  0.10456292678E+04  0.00000000000E+00 0.  1.
        -13    1    3    3    0    0 -0.40432087737E+02 -0.30194022349E+03 -0.14879310376E+04  0.15187960446E+04  0.00000000000E+00 0. -1.
         22    1    1    2    0    0  0.13551271587E+03  0.47193215234E+03  0.51431202492E+03  0.71105591310E+03  0.00000000000E+00 0. -1.
<mgrwt>
<rscale>  0 0.25932582E+04</rscale>
<asrwt>0</asrwt>
<pdfrwt beam="1">  1        2 0.40587911E+00 0.25932582E+04</pdfrwt>
<pdfrwt beam="2">  1       -2 0.98041086E-01 0.25932582E+04</pdfrwt>
<totfact> 0.22129865E+00</totfact>
</mgrwt>
</event>
<event>
 6    1  0.2436515E-005  0.1836554E+04  0.7818608E-02  0.8687098E-01
          2   -1    0    0  501    0  0.00000000000E+00  0.00000000000E+00  0.16728666814E+04  0.16728666814E+04  0.00000000000E+00 0.  1.
         -2   -1    0    0    0  501 -0.00000000000E+00 -0.00000000000E+00 -0.50406462196E+03  0.50406462196E+03  0.00000000000E+00 0. -1.
         23    2    1    2    0    0  0.90707824292E+03 -0.90956345819E+02  0.69627363806E+03  0.11501172478E+04  0.83118644434E+02 0.  0.
         11    1    3    3    0    0  0.33544730163E+03 -0.33259168240E+02  0.30863402818E+03  0.45704051001E+03  0.00000000000E+00 0. -1.
        -11    1    3    3    0    0  0.57163094129E+03 -0.57697177579E+02  0.38763960988E+03  0.69307673781E+03  0.00000000000E+00 0.  1.
         22    1    1    2    0    0 -0.90707824292E+03  0.90956345819E+02  0.47252842136E+03  0.10268140555E+04  0.00000000000E+00 0. -1.
<mgrwt>
<rscale>  0 0.18365543E+04</rscale>
<asrwt>0</asrwt>
<pdfrwt beam="1">  1        2 0.25736410E+00 0.18365543E+04</pdfrwt>
<pdfrwt beam="2">  1       -2 0.77548404E-01 0.18365543E+04</pdfrwt>
<totfact> 0.14166906E+01</totfact>
</mgrwt>
</event>
<event>
 6    1  0.2436515E-005  0.2708984E+04  0.7818608E-02  0.8332096E-01
         -2   -1    0    0    0  501 -0.00000000000E+00  0.00000000000E+00  0.21935431831E+04  0.21935431831E+04  0.00000000000E+00 0. -1.
          2   -1    0    0  501    0  0.00000000000E+00 -0.00000000000E+00 -0.83638590668E+03  0.83638590668E+03  0.00000000000E+00 0.  1.
         23    2    1    2    0    0 -0.95395045473E+03 -0.42519482461E+03  0.16413142886E+04  0.19475440767E+04  0.90571672439E+02 0.  0.
         11    1    3    3    0    0 -0.11614947832E+03 -0.85504429981E+02  0.23335890609E+03  0.27433207598E+03  0.00000000000E+00 0. -1.
        -11    1    3    3    0    0 -0.83780097642E+03 -0.33969039463E+03  0.14079553825E+04  0.16732120007E+04  0.00000000000E+00 0.  1.
         22    1    1    2    0    0  0.95395045473E+03  0.42519482461E+03 -0.28415701216E+03  0.10823850131E+04  0.00000000000E+00 0.  1.
<mgrwt>
<rscale>  0 0.27089840E+04</rscale>
<asrwt>0</asrwt>
<pdfrwt beam="1">  1        2 0.12867476E+00 0.27089840E+04</pdfrwt>
<pdfrwt beam="2">  1       -2 0.33746818E+00 0.27089840E+04</pdfrwt>
<totfact> 0.53047109E-01</totfact>
</mgrwt>
</event>
<event>
 6    1  0.2436515E-005  0.9504315E+03  0.7818608E-02  0.9364646E-01
          2   -1    0    0  501    0  0.00000000000E+00  0.00000000000E+00  0.13427684997E+04  0.13427684997E+04  0.00000000000E+00 0.  1.
         -2   -1    0    0    0  501 -0.00000000000E+00 -0.00000000000E+00 -0.16818239247E+03  0.16818239247E+03  0.00000000000E+00 0. -1.
         23    2    1    2    0    0  0.12957255627E+03  0.18058920939E+03  0.12527419035E+04  0.12753456325E+04  0.87992588752E+02 0.  0.
         13    1    3    3    0    0  0.93795396994E+02  0.16087926496E+03  0.82999930204E+03  0.85063420797E+03  0.00000000000E+00 0. -1.
        -13    1    3    3    0    0  0.35777159279E+02  0.19709944424E+02  0.42274260144E+03  0.42471142451E+03  0.00000000000E+00 0.  1.
         22    1    1    2    0    0 -0.12957255627E+03 -0.18058920939E+03 -0.78155796282E+02  0.23560525966E+03  0.00000000000E+00 0. -1.
<mgrwt>
<rscale>  0 0.95043152E+03</rscale>
<asrwt>0</asrwt>
<pdfrwt beam="1">  1        2 0.20657976E+00 0.95043152E+03</pdfrwt>
<pdfrwt beam="2">  1       -2 0.25874215E-01 0.95043152E+03</pdfrwt>
<totfact> 0.21024605E+02</totfact>
</mgrwt>
</event>
<event>
 6    1  0.2436515E-005  0.1433543E+04  0.7818608E-02  0.8929890E-01
          2   -1    0    0  501    0  0.00000000000E+00  0.00000000000E+00  0.24970948968E+03  0.24970948968E+03  0.00000000000E+00 0.  1.
         -2   -1    0    0    0  501 -0.00000000000E+00 -0.00000000000E+00 -0.20574356183E+04  0.20574356183E+04  0.00000000000E+00 0. -1.
         23    2    1    2    0    0  0.53549666991E+03 -0.42204389595E+03 -0.56692660158E+03  0.89135515183E+03  0.90722111526E+02 0.  0.
         11    1    3    3    0    0  0.32198556194E+03 -0.19831958180E+03 -0.29650277356E+03  0.48054058450E+03  0.00000000000E+00 0.  1.
        -11    1    3    3    0    0  0.21351110797E+03 -0.22372431415E+03 -0.27042382802E+03  0.41081456733E+03  0.00000000000E+00 0. -1.
         22    1    1    2    0    0 -0.53549666991E+03  0.42204389595E+03 -0.12407995270E+04  0.14157899561E+04  0.00000000000E+00 0. -1.
<mgrwt>
<rscale>  0 0.14335427E+04</rscale>
<asrwt>0</asrwt>
<pdfrwt beam="1">  1        2 0.38416844E-01 0.14335427E+04</pdfrwt>
<pdfrwt beam="2">  1       -2 0.31652856E+00 0.14335427E+04</pdfrwt>
<totfact> 0.33106395E+00</totfact>
</mgrwt>
</event>
<event>
 6    1  0.2436515E-005  0.5166123E+04  0.7818608E-02  0.7803380E-01
         -2   -1    0    0    0  501 -0.00000000000E+00  0.00000000000E+00  0.25447619368E+04  0.25447619368E+04  0.00000000000E+00 0. -1.
          2   -1    0    0  501    0  0.00000000000E+00 -0.00000000000E+00 -0.26219377151E+04  0.26219377151E+04  0.00000000000E+00 0.  1.
         23    2    1    2    0    0  0.61420856944E+02  0.23405182853E+04 -0.11278601978E+04  0.26004307425E+04  0.91504400052E+02 0.  0.
         11    1    3    3    0    0  0.24356950471E+02  0.15227825043E+04 -0.77857694231E+03  0.17104507802E+04  0.00000000000E+00 0.  1.
        -11    1    3    3    0    0  0.37063906473E+02  0.81773578106E+03 -0.34928325551E+03  0.88997996234E+03  0.00000000000E+00 0. -1.
         22    1    1    2    0    0 -0.61420856944E+02 -0.23405182853E+04  0.10506844196E+04  0.25662689093E+04  0.00000000000E+00 0. -1.
<mgrwt>
<rscale>  0 0.51661232E+04</rscale>
<asrwt>0</asrwt>
<pdfrwt beam="1">  1        2 0.40337503E+00 0.51661232E+04</pdfrwt>
<pdfrwt beam="2">  1       -2 0.39150184E+00 0.51661232E+04</pdfrwt>
<totfact> 0.17910576E-02</totfact>
</mgrwt>
</event>
<event>
 6    1  0.2436515E-005  0.3164167E+04  0.7818608E-02  0.8198345E-01
         -2   -1    0    0    0  501 -0.00000000000E+00  0.00000000000E+00  0.79636877248E+03  0.79636877248E+03  0.00000000000E+00 0. -1.
          2   -1    0    0  501    0  0.00000000000E+00 -0.00000000000E+00 -0.31430014575E+04  0.31430014575E+04  0.00000000000E+00 0.  1.
         23    2    1    2    0    0 -0.14081932899E+04  0.54961606693E+03 -0.59863318522E+03  0.16283989160E+04  0.90747873581E+02 0.  0.
         11    1    3    3    0    0 -0.24068523353E+03  0.11460198448E+03 -0.13689865840E+03  0.29967355432E+03  0.00000000000E+00 0.  1.
        -11    1    3    3    0    0 -0.11675080563E+04  0.43501408245E+03 -0.46173452682E+03  0.13287253617E+04  0.00000000000E+00 0. -1.
         22    1    1    2    0    0  0.14081932899E+04 -0.54961606693E+03 -0.17479994998E+04  0.23109713139E+04  0.00000000000E+00 0.  1.
<mgrwt>
<rscale>  0 0.31641670E+04</rscale>
<asrwt>0</asrwt>
<pdfrwt beam="1">  1        2 0.48353869E+00 0.31641670E+04</pdfrwt>
<pdfrwt beam="2">  1       -2 0.12251827E+00 0.31641670E+04</pdfrwt>
<totfact> 0.60078585E-01</totfact>
</mgrwt>
</event>
<event>
 6    1  0.2436515E-005  0.2298316E+04  0.7818608E-02  0.8478585E-01
         -2   -1    0    0    0  501 -0.00000000000E+00  0.00000000000E+00  0.10402134972E+04  0.10402134972E+04  0.00000000000E+00 0. -1.
          2   -1    0    0  501    0  0.00000000000E+00 -0.00000000000E+00 -0.12695126066E+04  0.12695126066E+04  0.00000000000E+00 0.  1.
         23    2    1    2    0    0 -0.91863997670E+02 -0.47051093005E+03 -0.11624635111E+04  0.12606239497E+04  0.89620303043E+02 0.  0.
         11    1    3    3    0    0 -0.88822642121E+01 -0.26985018470E+03 -0.67421143896E+03  0.72626378212E+03  0.00000000000E+00 0. -1.
        -11    1    3    3    0    0 -0.82981733458E+02 -0.20066074535E+03 -0.48825207209E+03  0.53436016760E+03  0.00000000000E+00 0.  1.
         22    1    1    2    0    0  0.91863997670E+02  0.47051093005E+03  0.93316440166E+03  0.10491021542E+04  0.00000000000E+00 0. -1.
<mgrwt>
<rscale>  0 0.22983160E+04</rscale>
<asrwt>0</asrwt>
<pdfrwt beam="1">  1        2 0.19530963E+00 0.22983160E+04</pdfrwt>
<pdfrwt beam="2">  1       -2 0.16003285E+00 0.22983160E+04</pdfrwt>
<totfact> 0.39324820E+00</totfact>
</mgrwt>
</event>
<event>
 6    1  0.2436515E-005  0.1679086E+04  0.7818608E-02  0.8773383E-01
         -2   -1    0    0    0  501 -0.00000000000E+00  0.00000000000E+00  0.15947235526E+04  0.15947235526E+04  0.00000000000E+00 0. -1.
          2   -1    0    0  501    0  0.00000000000E+00 -0.00000000000E+00 -0.44197761322E+03  0.44197761322E+03  0.00000000000E+00 0.  1.
         23    2    1    2    0    0 -0.13491947917E+03 -0.72986133302E+03  0.10472676558E+04  0.12870168992E+04  0.93499330247E+02 0.  0.
         13    1    3    3    0    0 -0.10862889689E+03 -0.40196331344E+03  0.63945142165E+03  0.76306805938E+03  0.00000000000E+00 0. -1.
        -13    1    3    3    0    0 -0.26290582284E+02 -0.32789801958E+03  0.40781623414E+03  0.52394883985E+03  0.00000000000E+00 0.  1.
         22    1    1    2    0    0  0.13491947917E+03  0.72986133302E+03  0.10547828362E+03  0.74968426661E+03  0.00000000000E+00 0.  1.
<mgrwt>
<rscale>  0 0.16790856E+04</rscale>
<asrwt>0</asrwt>
<pdfrwt beam="1">  1        2 0.67996557E-01 0.16790856E+04</pdfrwt>
<pdfrwt beam="2">  1       -2 0.24534208E+00 0.16790856E+04</pdfrwt>
<totfact> 0.46451611E+00</totfact>
</mgrwt>
</event>
<event>
 6    1  0.2436515E-005  0.5617641E+04  0.7818608E-02  0.7739706E-01
          1   -1    0    0  501    0  0.00000000000E+00  0.00000000000E+00  0.40163373808E+04  0.40163373808E+04  0.00000000000E+00 0.  1.
         -1   -1    0    0    0  501 -0.00000000000E+00 -0.00000000000E+00 -0.19643453869E+04  0.19643453869E+04  0.00000000000E+00 0. -1.
         23    2    1    2    0    0  0.21462187671E+04  0.70931550717E+03  0.28000422599E+04  0.35997244133E+04  0.91628106485E+02 0.  0.
         11    1    3    3    0    0  0.19838603992E+04  0.63361954552E+03  0.25567668576E+04  0.32976101311E+04  0.00000000000E+00 0. -1.
        -11    1    3    3    0    0  0.16235836792E+03  0.75695961644E+02  0.24327540221E+03  0.30211428229E+03  0.00000000000E+00 0.  1.
         22    1    1    2    0    0 -0.21462187671E+04 -0.70931550717E+03 -0.74805026592E+03  0.23809583544E+04  0.00000000000E+00 0. -1.
<mgrwt>
<rscale>  0 0.56176414E+04</rscale>
<asrwt>0</asrwt>
<pdfrwt beam="1">  1        1 0.61789806E+00 0.56176414E+04</pdfrwt>
<pdfrwt beam="2">  1       -1 0.30220698E+00 0.56176414E+04</pdfrwt>
<totfact> 0.20324110E-03</totfact>
</mgrwt>
</event>
<event>
 6    1  0.2436515E-005  0.3929921E+04  0.7818608E-02  0.8018835E-01
          2   -1    0    0  501    0  0.00000000000E+00  0.00000000000E+00  0.25740964233E+04  0.25740964233E+04  0.00000000000E+00 0.  1.
         -2   -1    0    0    0  501 -0.00000000000E+00 -0.00000000000E+00 -0.14999712564E+04  0.14999712564E+04  0.00000000000E+00 0. -1.
         23    2    1    2    0    0  0.51924634576E+03  0.73788050119E+03  0.23457278313E+04  0.25148827203E+04  0.90064626137E+02 0.  0.
         11    1    3    3    0    0  0.15304237039E+03  0.15489407248E+03  0.52723574707E+03  0.57043112977E+03  0.00000000000E+00 0. -1.
        -11    1    3    3    0    0  0.36620397537E+03  0.58298642871E+03  0.18184920842E+04  0.19444515905E+04  0.00000000000E+00 0.  1.
         22    1    1    2    0    0 -0.51924634576E+03 -0.73788050119E+03 -0.12716026644E+04  0.15591849594E+04  0.00000000000E+00 0. -1.
<mgrwt>
<rscale>  0 0.39299214E+04</rscale>
<asrwt>0</asrwt>
<pdfrwt beam="1">  1        2 0.39601484E+00 0.39299214E+04</pdfrwt>
<pdfrwt beam="2">  1       -2 0.23076481E+00 0.39299214E+04</pdfrwt>
<totfact> 0.21141917E-01</totfact>
</mgrwt>
</event>
<event>
 6    1  0.2436515E-005  0.8796720E+03  0.7818608E-02  0.9451355E-01
         -2   -1    0    0    0  501 -0.00000000000E+00  0.00000000000E+00  0.57871287179E+03  0.57871287179E+03  0.00000000000E+00 0. -1.
          2   -1    0    0  501    0  0.00000000000E+00 -0.00000000000E+00 -0.33428612886E+03  0.33428612886E+03  0.00000000000E+00 0.  1.
         23    2    1    2    0    0 -0.10576706383E+03  0.12526207667E+03  0.54153200305E+03  0.57366318581E+03  0.94632345344E+02 0.  0.
         11    1    3    3    0    0 -0.44224539864E+02  0.23622370604E+02  0.30360381758E+03  0.30771594754E+03  0.00000000000E+00 0.  1.
        -11    1    3    3    0    0 -0.61542523965E+02  0.10163970606E+03  0.23792818547E+03  0.26594723827E+03  0.00000000000E+00 0. -1.
         22    1    1    2    0    0  0.10576706383E+03 -0.12526207667E+03 -0.29710526012E+03  0.33933581484E+03  0.00000000000E+00 0.  1.
<mgrwt>
<rscale>  0 0.87967195E+03</rscale>
<asrwt>0</asrwt>
<pdfrwt beam="1">  1        2 0.51428635E-01 0.87967195E+03</pdfrwt>
<pdfrwt beam="2">  1       -2 0.89032749E-01 0.87967195E+03</pdfrwt>
<totfact> 0.10589188E+02</totfact>
</mgrwt>
</event>
<event>
 6    1  0.2436515E-005  0.1372732E+04  0.7818608E-02  0.8973796E-01
          2   -1    0    0  501    0  0.00000000000E+00  0.00000000000E+00  0.82031200266E+03  0.82031200266E+03  0.00000000000E+00 0.  1.
         -2   -1    0    0    0  501 -0.00000000000E+00 -0.00000000000E+00 -0.57429199706E+03  0.57429199706E+03  0.00000000000E+00 0. -1.
         23    2    1    2    0    0 -0.38052454190E+03 -0.34917854508E+03 -0.33094070395E+03  0.62026024939E+03  0.92067606243E+02 0.  0.
         11    1    3    3    0    0 -0.67087806149E+02 -0.10327387829E+03 -0.10762762659E+03  0.16355419187E+03  0.00000000000E+00 0. -1.
        -11    1    3    3    0    0 -0.31343673575E+03 -0.24590466678E+03 -0.22331307736E+03  0.45670605752E+03  0.00000000000E+00 0.  1.
         22    1    1    2    0    0  0.38052454190E+03  0.34917854508E+03  0.57696070954E+03  0.77434375033E+03  0.00000000000E+00 0.  1.
<mgrwt>
<rscale>  0 0.13727325E+04</rscale>
<asrwt>0</asrwt>
<pdfrwt beam="1">  1        2 0.12620185E+00 0.13727325E+04</pdfrwt>
<pdfrwt beam="2">  1       -2 0.88352615E-01 0.13727325E+04</pdfrwt>
<totfact> 0.35832830E+01</totfact>
</mgrwt>
</event>
<event>
 6    1  0.2436515E-005  0.3984951E+04  0.7818608E-02  0.8007589E-01
         -2   -1    0    0    0  501 -0.00000000000E+00  0.00000000000E+00  0.19203944759E+04  0.19203944759E+04  0.00000000000E+00 0. -1.
          2   -1    0    0  501    0  0.00000000000E+00 -0.00000000000E+00 -0.20672623398E+04  0.20672623398E+04  0.00000000000E+00 0.  1.
         23    2    1    2    0    0 -0.11516097240E+04  0.97730689687E+03 -0.13722567906E+04  0.20426859294E+04  0.90240674850E+02 0.  0.
         13    1    3    3    0    0 -0.75390974965E+03  0.68657962835E+03 -0.89433504990E+03  0.13563210085E+04  0.00000000000E+00 0. -1.
        -13    1    3    3    0    0 -0.39769997438E+03  0.29072726852E+03 -0.47792174073E+03  0.68636492083E+03  0.00000000000E+00 0.  1.
         22    1    1    2    0    0  0.11516097240E+04 -0.97730689687E+03  0.12253889267E+04  0.19449708864E+04  0.00000000000E+00 0. -1.
<mgrwt>
<rscale>  0 0.39849513E+04</rscale>
<asrwt>0</asrwt>
<pdfrwt beam="1">  1        2 0.31804036E+00 0.39849513E+04</pdfrwt>
<pdfrwt beam="2">  1       -2 0.29544531E+00 0.39849513E+04</pdfrwt>
<totfact> 0.16405620E-01</totfact>
</mgrwt>
</event>
<event>
 6    1  0.2436515E-005  0.2861950E+03  0.7818608E-02  0.1092353E+00
         -2   -1    0    0    0  501 -0.00000000000E+00  0.00000000000E+00  0.47626925880E+03  0.47626925880E+03  0.00000000000E+00 0. -1.
          2   -1    0    0  501    0  0.00000000000E+00 -0.00000000000E+00 -0.42994376820E+02  0.42994376820E+02  0.00000000000E+00 0.  1.
         23    2    1    2    0    0 -0.15770837144E+02 -0.12730778337E+03  0.23440989447E+03  0.28261352624E+03  0.92013127208E+02 0.  0.
         11    1    3    3    0    0 -0.28186728100E+02 -0.95459690323E+02  0.22667686976E+03  0.24756705637E+03  0.00000000000E+00 0. -1.
        -11    1    3    3    0    0  0.12415890955E+02 -0.31848093049E+02  0.77330247090E+01  0.35046469868E+02  0.00000000000E+00 0.  1.
         22    1    1    2    0    0  0.15770837144E+02  0.12730778337E+03  0.19886498752E+03  0.23665010939E+03  0.00000000000E+00 0.  1.
<mgrwt>
<rscale>  0 0.28619504E+03</rscale>
<asrwt>0</asrwt>
<pdfrwt beam="1">  1        2 0.66145199E-02 0.28619504E+03</pdfrwt>
<pdfrwt beam="2">  1       -2 0.73272190E-01 0.28619504E+03</pdfrwt>
<totfact> 0.18779710E+03</totfact>
</mgrwt>
</event>
<event>
 6    1  0.2436515E-005  0.9519702E+03  0.7818608E-02  0.9362851E-01
         -2   -1    0    0    0  501 -0.00000000000E+00  0.00000000000E+00  0.19856070260E+03  0.19856070260E+03  0.00000000000E+00 0. -1.
          2   -1    0    0  501    0  0.00000000000E+00 -0.00000000000E+00 -0.11410205017E+04  0.11410205017E+04  0.00000000000E+00 0.  1.
         23    2    1    2    0    0 -0.38556647193E+03  0.17639022892E+03 -0.18641997932E+03  0.47276448422E+03  0.94756697450E+02 0.  0.
         11    1    3    3    0    0 -0.29433230320E+03  0.16604140460E+03 -0.17402292711E+03  0.38011213070E+03  0.00000000000E+00 0. -1.
        -11    1    3    3    0    0 -0.91234168723E+02  0.10348824325E+02 -0.12397052216E+02  0.92652353511E+02  0.00000000000E+00 0.  1.
         22    1    1    2    0    0  0.38556647193E+03 -0.17639022892E+03 -0.75603981979E+03  0.86681672010E+03  0.00000000000E+00 0. -1.
<mgrwt>
<rscale>  0 0.95197024E+03</rscale>
<asrwt>0</asrwt>
<pdfrwt beam="1">  1        2 0.17554162E+00 0.95197024E+03</pdfrwt>
<pdfrwt beam="2">  1       -2 0.30547800E-01 0.95197024E+03</pdfrwt>
<totfact> 0.20361947E+02</totfact>
</mgrwt>
</event>
<event>
 6    1  0.2436515E-005  0.1600851E+04  0.7818608E-02  0.8820025E-01
          1   -1    0    0  501    0  0.00000000000E+00  0.00000000000E+00  0.10085134563E+04  0.10085134563E+04  0.00000000000E+00 0.  1.
         -1   -1    0    0    0  501 -0.00000000000E+00 -0.00000000000E+00 -0.63527268213E+03  0.63527268213E+03  0.00000000000E+00 0. -1.
         23    2    1    2    0    0  0.60330574802E+03  0.41144895058E+02 -0.34751632617E+03  0.70295590630E+03  0.87799096038E+02 0.  0.
         13    1    3    3    0    0  0.30144689016E+02  0.16868755408E+02 -0.37061421643E+02  0.50663657182E+02  0.00000000000E+00 0. -1.
        -13    1    3    3    0    0  0.57316105900E+03  0.24276139650E+02 -0.31045490453E+03  0.65229224912E+03  0.00000000000E+00 0.  1.
         22    1    1    2    0    0 -0.60330574802E+03 -0.41144895058E+02  0.72075710032E+03  0.94083023211E+03  0.00000000000E+00 0.  1.
<mgrwt>
<rscale>  0 0.16008511E+04</rscale>
<asrwt>0</asrwt>
<pdfrwt beam="1">  1        1 0.15515592E+00 0.16008511E+04</pdfrwt>
<pdfrwt beam="2">  1       -1 0.97734259E-01 0.16008511E+04</pdfrwt>
<totfact> 0.14361033E+01</totfact>
</mgrwt>
</event>
<event>
 6    1  0.2436515E-005  0.2608722E+04  0.7818608E-02  0.8365244E-01
          2   -1    0    0  501    0  0.00000000000E+00  0.00000000000E+00  0.13577732416E+04  0.13577732416E+04  0.00000000000E+00 0.  1.
         -2   -1    0    0    0  501 -0.00000000000E+00 -0.00000000000E+00 -0.12530502704E+04  0.12530502704E+04  0.00000000000E+00 0. -1.
         23    2    1    2    0    0  0.12526203878E+04 -0.33412510634E+03 -0.80571786352E+02  0.13012313733E+04  0.77549025068E+02 0.  0.
         11    1    3    3    0    0  0.32436720556E+03 -0.11394040782E+03  0.32731932592E+00  0.34379733523E+03  0.00000000000E+00 0. -1.
        -11    1    3    3    0    0  0.92825318228E+03 -0.22018469853E+03 -0.80899105678E+02  0.95743403803E+03  0.00000000000E+00 0.  1.
         22    1    1    2    0    0 -0.12526203878E+04  0.33412510634E+03  0.18529475752E+03  0.13095921387E+04  0.00000000000E+00 0. -1.
<mgrwt>
<rscale>  0 0.26087224E+04</rscale>
<asrwt>0</asrwt>
<pdfrwt beam="1">  1        2 0.20888819E+00 0.26087224E+04</pdfrwt>
<pdfrwt beam="2">  1       -2 0.19277696E+00 0.26087224E+04</pdfrwt>
<totfact> 0.20088776E+00</totfact>
</mgrwt>
</event>
<event>
 6    1  0.2436515E-005  0.3011865E+04  0.7818608E-02  0.8240351E-01
         -2   -1    0    0    0  501 -0.00000000000E+00  0.00000000000E+00  0.23258199393E+04  0.23258199393E+04  0.00000000000E+00 0. -1.
          2   -1    0    0  501    0  0.00000000000E+00 -0.00000000000E+00 -0.97506795436E+03  0.97506795436E+03  0.00000000000E+00 0.  1.
         23    2    1    2    0    0  0.56551684943E+03  0.95402885815E+03  0.17902436234E+04  0.21079363986E+04  0.91887213821E+02 0.  0.
         11    1    3    3    0    0  0.25571272126E+03  0.48513640071E+03  0.81437540176E+03  0.98181139640E+03  0.00000000000E+00 0. -1.
        -11    1    3    3    0    0  0.30980412818E+03  0.46889245744E+03  0.97586822168E+03  0.11261250022E+04  0.00000000000E+00 0.  1.
         22    1    1    2    0    0 -0.56551684943E+03 -0.95402885815E+03 -0.43949163853E+03  0.11929514950E+04  0.00000000000E+00 0.  1.
<mgrwt>
<rscale>  0 0.30118649E+04</rscale>
<asrwt>0</asrwt>
<pdfrwt beam="1">  1        2 0.15001046E+00 0.30118649E+04</pdfrwt>
<pdfrwt beam="2">  1       -2 0.35781845E+00 0.30118649E+04</pdfrwt>
<totfact> 0.31028670E-01</totfact>
</mgrwt>
</event>
<event>
 6    1  0.2436515E-005  0.4604750E+04  0.7818608E-02  0.7892550E-01
          2   -1    0    0  501    0  0.00000000000E+00  0.00000000000E+00  0.42889233883E+04  0.42889233883E+04  0.00000000000E+00 0.  1.
         -2   -1    0    0    0  501 -0.00000000000E+00 -0.00000000000E+00 -0.12359583373E+04  0.12359583373E+04  0.00000000000E+00 0. -1.
         23    2    1    2    0    0 -0.37478583684E+03  0.11298193478E+04  0.38904230796E+04  0.40694463502E+04  0.89697693134E+02 0.  0.
         13    1    3    3    0    0 -0.11337470290E+03  0.40604589266E+03  0.15084040250E+04  0.15662087322E+04  0.00000000000E+00 0.  1.
        -13    1    3    3    0    0 -0.26141113394E+03  0.72377345519E+03  0.23820190546E+04  0.25032376180E+04  0.00000000000E+00 0. -1.
         22    1    1    2    0    0  0.37478583684E+03 -0.11298193478E+04 -0.83745802863E+03  0.14554353754E+04  0.00000000000E+00 0. -1.
<mgrwt>
<rscale>  0 0.46047500E+04</rscale>
<asrwt>0</asrwt>
<pdfrwt beam="1">  1        2 0.65983436E+00 0.46047500E+04</pdfrwt>
<pdfrwt beam="2">  1       -2 0.19014744E+00 0.46047500E+04</pdfrwt>
<totfact> 0.22400862E-02</totfact>
</mgrwt>
</event>
<event>
 6    1  0.2436515E-005  0.1349221E+04  0.7818608E-02  0.8991418E-01
          2   -1    0    0  501    0  0.00000000000E+00  0.00000000000E+00  0.33058030963E+04  0.33058030963E+04  0.00000000000E+00 0.  1.
         -2   -1    0    0    0  501 -0.00000000000E+00 -0.00000000000E+00 -0.13766673732E+03  0.13766673732E+03  0.00000000000E+00 0. -1.
         23    2    1    2    0    0 -0.46049918125E+03 -0.44522470026E+03  0.21056186683E+04  0.22028134055E+04  0.92045605397E+02 0.  0.
         11    1    3    3    0    0 -0.13093990604E+03 -0.12675344891E+03  0.74995053816E+03  0.77177555383E+03  0.00000000000E+00 0.  1.
        -11    1    3    3    0    0 -0.32955927521E+03 -0.31847125135E+03  0.13556681301E+04  0.14310378516E+04  0.00000000000E+00 0. -1.
         22    1    1    2    0    0  0.46049918125E+03  0.44522470026E+03  0.10625176907E+04  0.12406564282E+04  0.00000000000E+00 0. -1.
<mgrwt>
<rscale>  0 0.13492207E+04</rscale>
<asrwt>0</asrwt>
<pdfrwt beam="1">  1        2 0.50858503E+00 0.13492207E+04</pdfrwt>
<pdfrwt beam="2">  1       -2 0.21179501E-01 0.13492207E+04</pdfrwt>
<totfact> 0.21152076E+01</totfact>
</mgrwt>
</event>
<event>
 6    1  0.2436515E-005  0.1242744E+04  0.7818608E-02  0.9076244E-01
         -1   -1    0    0    0  501 -0.00000000000E+00  0.00000000000E+00  0.31513695440E+03  0.31513695440E+03  0.00000000000E+00 0. -1.
          1   -1    0    0  501    0  0.00000000000E+00 -0.00000000000E+00 -0.12251924060E+04  0.12251924060E+04  0.00000000000E+00 0.  1.
         23    2    1    2    0    0  0.42936000129E+03  0.94211238760E+02  0.81145910055E+02  0.45602962898E+03  0.90291724837E+02 0.  0.
         13    1    3    3    0    0  0.35648393503E+03  0.10844375734E+03  0.83032352111E+02  0.38175282047E+03  0.00000000000E+00 0.  1.
        -13    1    3    3    0    0  0.72876066259E+02 -0.14232518583E+02 -0.18864420564E+01  0.74276808508E+02  0.00000000000E+00 0. -1.
         22    1    1    2    0    0 -0.42936000129E+03 -0.94211238760E+02 -0.99120136169E+03  0.10842997315E+04  0.00000000000E+00 0.  1.
<mgrwt>
<rscale>  0 0.12427444E+04</rscale>
<asrwt>0</asrwt>
<pdfrwt beam="1">  1        1 0.18849114E+00 0.12427444E+04</pdfrwt>
<pdfrwt beam="2">  1       -1 0.48482609E-01 0.12427444E+04</pdfrwt>
<totfact> 0.43000591E+01</totfact>
</mgrwt>
</event>
<event>
 6    1  0.2436515E-005  0.3330862E+04  0.7818608E-02  0.8155087E-01
          2   -1    0    0  501    0  0.00000000000E+00  0.00000000000E+00  0.43407112557E+04  0.43407112557E+04  0.00000000000E+00 0.  1.
         -2   -1    0    0    0  501 -0.00000000000E+00 -0.00000000000E+00 -0.63898756190E+03  0.63898756190E+03  0.00000000000E+00 0. -1.
         23    2    1    2    0    0 -0.82591483513E+03 -0.14378795619E+04  0.20627656552E+04  0.26482150836E+04  0.91695317715E+02 0.  0.
         11    1    3    3    0    0 -0.11387156898E+03 -0.21227638701E+03  0.25139062730E+03  0.34817416073E+03  0.00000000000E+00 0. -1.
        -11    1    3    3    0    0 -0.71204326615E+03 -0.12256031749E+04  0.18113750279E+04  0.23000409229E+04  0.00000000000E+00 0.  1.
         22    1    1    2    0    0  0.82591483513E+03  0.14378795619E+04  0.16389580386E+04  0.23314837340E+04  0.00000000000E+00 0. -1.
<mgrwt>
<rscale>  0 0.33308621E+04</rscale>
<asrwt>0</asrwt>
<pdfrwt beam="1">  1        2 0.66780171E+00 0.33308621E+04</pdfrwt>
<pdfrwt beam="2">  1       -2 0.98305782E-01 0.33308621E+04</pdfrwt>
<totfact> 0.12442107E-01</totfact>
</mgrwt>
</event>
<event>
 6    1  0.2436515E-005  0.6044956E+04  0.7818608E-02  0.7684853E-01
         -2   -1    0    0    0  501 -0.00000000000E+00  0.00000000000E+00  0.30021273436E+04  0.30021273436E+04  0.00000000000E+00 0. -1.
          2   -1    0    0  501    0  0.00000000000E+00 -0.00000000000E+00 -0.30429667334E+04  0.30429667334E+04  0.00000000000E+00 0.  1.
         23    2    1    2    0    0  0.12358773657E+04  0.11597273245E+03 -0.27754210093E+04  0.30419658461E+04  0.98751670067E+02 0.  0.
         11    1    3    3    0    0  0.98126438317E+03  0.98067961863E+02 -0.22963052558E+04  0.24991028275E+04  0.00000000000E+00 0.  1.
        -11    1    3    3    0    0  0.25461298250E+03  0.17904770589E+02 -0.47911575352E+03  0.54286301858E+03  0.00000000000E+00 0. -1.
         22    1    1    2    0    0 -0.12358773657E+04 -0.11597273245E+03  0.27345816195E+04  0.30031282309E+04  0.00000000000E+00 0. -1.
<mgrwt>
<rscale>  0 0.60449561E+04</rscale>
<asrwt>0</asrwt>
<pdfrwt beam="1">  1        2 0.46814873E+00 0.60449561E+04</pdfrwt>
<pdfrwt beam="2">  1       -2 0.46186575E+00 0.60449561E+04</pdfrwt>
<totfact> 0.31988982E-03</totfact>
</mgrwt>
</event>
<event>
 6    1  0.2436515E-005  0.1601066E+04  0.7818608E-02  0.8819894E-01
          2   -1    0    0  501    0  0.00000000000E+00  0.00000000000E+00  0.96384554095E+03  0.96384554095E+03  0.00000000000E+00 0.  1.
         -2   -1    0    0    0  501 -0.00000000000E+00 -0.00000000000E+00 -0.66489170011E+03  0.66489170011E+03  0.00000000000E+00 0. -1.
         23    2    1    2    0    0  0.71258136794E+03 -0.27123760000E+03  0.38888162448E+03  0.86099441442E+03  0.93490225206E+02 0.  0.
         11    1    3    3    0    0  0.29059670349E+03 -0.15856618683E+03  0.15468699895E+03  0.36540080368E+03  0.00000000000E+00 0.  1.
        -11    1    3    3    0    0  0.42198466445E+03 -0.11267141317E+03  0.23419462553E+03  0.49559361074E+03  0.00000000000E+00 0. -1.
         22    1    1    2    0    0 -0.71258136794E+03  0.27123760000E+03 -0.89927783650E+02  0.76774282664E+03  0.00000000000E+00 0. -1.
<mgrwt>
<rscale>  0 0.16010658E+04</rscale>
<asrwt>0</asrwt>
<pdfrwt beam="1">  1        2 0.14828393E+00 0.16010658E+04</pdfrwt>
<pdfrwt beam="2">  1       -2 0.10229103E+00 0.16010658E+04</pdfrwt>
<totfact> 0.19954478E+01</totfact>
</mgrwt>
</event>
<event>
 6    1  0.2436515E-005  0.4155582E+04  0.7818608E-02  0.7973876E-01
         -2   -1    0    0    0  501 -0.00000000000E+00  0.00000000000E+00  0.25169553965E+04  0.25169553965E+04  0.00000000000E+00 0. -1.
          2   -1    0    0  501    0  0.00000000000E+00 -0.00000000000E+00 -0.17152532770E+04  0.17152532770E+04  0.00000000000E+00 0.  1.
         23    2    1    2    0    0  0.15972638996E+03  0.12702653509E+04 -0.12641952297E+04  0.18017728199E+04  0.95441785615E+02 0.  0.
         11    1    3    3    0    0  0.80915885553E+01  0.15195965712E+03 -0.11187162608E+03  0.18887157520E+03  0.00000000000E+00 0. -1.
        -11    1    3    3    0    0  0.15163480140E+03  0.11183056938E+04 -0.11523236036E+04  0.16129012447E+04  0.00000000000E+00 0.  1.
         22    1    1    2    0    0 -0.15972638996E+03 -0.12702653509E+04  0.20658973492E+04  0.24304358536E+04  0.00000000000E+00 0. -1.
<mgrwt>
<rscale>  0 0.41555823E+04</rscale>
<asrwt>0</asrwt>
<pdfrwt beam="1">  1        2 0.26388512E+00 0.41555823E+04</pdfrwt>
<pdfrwt beam="2">  1       -2 0.38722391E+00 0.41555823E+04</pdfrwt>
<totfact> 0.67337228E-02</totfact>
</mgrwt>
</event>
<event>
 6    1  0.2436515E-005  0.2414452E+04  0.7818608E-02  0.8434113E-01
         -1   -1    0    0    0  501 -0.00000000000E+00  0.00000000000E+00  0.66936953376E+03  0.66936953376E+03  0.00000000000E+00 0. -1.
          1   -1    0    0  501    0  0.00000000000E+00 -0.00000000000E+00 -0.21772644101E+04  0.21772644101E+04  0.00000000000E+00 0.  1.
         23    2    1    2    0    0  0.10190153593E+04  0.12416226301E+02  0.40962004545E+01  0.10232679681E+04  0.92271830266E+02 0.  0.
         13    1    3    3    0    0  0.26258012611E+03 -0.34725607776E+02  0.14943449065E+02  0.26528757440E+03  0.00000000000E+00 0. -1.
        -13    1    3    3    0    0  0.75643523317E+03  0.47141834077E+02 -0.10847248611E+02  0.75798039375E+03  0.00000000000E+00 0.  1.
         22    1    1    2    0    0 -0.10190153593E+04 -0.12416226301E+02 -0.15119910768E+04  0.18233659757E+04  0.00000000000E+00 0.  1.
<mgrwt>
<rscale>  0 0.24144519E+04</rscale>
<asrwt>0</asrwt>
<pdfrwt beam="1">  1        1 0.33496375E+00 0.24144519E+04</pdfrwt>
<pdfrwt beam="2">  1       -1 0.10297993E+00 0.24144519E+04</pdfrwt>
<totfact> 0.17993739E+00</totfact>
</mgrwt>
</event>
<event>
 6    1  0.2436515E-005  0.1581299E+04  0.7818608E-02  0.8832120E-01
          2   -1    0    0  501    0  0.00000000000E+00  0.00000000000E+00  0.12596538038E+04  0.12596538038E+04  0.00000000000E+00 0.  1.
         -2   -1    0    0    0  501 -0.00000000000E+00 -0.00000000000E+00 -0.49626844577E+03  0.49626844577E+03  0.00000000000E+00 0. -1.
         23    2    1    2    0    0  0.51044981657E+03  0.54640479901E+03  0.10701977148E+03  0.76096848036E+03  0.92209419240E+02 0.  0.
         13    1    3    3    0    0  0.40078480645E+03  0.47208134603E+03  0.10728852226E+03  0.62849032241E+03  0.00000000000E+00 0.  1.
        -13    1    3    3    0    0  0.10966501012E+03  0.74323452977E+02 -0.26875077679E+00  0.13247815795E+03  0.00000000000E+00 0. -1.
         22    1    1    2    0    0 -0.51044981657E+03 -0.54640479901E+03  0.65636558653E+03  0.99495376918E+03  0.00000000000E+00 0.  1.
<mgrwt>
<rscale>  0 0.15812988E+04</rscale>
<asrwt>0</asrwt>
<pdfrwt beam="1">  1        2 0.19379289E+00 0.15812988E+04</pdfrwt>
<pdfrwt beam="2">  1       -2 0.76348992E-01 0.15812988E+04</pdfrwt>
<totfact> 0.25730827E+01</totfact>
</mgrwt>
</event>
<event>
 6    1  0.2436515E-005  0.1378831E+04  0.7818608E-02  0.8969286E-01
          2   -1    0    0  501    0  0.00000000000E+00  0.00000000000E+00  0.37692724508E+03  0.37692724508E+03  0.00000000000E+00 0.  1.
         -2   -1    0    0    0  501 -0.00000000000E+00 -0.00000000000E+00 -0.12609697334E+04  0.12609697334E+04  0.00000000000E+00 0. -1.
         23    2    1    2    0    0 -0.29514444875E+02 -0.54950437317E+03  0.43600753598E+02  0.55931080072E+03  0.90007707997E+02 0.  0.
         11    1    3    3    0    0 -0.21521531304E+02 -0.10996003498E+03  0.42090352681E+02  0.11969120014E+03  0.00000000000E+00 0.  1.
        -11    1    3    3    0    0 -0.79929135714E+01 -0.43954433819E+03  0.15104009174E+01  0.43961960058E+03  0.00000000000E+00 0. -1.
         22    1    1    2    0    0  0.29514444875E+02  0.54950437317E+03 -0.92764324196E+03  0.10785861778E+04  0.00000000000E+00 0. -1.
<mgrwt>
<rscale>  0 0.13788312E+04</rscale>
<asrwt>0</asrwt>
<pdfrwt beam="1">  1        2 0.57988808E-01 0.13788312E+04</pdfrwt>
<pdfrwt beam="2">  1       -2 0.19399534E+00 0.13788312E+04</pdfrwt>
<totfact> 0.12067217E+01</totfact>
</mgrwt>
</event>
<event>
 6    1  0.2436515E-005  0.1504960E+04  0.7818608E-02  0.8881161E-01
         -2   -1    0    0    0  501 -0.00000000000E+00  0.00000000000E+00  0.71758436781E+03  0.71758436781E+03  0.00000000000E+00 0. -1.
          2   -1    0    0  501    0  0.00000000000E+00 -0.00000000000E+00 -0.78907225300E+03  0.78907225300E+03  0.00000000000E+00 0.  1.
         23    2    1    2    0    0  0.59203707854E+03  0.45549187942E+03  0.29922966157E+02  0.75282314096E+03  0.88693534554E+02 0.  0.
         11    1    3    3    0    0  0.22868474868E+03  0.18069278534E+03  0.54868430252E+02  0.29657569286E+03  0.00000000000E+00 0. -1.
        -11    1    3    3    0    0  0.36335232986E+03  0.27479909408E+03 -0.24945464095E+02  0.45624744810E+03  0.00000000000E+00 0.  1.
         22    1    1    2    0    0 -0.59203707854E+03 -0.45549187942E+03 -0.10141085135E+03  0.75383347986E+03  0.00000000000E+00 0.  1.
<mgrwt>
<rscale>  0 0.15049597E+04</rscale>
<asrwt>0</asrwt>
<pdfrwt beam="1">  1        2 0.12139573E+00 0.15049597E+04</pdfrwt>
<pdfrwt beam="2">  1       -2 0.11039760E+00 0.15049597E+04</pdfrwt>
<totfact> 0.22069871E+01</totfact>
</mgrwt>
</event>
<event>
 6    1  0.2436515E-005  0.9456549E+03  0.7818608E-02  0.9370244E-01
          2   -1    0    0  501    0  0.00000000000E+00  0.00000000000E+00  0.43619348663E+03  0.43619348663E+03  0.00000000000E+00 0.  1.
         -2   -1    0    0    0  501 -0.00000000000E+00 -0.00000000000E+00 -0.51253816032E+03  0.51253816032E+03  0.00000000000E+00 0. -1.
         23    2    1    2    0    0 -0.14838662887E+03  0.42115365288E+03  0.10812222013E+03  0.46559913317E+03  0.75519185395E+02 0.  0.
         11    1    3    3    0    0 -0.86692131996E+02  0.30739253095E+03  0.48250953204E+02  0.32300750505E+03  0.00000000000E+00 0. -1.
        -11    1    3    3    0    0 -0.61694496874E+02  0.11376112193E+03  0.59871266921E+02  0.14259162812E+03  0.00000000000E+00 0.  1.
         22    1    1    2    0    0  0.14838662887E+03 -0.42115365288E+03 -0.18446689382E+03  0.48313251379E+03  0.00000000000E+00 0. -1.
<mgrwt>
<rscale>  0 0.94565492E+03</rscale>
<asrwt>0</asrwt>
<pdfrwt beam="1">  1        2 0.67106690E-01 0.94565492E+03</pdfrwt>
<pdfrwt beam="2">  1       -2 0.78852025E-01 0.94565492E+03</pdfrwt>
<totfact> 0.10310621E+02</totfact>
</mgrwt>
</event>
<event>
 6    1  0.2436515E-005  0.2497405E+04  0.7818608E-02  0.8403911E-01
         -1   -1    0    0    0  501 -0.00000000000E+00  0.00000000000E+00  0.41870467833E+03  0.41870467833E+03  0.00000000000E+00 0. -1.
          1   -1    0    0  501    0  0.00000000000E+00 -0.00000000000E+00 -0.37240034667E+04  0.37240034667E+04  0.00000000000E+00 0.  1.
         23    2    1    2    0    0  0.44775291295E+03  0.81415071785E+02 -0.35807871472E+04  0.36107260769E+04  0.90526924059E+02 0.  0.
         11    1    3    3    0    0  0.27827196951E+03  0.27258169677E+02 -0.18838069143E+04  0.19044439575E+04  0.00000000000E+00 0.  1.
        -11    1    3    3    0    0  0.16948094345E+03  0.54156902108E+02 -0.16969802329E+04  0.17062821194E+04  0.00000000000E+00 0. -1.
         22    1    1    2    0    0 -0.44775291295E+03 -0.81415071785E+02  0.27548835881E+03  0.53198206813E+03  0.00000000000E+00 0. -1.
<mgrwt>
<rscale>  0 0.24974048E+04</rscale>
<asrwt>0</asrwt>
<pdfrwt beam="1">  1        1 0.57292358E+00 0.24974048E+04</pdfrwt>
<pdfrwt beam="2">  1       -1 0.64416107E-01 0.24974048E+04</pdfrwt>
<totfact> 0.35857361E-01</totfact>
</mgrwt>
</event>
<event>
 6    1  0.2436515E-005  0.2432841E+04  0.7818608E-02  0.8427310E-01
         -2   -1    0    0    0  501 -0.00000000000E+00  0.00000000000E+00  0.90402723969E+03  0.90402723969E+03  0.00000000000E+00 0. -1.
          2   -1    0    0  501    0  0.00000000000E+00 -0.00000000000E+00 -0.16367630723E+04  0.16367630723E+04  0.00000000000E+00 0.  1.
         23    2    1    2    0    0  0.14798596405E+03  0.59601905734E+02 -0.16244887087E+04  0.16348789341E+04  0.91724214493E+02 0.  0.
         13    1    3    3    0    0  0.13959785587E+03  0.67913264347E+02 -0.11720715811E+04  0.11823077282E+04  0.00000000000E+00 0. -1.
        -13    1    3    3    0    0  0.83881081801E+01 -0.83113586131E+01 -0.45241712763E+03  0.45257120590E+03  0.00000000000E+00 0.  1.
         22    1    1    2    0    0 -0.14798596405E+03 -0.59601905734E+02  0.89175287608E+03  0.90591137796E+03  0.00000000000E+00 0. -1.
<mgrwt>
<rscale>  0 0.24328406E+04</rscale>
<asrwt>0</asrwt>
<pdfrwt beam="1">  1        2 0.25180970E+00 0.24328406E+04</pdfrwt>
<pdfrwt beam="2">  1       -2 0.13908112E+00 0.24328406E+04</pdfrwt>
<totfact> 0.34856469E+00</totfact>
</mgrwt>
</event>
<event>
 6    1  0.2436515E-005  0.2385919E+04  0.7818608E-02  0.8444794E-01
         -2   -1    0    0    0  501 -0.00000000000E+00  0.00000000000E+00  0.80645660067E+03  0.80645660067E+03  0.00000000000E+00 0. -1.
          2   -1    0    0  501    0  0.00000000000E+00 -0.00000000000E+00 -0.17646975708E+04  0.17646975708E+04  0.00000000000E+00 0.  1.
         23    2    1    2    0    0  0.10351761232E+04 -0.58618615656E+03 -0.41293790320E+03  0.12625063002E+04  0.90557328979E+02 0.  0.
         13    1    3    3    0    0  0.56749691462E+03 -0.30627622214E+03 -0.17801645397E+03  0.66899008232E+03  0.00000000000E+00 0.  1.
        -13    1    3    3    0    0  0.46767920859E+03 -0.27990993443E+03 -0.23492144923E+03  0.59351621784E+03  0.00000000000E+00 0. -1.
         22    1    1    2    0    0 -0.10351761232E+04  0.58618615656E+03 -0.54530306689E+03  0.13086478713E+04  0.00000000000E+00 0.  1.
<mgrwt>
<rscale>  0 0.23859187E+04</rscale>
<asrwt>0</asrwt>
<pdfrwt beam="1">  1        2 0.27149193E+00 0.23859187E+04</pdfrwt>
<pdfrwt beam="2">  1       -2 0.12407025E+00 0.23859187E+04</pdfrwt>
<totfact> 0.39708435E+00</totfact>
</mgrwt>
</event>
<event>
 6    1  0.2436515E-005  0.7898819E+03  0.7818608E-02  0.9574779E-01
         -2   -1    0    0    0  501 -0.00000000000E+00  0.00000000000E+00  0.21369607560E+03  0.21369607560E+03  0.00000000000E+00 0. -1.
          2   -1    0    0  501    0  0.00000000000E+00 -0.00000000000E+00 -0.72990741389E+03  0.72990741389E+03  0.00000000000E+00 0.  1.
         23    2    1    2    0    0 -0.34160476129E+03  0.74407716719E+02 -0.46780349083E+03  0.59065357670E+03  0.88324517544E+02 0.  0.
         13    1    3    3    0    0 -0.27095515306E+03  0.73478902590E+02 -0.31281857926E+03  0.42032286118E+03  0.00000000000E+00 0. -1.
        -13    1    3    3    0    0 -0.70649608221E+02  0.92881412907E+00 -0.15498491157E+03  0.17033071552E+03  0.00000000000E+00 0.  1.
         22    1    1    2    0    0  0.34160476129E+03 -0.74407716719E+02 -0.48407847465E+02  0.35294991279E+03  0.00000000000E+00 0. -1.
<mgrwt>
<rscale>  0 0.78988189E+03</rscale>
<asrwt>0</asrwt>
<pdfrwt beam="1">  1        2 0.11229345E+00 0.78988189E+03</pdfrwt>
<pdfrwt beam="2">  1       -2 0.32876319E-01 0.78988189E+03</pdfrwt>
<totfact> 0.33693518E+02</totfact>
</mgrwt>
</event>
<event>
 6    1  0.2602884E-005  0.4073449E+04  0.7818608E-02  0.7989891E-01
          2   -1    0    0  501    0  0.00000000000E+00  0.00000000000E+00  0.25572187997E+04  0.25572187997E+04  0.00000000000E+00 0.  1.
         -2   -1    0    0    0  501 -0.00000000000E+00 -0.00000000000E+00 -0.16221714135E+04  0.16221714135E+04  0.00000000000E+00 0. -1.
         23    2    1    2    0    0  0.10034584795E+04 -0.14069746684E+04 -0.63597684646E+03  0.18438766129E+04  0.94381019366E+02 0.  0.
         11    1    3    3    0    0  0.63197576292E+03 -0.82030202385E+03 -0.35284814381E+03  0.10939792447E+04  0.00000000000E+00 0. -1.
        -11    1    3    3    0    0  0.37148271653E+03 -0.58667264458E+03 -0.28312870265E+03  0.74989736820E+03  0.00000000000E+00 0.  1.
         22    1    1    2    0    0 -0.10034584795E+04  0.14069746684E+04  0.15710242326E+04  0.23355136003E+04  0.00000000000E+00 0.  1.
<mgrwt>
<rscale>  0 0.40734493E+04</rscale>
<asrwt>0</asrwt>
<pdfrwt beam="1">  1        2 0.39341828E+00 0.40734493E+04</pdfrwt>
<pdfrwt beam="2">  1       -2 0.24956483E+00 0.40734493E+04</pdfrwt>
<totfact> 0.16348036E-01</totfact>
</mgrwt>
</event>
<event>
 6    1  0.2436515E-005  0.2230910E+04  0.7818608E-02  0.8505672E-01
         -2   -1    0    0    0  501 -0.00000000000E+00  0.00000000000E+00  0.79562877141E+03  0.79562877141E+03  0.00000000000E+00 0. -1.
          2   -1    0    0  501    0  0.00000000000E+00 -0.00000000000E+00 -0.15638448667E+04  0.15638448667E+04  0.00000000000E+00 0.  1.
         23    2    1    2    0    0 -0.41876815993E+03 -0.66981412065E+03 -0.12149825447E+04  0.14519396232E+04  0.89041324707E+02 0.  0.
         13    1    3    3    0    0 -0.34119851203E+03 -0.59663612406E+03 -0.10257669458E+04  0.12347424493E+04  0.00000000000E+00 0.  1.
        -13    1    3    3    0    0 -0.77569647899E+02 -0.73177996600E+02 -0.18921559891E+03  0.21719717386E+03  0.00000000000E+00 0. -1.
         22    1    1    2    0    0  0.41876815993E+03  0.66981412065E+03  0.44676644937E+03  0.90753401495E+03  0.00000000000E+00 0. -1.
<mgrwt>
<rscale>  0 0.22309101E+04</rscale>
<asrwt>0</asrwt>
<pdfrwt beam="1">  1        2 0.24059152E+00 0.22309101E+04</pdfrwt>
<pdfrwt beam="2">  1       -2 0.12240443E+00 0.22309101E+04</pdfrwt>
<totfact> 0.53847700E+00</totfact>
</mgrwt>
</event>
<event>
 6    1  0.2436515E-005  0.2700638E+03  0.7818608E-02  0.1101243E+00
          2   -1    0    0  501    0  0.00000000000E+00  0.00000000000E+00  0.13779919098E+04  0.13779919098E+04  0.00000000000E+00 0.  1.
         -2   -1    0    0    0  501 -0.00000000000E+00 -0.00000000000E+00 -0.13232018150E+02  0.13232018150E+02  0.00000000000E+00 0. -1.
         23    2    1    2    0    0  0.37505144377E+02  0.19476199072E+02  0.13376265275E+04  0.13410026412E+04  0.85190367468E+02 0.  0.
         13    1    3    3    0    0  0.44971567634E+02  0.46994243045E+02  0.81069650911E+03  0.81330174637E+03  0.00000000000E+00 0. -1.
        -13    1    3    3    0    0 -0.74664232575E+01 -0.27518043973E+02  0.52693001834E+03  0.52770089487E+03  0.00000000000E+00 0.  1.
         22    1    1    2    0    0 -0.37505144377E+02 -0.19476199072E+02  0.27133364197E+02  0.50221286699E+02  0.00000000000E+00 0. -1.
<mgrwt>
<rscale>  0 0.27006380E+03</rscale>
<asrwt>0</asrwt>
<pdfrwt beam="1">  1        2 0.21199864E+00 0.27006380E+03</pdfrwt>
<pdfrwt beam="2">  1       -2 0.20356962E-02 0.27006380E+03</pdfrwt>
<totfact> 0.11955055E+04</totfact>
</mgrwt>
</event>
<event>
 6    1  0.2436515E-005  0.3555250E+04  0.7818608E-02  0.8100820E-01
         -2   -1    0    0    0  501 -0.00000000000E+00  0.00000000000E+00  0.19510370088E+04  0.19510370088E+04  0.00000000000E+00 0. -1.
          2   -1    0    0  501    0  0.00000000000E+00 -0.00000000000E+00 -0.16196258133E+04  0.16196258133E+04  0.00000000000E+00 0.  1.
         23    2    1    2    0    0  0.12808860644E+04 -0.61750721707E+03 -0.90376431464E+03  0.16871440900E+04  0.87641147852E+02 0.  0.
         13    1    3    3    0    0  0.10404475152E+04 -0.46635095727E+03 -0.70592264687E+03  0.13410223826E+04  0.00000000000E+00 0.  1.
        -13    1    3    3    0    0  0.24043854924E+03 -0.15115625980E+03 -0.19784166777E+03  0.34612170742E+03  0.00000000000E+00 0. -1.
         22    1    1    2    0    0 -0.12808860644E+04  0.61750721707E+03  0.12351755102E+04  0.18835187321E+04  0.00000000000E+00 0. -1.
<mgrwt>
<rscale>  0 0.35552496E+04</rscale>
<asrwt>0</asrwt>
<pdfrwt beam="1">  1        2 0.24917320E+00 0.35552496E+04</pdfrwt>
<pdfrwt beam="2">  1       -2 0.30015954E+00 0.35552496E+04</pdfrwt>
<totfact> 0.28204552E-01</totfact>
</mgrwt>
</event>
<event>
 6    1  0.2436515E-005  0.4174232E+04  0.7818608E-02  0.7970292E-01
          2   -1    0    0  501    0  0.00000000000E+00  0.00000000000E+00  0.22395161299E+04  0.22395161299E+04  0.00000000000E+00 0.  1.
         -2   -1    0    0    0  501 -0.00000000000E+00 -0.00000000000E+00 -0.19450872056E+04  0.19450872056E+04  0.00000000000E+00 0. -1.
         23    2    1    2    0    0  0.18017977788E+04  0.10332662747E+04  0.34231278738E+03  0.21070068168E+04  0.90472380125E+02 0.  0.
         13    1    3    3    0    0  0.89472254337E+03  0.55997702640E+03  0.19387620235E+03  0.10731685243E+04  0.00000000000E+00 0. -1.
        -13    1    3    3    0    0  0.90707523541E+03  0.47328924826E+03  0.14843658503E+03  0.10338382925E+04  0.00000000000E+00 0.  1.
         22    1    1    2    0    0 -0.18017977788E+04 -0.10332662747E+04 -0.47883863095E+02  0.20775965187E+04  0.00000000000E+00 0. -1.
<mgrwt>
<rscale>  0 0.41742325E+04</rscale>
<asrwt>0</asrwt>
<pdfrwt beam="1">  1        2 0.34454094E+00 0.41742325E+04</pdfrwt>
<pdfrwt beam="2">  1       -2 0.29924418E+00 0.41742325E+04</pdfrwt>
<totfact> 0.12258864E-01</totfact>
</mgrwt>
</event>
<event>
 6    1  0.2436515E-005  0.2362812E+04  0.7818608E-02  0.8453559E-01
         -2   -1    0    0    0  501 -0.00000000000E+00  0.00000000000E+00  0.62402748154E+03  0.62402748154E+03  0.00000000000E+00 0. -1.
          2   -1    0    0  501    0  0.00000000000E+00 -0.00000000000E+00 -0.22366318442E+04  0.22366318442E+04  0.00000000000E+00 0.  1.
         23    2    1    2    0    0 -0.11263815363E+04  0.32768429673E+03 -0.95814078338E+03  0.15173667515E+04  0.90861070138E+02 0.  0.
         13    1    3    3    0    0 -0.63045324368E+03  0.14711904713E+03 -0.49059956172E+03  0.81228273185E+03  0.00000000000E+00 0. -1.
        -13    1    3    3    0    0 -0.49592829259E+03  0.18056524959E+03 -0.46754122167E+03  0.70508401961E+03  0.00000000000E+00 0.  1.
         22    1    1    2    0    0  0.11263815363E+04 -0.32768429673E+03 -0.65446357930E+03  0.13432925743E+04  0.00000000000E+00 0.  1.
<mgrwt>
<rscale>  0 0.23628117E+04</rscale>
<asrwt>0</asrwt>
<pdfrwt beam="1">  1        2 0.34409720E+00 0.23628117E+04</pdfrwt>
<pdfrwt beam="2">  1       -2 0.96004229E-01 0.23628117E+04</pdfrwt>
<totfact> 0.40381040E+00</totfact>
</mgrwt>
</event>
<event>
 6    1  0.2436515E-005  0.4317302E+04  0.7818608E-02  0.7943426E-01
          2   -1    0    0  501    0  0.00000000000E+00  0.00000000000E+00  0.19768349542E+04  0.19768349542E+04  0.00000000000E+00 0.  1.
         -2   -1    0    0    0  501 -0.00000000000E+00 -0.00000000000E+00 -0.23571895604E+04  0.23571895604E+04  0.00000000000E+00 0. -1.
         23    2    1    2    0    0  0.11758752574E+04 -0.18055179339E+04 -0.75233691448E+02  0.21578635823E+04  0.90208098370E+02 0.  0.
         11    1    3    3    0    0  0.30217514097E+03 -0.49121206765E+03 -0.57259825860E+02  0.57954965178E+03  0.00000000000E+00 0. -1.
        -11    1    3    3    0    0  0.87370011641E+03 -0.13143058663E+04 -0.17973865589E+02  0.15783139305E+04  0.00000000000E+00 0.  1.
         22    1    1    2    0    0 -0.11758752574E+04  0.18055179339E+04 -0.30512091472E+03  0.21761609323E+04  0.00000000000E+00 0. -1.
<mgrwt>
<rscale>  0 0.43173023E+04</rscale>
<asrwt>0</asrwt>
<pdfrwt beam="1">  1        2 0.30412845E+00 0.43173023E+04</pdfrwt>
<pdfrwt beam="2">  1       -2 0.36264455E+00 0.43173023E+04</pdfrwt>
<totfact> 0.68454355E-02</totfact>
</mgrwt>
</event>
<event>
 6    1  0.2436515E-005  0.1297432E+04  0.7818608E-02  0.9031604E-01
         -2   -1    0    0    0  501 -0.00000000000E+00  0.00000000000E+00  0.97343092157E+03  0.97343092157E+03  0.00000000000E+00 0. -1.
          2   -1    0    0  501    0  0.00000000000E+00 -0.00000000000E+00 -0.43231907892E+03  0.43231907892E+03  0.00000000000E+00 0.  1.
         23    2    1    2    0    0 -0.13133699443E+03  0.10981049792E+03  0.94620638295E+03  0.96596671506E+03  0.92072927088E+02 0.  0.
         13    1    3    3    0    0 -0.10313445666E+03  0.31802640799E+02  0.62338537261E+03  0.63265902894E+03  0.00000000000E+00 0. -1.
        -13    1    3    3    0    0 -0.28202537773E+02  0.78007857118E+02  0.32282101034E+03  0.33330768612E+03  0.00000000000E+00 0.  1.
         22    1    1    2    0    0  0.13133699443E+03 -0.10981049792E+03 -0.40509454030E+03  0.43978328543E+03  0.00000000000E+00 0.  1.
<mgrwt>
<rscale>  0 0.12974325E+04</rscale>
<asrwt>0</asrwt>
<pdfrwt beam="1">  1        2 0.66510628E-01 0.12974325E+04</pdfrwt>
<pdfrwt beam="2">  1       -2 0.14975860E+00 0.12974325E+04</pdfrwt>
<totfact> 0.21456129E+01</totfact>
</mgrwt>
</event>
<event>
 6    1  0.2436515E-005  0.3317421E+04  0.7818608E-02  0.8158477E-01
         -2   -1    0    0    0  501 -0.00000000000E+00  0.00000000000E+00  0.10164612410E+04  0.10164612410E+04  0.00000000000E+00 0. -1.
          2   -1    0    0  501    0  0.00000000000E+00 -0.00000000000E+00 -0.27067634150E+04  0.27067634150E+04  0.00000000000E+00 0.  1.
         23    2    1    2    0    0 -0.16283374363E+04  0.17108955448E+03 -0.55600196736E+03  0.17313934882E+04  0.88491701947E+02 0.  0.
         11    1    3    3    0    0 -0.76150272075E+03  0.11595626628E+03 -0.28872920187E+03  0.82261582856E+03  0.00000000000E+00 0. -1.
        -11    1    3    3    0    0 -0.86683471554E+03  0.55133288199E+02 -0.26727276549E+03  0.90877765966E+03  0.00000000000E+00 0.  1.
         22    1    1    2    0    0  0.16283374363E+04 -0.17108955448E+03 -0.11343002067E+04  0.19918311678E+04  0.00000000000E+00 0.  1.
<mgrwt>
<rscale>  0 0.33174207E+04</rscale>
<asrwt>0</asrwt>
<pdfrwt beam="1">  1        2 0.41642514E+00 0.33174207E+04</pdfrwt>
<pdfrwt beam="2">  1       -2 0.15637865E+00 0.33174207E+04</pdfrwt>
<totfact> 0.58794889E-01</totfact>
</mgrwt>
</event>
<event>
 6    1  0.2436515E-005  0.2064472E+04  0.7818608E-02  0.8577057E-01
          2   -1    0    0  501    0  0.00000000000E+00  0.00000000000E+00  0.65186858507E+03  0.65186858507E+03  0.00000000000E+00 0.  1.
         -2   -1    0    0    0  501 -0.00000000000E+00 -0.00000000000E+00 -0.16345492994E+04  0.16345492994E+04  0.00000000000E+00 0. -1.
         23    2    1    2    0    0  0.43374883033E+03 -0.12723864740E+03  0.53306535363E+03  0.70470556431E+03  0.90130682439E+02 0.  0.
         13    1    3    3    0    0  0.36582768777E+03 -0.70802725814E+02  0.43077368130E+03  0.56956903675E+03  0.00000000000E+00 0. -1.
        -13    1    3    3    0    0  0.67921142563E+02 -0.56435921588E+02  0.10229167233E+03  0.13513652756E+03  0.00000000000E+00 0.  1.
         22    1    1    2    0    0 -0.43374883033E+03  0.12723864740E+03 -0.15157460679E+04  0.15817123201E+04  0.00000000000E+00 0. -1.
<mgrwt>
<rscale>  0 0.20644722E+04</rscale>
<asrwt>0</asrwt>
<pdfrwt beam="1">  1        2 0.10028748E+00 0.20644722E+04</pdfrwt>
<pdfrwt beam="2">  1       -2 0.25146912E+00 0.20644722E+04</pdfrwt>
<totfact> 0.26056452E+00</totfact>
</mgrwt>
</event>
<event>
 6    1  0.2436515E-005  0.1893835E+04  0.7818608E-02  0.8657931E-01
          2   -1    0    0  501    0  0.00000000000E+00  0.00000000000E+00  0.18053478263E+04  0.18053478263E+04  0.00000000000E+00 0.  1.
         -2   -1    0    0    0  501 -0.00000000000E+00 -0.00000000000E+00 -0.49666479329E+03  0.49666479329E+03  0.00000000000E+00 0. -1.
         23    2    1    2    0    0 -0.29264114303E+03  0.35921896119E+03 -0.34485680547E+03  0.58478488335E+03  0.91487938216E+02 0.  0.
         11    1    3    3    0    0 -0.26784884279E+02  0.88704481514E+02 -0.76577651068E+02  0.12020836789E+03  0.00000000000E+00 0.  1.
        -11    1    3    3    0    0 -0.26585625875E+03  0.27051447968E+03 -0.26827915440E+03  0.46457651546E+03  0.00000000000E+00 0. -1.
         22    1    1    2    0    0  0.29264114303E+03 -0.35921896119E+03  0.16535398385E+04  0.17172277363E+04  0.00000000000E+00 0.  1.
<mgrwt>
<rscale>  0 0.18938350E+04</rscale>
<asrwt>0</asrwt>
<pdfrwt beam="1">  1        2 0.27774582E+00 0.18938350E+04</pdfrwt>
<pdfrwt beam="2">  1       -2 0.76409969E-01 0.18938350E+04</pdfrwt>
<totfact> 0.12301419E+01</totfact>
</mgrwt>
</event>
<event>
 6    1  0.2436515E-005  0.2775089E+04  0.7818608E-02  0.8311044E-01
         -2   -1    0    0    0  501 -0.00000000000E+00  0.00000000000E+00  0.55886654271E+03  0.55886654271E+03  0.00000000000E+00 0. -1.
          2   -1    0    0  501    0  0.00000000000E+00 -0.00000000000E+00 -0.34449727653E+04  0.34449727653E+04  0.00000000000E+00 0.  1.
         23    2    1    2    0    0  0.68937437667E+02  0.99399675564E+03 -0.28348341852E+04  0.30061365756E+04  0.88262864003E+02 0.  0.
         13    1    3    3    0    0  0.73805671624E+02  0.57758242520E+03 -0.17349082787E+04  0.18300151558E+04  0.00000000000E+00 0. -1.
        -13    1    3    3    0    0 -0.48682339567E+01  0.41641433044E+03 -0.10999259065E+04  0.11761214197E+04  0.00000000000E+00 0.  1.
         22    1    1    2    0    0 -0.68937437667E+02 -0.99399675564E+03 -0.51272037464E+02  0.99770273246E+03  0.00000000000E+00 0. -1.
<mgrwt>
<rscale>  0 0.27750892E+04</rscale>
<asrwt>0</asrwt>
<pdfrwt beam="1">  1        2 0.52999582E+00 0.27750892E+04</pdfrwt>
<pdfrwt beam="2">  1       -2 0.85979467E-01 0.27750892E+04</pdfrwt>
<totfact> 0.90862720E-01</totfact>
</mgrwt>
</event>
<event>
 6    1  0.2436515E-005  0.1957783E+04  0.7818608E-02  0.8626617E-01
         -2   -1    0    0    0  501 -0.00000000000E+00  0.00000000000E+00  0.96908389201E+03  0.96908389201E+03  0.00000000000E+00 0. -1.
          2   -1    0    0  501    0  0.00000000000E+00 -0.00000000000E+00 -0.98879885505E+03  0.98879885505E+03  0.00000000000E+00 0.  1.
         23    2    1    2    0    0 -0.41018084552E+03  0.44903494749E+03 -0.77418276698E+03  0.98880979972E+03  0.92223387723E+02 0.  0.
         13    1    3    3    0    0 -0.48916176574E+02  0.70688286506E+02 -0.16333591376E+03  0.18457585677E+03  0.00000000000E+00 0.  1.
        -13    1    3    3    0    0 -0.36126466894E+03  0.37834666098E+03 -0.61084685322E+03  0.80423394295E+03  0.00000000000E+00 0. -1.
         22    1    1    2    0    0  0.41018084552E+03 -0.44903494749E+03  0.75446780394E+03  0.96907294734E+03  0.00000000000E+00 0. -1.
<mgrwt>
<rscale>  0 0.19577835E+04</rscale>
<asrwt>0</asrwt>
<pdfrwt beam="1">  1        2 0.15212290E+00 0.19577835E+04</pdfrwt>
<pdfrwt beam="2">  1       -2 0.14908983E+00 0.19577835E+04</pdfrwt>
<totfact> 0.72690691E+00</totfact>
</mgrwt>
</event>
<event>
 6    1  0.2436515E-005  0.3710723E+04  0.7818608E-02  0.8065590E-01
         -2   -1    0    0    0  501 -0.00000000000E+00  0.00000000000E+00  0.24129208450E+04  0.24129208450E+04  0.00000000000E+00 0. -1.
          2   -1    0    0  501    0  0.00000000000E+00 -0.00000000000E+00 -0.14266385469E+04  0.14266385469E+04  0.00000000000E+00 0.  1.
         23    2    1    2    0    0  0.49577916020E+03  0.46963375921E+03  0.22767755390E+04  0.23795163622E+04  0.10971973245E+03 0.  0.
         11    1    3    3    0    0  0.91412079934E+01  0.43492345425E+02  0.12837832885E+03  0.13585338093E+03  0.00000000000E+00 0. -1.
        -11    1    3    3    0    0  0.48663795221E+03  0.42614141379E+03  0.21483972101E+04  0.22436629813E+04  0.00000000000E+00 0.  1.
         22    1    1    2    0    0 -0.49577916020E+03 -0.46963375921E+03 -0.12904932410E+04  0.14600430297E+04  0.00000000000E+00 0.  1.
<mgrwt>
<rscale>  0 0.37107228E+04</rscale>
<asrwt>0</asrwt>
<pdfrwt beam="1">  1        2 0.21948285E+00 0.37107228E+04</pdfrwt>
<pdfrwt beam="2">  1       -2 0.37121859E+00 0.37107228E+04</pdfrwt>
<totfact> 0.12861159E-01</totfact>
</mgrwt>
</event>
<event>
 6    1  0.2436515E-005  0.1186377E+04  0.7818608E-02  0.9124865E-01
         -2   -1    0    0    0  501 -0.00000000000E+00  0.00000000000E+00  0.85699974084E+03  0.85699974084E+03  0.00000000000E+00 0. -1.
          2   -1    0    0  501    0  0.00000000000E+00 -0.00000000000E+00 -0.41058671525E+03  0.41058671525E+03  0.00000000000E+00 0.  1.
         23    2    1    2    0    0  0.28080123878E+03 -0.44370966874E+03 -0.62216875473E+02  0.53653790633E+03  0.90963616357E+02 0.  0.
         11    1    3    3    0    0  0.23972217135E+03 -0.30656903592E+03 -0.56648110677E+02  0.39326873975E+03  0.00000000000E+00 0.  1.
        -11    1    3    3    0    0  0.41079067434E+02 -0.13714063282E+03 -0.55687647963E+01  0.14326916658E+03  0.00000000000E+00 0. -1.
         22    1    1    2    0    0 -0.28080123878E+03  0.44370966874E+03  0.50862990107E+03  0.73104854975E+03  0.00000000000E+00 0. -1.
<mgrwt>
<rscale>  0 0.11863772E+04</rscale>
<asrwt>0</asrwt>
<pdfrwt beam="1">  1        2 0.63167187E-01 0.11863772E+04</pdfrwt>
<pdfrwt beam="2">  1       -2 0.13184611E+00 0.11863772E+04</pdfrwt>
<totfact> 0.31927264E+01</totfact>
</mgrwt>
</event>
<event>
 6    1  0.2436515E-005  0.1590827E+04  0.7818608E-02  0.8826203E-01
          2   -1    0    0  501    0  0.00000000000E+00  0.00000000000E+00  0.29114158688E+04  0.29114158688E+04  0.00000000000E+00 0.  1.
         -2   -1    0    0    0  501 -0.00000000000E+00 -0.00000000000E+00 -0.21731107868E+03  0.21731107868E+03  0.00000000000E+00 0. -1.
         23    2    1    2    0    0 -0.17190732357E+03  0.31261140514E+03  0.27439224642E+04  0.27685050448E+04  0.90728579558E+02 0.  0.
         13    1    3    3    0    0 -0.57939639503E+02  0.17833472044E+03  0.11985957067E+04  0.12131743248E+04  0.00000000000E+00 0.  1.
        -13    1    3    3    0    0 -0.11396768407E+03  0.13427668470E+03  0.15453267575E+04  0.15553307200E+04  0.00000000000E+00 0. -1.
         22    1    1    2    0    0  0.17190732357E+03 -0.31261140514E+03 -0.49817674053E+02  0.36022190268E+03  0.00000000000E+00 0. -1.
<mgrwt>
<rscale>  0 0.15908274E+04</rscale>
<asrwt>0</asrwt>
<pdfrwt beam="1">  1        2 0.44791010E+00 0.15908274E+04</pdfrwt>
<pdfrwt beam="2">  1       -2 0.33432476E-01 0.15908274E+04</pdfrwt>
<totfact> 0.15943304E+01</totfact>
</mgrwt>
</event>
<event>
 6    1  0.2436515E-005  0.2747825E+04  0.7818608E-02  0.8319652E-01
         -2   -1    0    0    0  501 -0.00000000000E+00  0.00000000000E+00  0.16466063229E+04  0.16466063229E+04  0.00000000000E+00 0. -1.
          2   -1    0    0  501    0  0.00000000000E+00 -0.00000000000E+00 -0.11463797979E+04  0.11463797979E+04  0.00000000000E+00 0.  1.
         23    2    1    2    0    0 -0.11053828591E+04  0.42902300129E+03  0.95341371525E+03  0.15236120111E+04  0.80398053083E+02 0.  0.
         11    1    3    3    0    0 -0.37825214177E+03  0.17527128196E+03  0.37072779907E+03  0.55788332654E+03  0.00000000000E+00 0.  1.
        -11    1    3    3    0    0 -0.72713071735E+03  0.25375171933E+03  0.58268591619E+03  0.96572868452E+03  0.00000000000E+00 0. -1.
         22    1    1    2    0    0  0.11053828591E+04 -0.42902300129E+03 -0.45318719024E+03  0.12693741097E+04  0.00000000000E+00 0.  1.
<mgrwt>
<rscale>  0 0.27478255E+04</rscale>
<asrwt>0</asrwt>
<pdfrwt beam="1">  1        2 0.17636612E+00 0.27478255E+04</pdfrwt>
<pdfrwt beam="2">  1       -2 0.25332405E+00 0.27478255E+04</pdfrwt>
<totfact> 0.10931879E+00</totfact>
</mgrwt>
</event>
<event>
 6    1  0.2436515E-005  0.2562163E+04  0.7818608E-02  0.8381168E-01
         -2   -1    0    0    0  501 -0.00000000000E+00  0.00000000000E+00  0.50250054399E+03  0.50250054399E+03  0.00000000000E+00 0. -1.
          2   -1    0    0  501    0  0.00000000000E+00 -0.00000000000E+00 -0.32660056634E+04  0.32660056634E+04  0.00000000000E+00 0.  1.
         23    2    1    2    0    0  0.82551436032E+03  0.17638256310E+03 -0.27977681467E+04  0.29236637826E+04  0.87855241638E+02 0.  0.
         11    1    3    3    0    0  0.57180402932E+03  0.15441093865E+03 -0.18678691943E+04  0.19595249202E+04  0.00000000000E+00 0.  1.
        -11    1    3    3    0    0  0.25371033100E+03  0.21971624448E+02 -0.92989895244E+03  0.96413886244E+03  0.00000000000E+00 0. -1.
         22    1    1    2    0    0 -0.82551436032E+03 -0.17638256310E+03  0.34263027285E+02  0.84484242477E+03  0.00000000000E+00 0. -1.
<mgrwt>
<rscale>  0 0.25621629E+04</rscale>
<asrwt>0</asrwt>
<pdfrwt beam="1">  1        2 0.50246240E+00 0.25621629E+04</pdfrwt>
<pdfrwt beam="2">  1       -2 0.77307777E-01 0.25621629E+04</pdfrwt>
<totfact> 0.15546663E+00</totfact>
</mgrwt>
</event>
<event>
 6    1  0.2436515E-005  0.7492408E+03  0.7818608E-02  0.9636542E-01
         -2   -1    0    0    0  501 -0.00000000000E+00  0.00000000000E+00  0.10920152581E+03  0.10920152581E+03  0.00000000000E+00 0. -1.
          2   -1    0    0  501    0  0.00000000000E+00 -0.00000000000E+00 -0.12851509740E+04  0.12851509740E+04  0.00000000000E+00 0.  1.
         23    2    1    2    0    0  0.29269446120E+03 -0.21895866294E+03 -0.49973051688E+03  0.62566206359E+03  0.90052676921E+02 0.  0.
         13    1    3    3    0    0  0.11488994647E+03 -0.10343303854E+03 -0.28292413165E+03  0.32240371824E+03  0.00000000000E+00 0. -1.
        -13    1    3    3    0    0  0.17780451472E+03 -0.11552562440E+03 -0.21680638523E+03  0.30325834535E+03  0.00000000000E+00 0.  1.
         22    1    1    2    0    0 -0.29269446120E+03  0.21895866294E+03 -0.67621893134E+03  0.76869043626E+03  0.00000000000E+00 0. -1.
<mgrwt>
<rscale>  0 0.74924081E+03</rscale>
<asrwt>0</asrwt>
<pdfrwt beam="1">  1        2 0.19771554E+00 0.74924081E+03</pdfrwt>
<pdfrwt beam="2">  1       -2 0.16800234E-01 0.74924081E+03</pdfrwt>
<totfact> 0.49142729E+02</totfact>
</mgrwt>
</event>
<event>
 6    1  0.2436515E-005  0.2235641E+04  0.7818608E-02  0.8503738E-01
          2   -1    0    0  501    0  0.00000000000E+00  0.00000000000E+00  0.14309219921E+04  0.14309219921E+04  0.00000000000E+00 0.  1.
         -2   -1    0    0    0  501 -0.00000000000E+00 -0.00000000000E+00 -0.87322877693E+03  0.87322877693E+03  0.00000000000E+00 0. -1.
         23    2    1    2    0    0 -0.75264106344E+03 -0.67043615097E+03 -0.21429087902E+03  0.10345395511E+04  0.91642234397E+02 0.  0.
         13    1    3    3    0    0 -0.15359816979E+03 -0.15760333092E+03 -0.82508015755E+02  0.23502931805E+03  0.00000000000E+00 0. -1.
        -13    1    3    3    0    0 -0.59904289365E+03 -0.51283282005E+03 -0.13178286326E+03  0.79951023308E+03  0.00000000000E+00 0.  1.
         22    1    1    2    0    0  0.75264106344E+03  0.67043615097E+03  0.77198409414E+03  0.12696112179E+04  0.00000000000E+00 0.  1.
<mgrwt>
<rscale>  0 0.22356406E+04</rscale>
<asrwt>0</asrwt>
<pdfrwt beam="1">  1        2 0.22014184E+00 0.22356406E+04</pdfrwt>
<pdfrwt beam="2">  1       -2 0.13434289E+00 0.22356406E+04</pdfrwt>
<totfact> 0.50590206E+00</totfact>
</mgrwt>
</event>
<event>
 6    1  0.2436515E-005  0.1557731E+04  0.7818608E-02  0.8846945E-01
         -2   -1    0    0    0  501 -0.00000000000E+00  0.00000000000E+00  0.25721516344E+03  0.25721516344E+03  0.00000000000E+00 0. -1.
          2   -1    0    0  501    0  0.00000000000E+00 -0.00000000000E+00 -0.23584581299E+04  0.23584581299E+04  0.00000000000E+00 0.  1.
         23    2    1    2    0    0  0.57048017371E+03  0.27517984779E+03 -0.30072342398E+03  0.70699778398E+03  0.90772857163E+02 0.  0.
         13    1    3    3    0    0  0.11253769210E+03  0.88839696664E+02 -0.44373990143E+02  0.15008755727E+03  0.00000000000E+00 0.  1.
        -13    1    3    3    0    0  0.45794248161E+03  0.18634015113E+03 -0.25634943384E+03  0.55691022671E+03  0.00000000000E+00 0. -1.
         22    1    1    2    0    0 -0.57048017371E+03 -0.27517984779E+03 -0.18005195425E+04  0.19086755094E+04  0.00000000000E+00 0.  1.
<mgrwt>
<rscale>  0 0.15577306E+04</rscale>
<asrwt>0</asrwt>
<pdfrwt beam="1">  1        2 0.36283972E+00 0.15577306E+04</pdfrwt>
<pdfrwt beam="2">  1       -2 0.39571563E-01 0.15577306E+04</pdfrwt>
<totfact> 0.24439779E+01</totfact>
</mgrwt>
</event>
<event>
 6    1  0.2436515E-005  0.4742814E+04  0.7818608E-02  0.7869454E-01
         -2   -1    0    0    0  501 -0.00000000000E+00  0.00000000000E+00  0.20633494230E+04  0.20633494230E+04  0.00000000000E+00 0. -1.
          2   -1    0    0  501    0  0.00000000000E+00 -0.00000000000E+00 -0.27254570668E+04  0.27254570668E+04  0.00000000000E+00 0.  1.
         23    2    1    2    0    0  0.13232595900E+04  0.41839048769E+03 -0.22715963111E+04  0.26635958385E+04  0.92338765725E+02 0.  0.
         11    1    3    3    0    0  0.54857855508E+03  0.21998633361E+03 -0.94493595879E+03  0.11145565864E+04  0.00000000000E+00 0.  1.
        -11    1    3    3    0    0  0.77468103491E+03  0.19840415408E+03 -0.13266603523E+04  0.15490392521E+04  0.00000000000E+00 0. -1.
         22    1    1    2    0    0 -0.13232595900E+04 -0.41839048769E+03  0.16094886672E+04  0.21252106514E+04  0.00000000000E+00 0. -1.
<mgrwt>
<rscale>  0 0.47428136E+04</rscale>
<asrwt>0</asrwt>
<pdfrwt beam="1">  1        2 0.41930109E+00 0.47428136E+04</pdfrwt>
<pdfrwt beam="2">  1       -2 0.31743837E+00 0.47428136E+04</pdfrwt>
<totfact> 0.47305613E-02</totfact>
</mgrwt>
</event>
<event>
 6    1  0.2436515E-005  0.3490405E+04  0.7818608E-02  0.8116068E-01
         -2   -1    0    0    0  501 -0.00000000000E+00  0.00000000000E+00  0.21464952809E+04  0.21464952809E+04  0.00000000000E+00 0. -1.
          2   -1    0    0  501    0  0.00000000000E+00 -0.00000000000E+00 -0.14189324624E+04  0.14189324624E+04  0.00000000000E+00 0.  1.
         23    2    1    2    0    0 -0.10909319079E+04 -0.20393936006E+03  0.17382001356E+04  0.20643909427E+04  0.92986894018E+02 0.  0.
         13    1    3    3    0    0 -0.26639137676E+03 -0.84390123393E+02  0.39730992301E+03  0.48573782379E+03  0.00000000000E+00 0.  1.
        -13    1    3    3    0    0 -0.82454053113E+03 -0.11954923667E+03  0.13408902126E+04  0.15786531189E+04  0.00000000000E+00 0. -1.
         22    1    1    2    0    0  0.10909319079E+04  0.20393936006E+03 -0.10106373171E+04  0.15010368006E+04  0.00000000000E+00 0.  1.
<mgrwt>
<rscale>  0 0.34904050E+04</rscale>
<asrwt>0</asrwt>
<pdfrwt beam="1">  1        2 0.21829730E+00 0.34904050E+04</pdfrwt>
<pdfrwt beam="2">  1       -2 0.33023004E+00 0.34904050E+04</pdfrwt>
<totfact> 0.24008254E-01</totfact>
</mgrwt>
</event>
<event>
 6    1  0.2436515E-005  0.3781159E+04  0.7818608E-02  0.8050210E-01
          2   -1    0    0  501    0  0.00000000000E+00  0.00000000000E+00  0.25778764157E+04  0.25778764157E+04  0.00000000000E+00 0.  1.
         -2   -1    0    0    0  501 -0.00000000000E+00 -0.00000000000E+00 -0.13865252370E+04  0.13865252370E+04  0.00000000000E+00 0. -1.
         23    2    1    2    0    0  0.10430343588E+04 -0.14292304539E+04  0.12911034812E+04  0.21922360605E+04  0.91270924691E+02 0.  0.
         13    1    3    3    0    0  0.31101333562E+02 -0.39753457040E+02  0.19546645671E+02  0.54126718476E+02  0.00000000000E+00 0. -1.
        -13    1    3    3    0    0  0.10119330252E+04 -0.13894769969E+04  0.12715568355E+04  0.21381093420E+04  0.00000000000E+00 0.  1.
         22    1    1    2    0    0 -0.10430343588E+04  0.14292304539E+04 -0.99752302483E+02  0.17721655921E+04  0.00000000000E+00 0. -1.
<mgrwt>
<rscale>  0 0.37811589E+04</rscale>
<asrwt>0</asrwt>
<pdfrwt beam="1">  1        2 0.39659637E+00 0.37811589E+04</pdfrwt>
<pdfrwt beam="2">  1       -2 0.21331158E+00 0.37811589E+04</pdfrwt>
<totfact> 0.27451614E-01</totfact>
</mgrwt>
</event>
<event>
 6    1  0.3504995E-005  0.2862601E+04  0.7818608E-02  0.8284093E-01
          2   -1    0    0  501    0  0.00000000000E+00  0.00000000000E+00  0.13107488096E+04  0.13107488096E+04  0.00000000000E+00 0.  1.
         -2   -1    0    0    0  501 -0.00000000000E+00 -0.00000000000E+00 -0.15629395370E+04  0.15629395370E+04  0.00000000000E+00 0. -1.
         23    2    1    2    0    0  0.10201897080E+03 -0.12445353168E+04  0.57291145585E+03  0.13770021276E+04  0.92904779242E+02 0.  0.
         11    1    3    3    0    0  0.66182258864E+02 -0.44252362421E+03  0.16889025599E+03  0.47825847399E+03  0.00000000000E+00 0.  1.
        -11    1    3    3    0    0  0.35836711939E+02 -0.80201169261E+03  0.40402119987E+03  0.89874365363E+03  0.00000000000E+00 0. -1.
         22    1    1    2    0    0 -0.10201897080E+03  0.12445353168E+04 -0.82510218320E+03  0.14966862189E+04  0.00000000000E+00 0. -1.
<mgrwt>
<rscale>  0 0.28626010E+04</rscale>
<asrwt>0</asrwt>
<pdfrwt beam="1">  1        2 0.20165366E+00 0.28626010E+04</pdfrwt>
<pdfrwt beam="2">  1       -2 0.24045224E+00 0.28626010E+04</pdfrwt>
<totfact> 0.10382251E+00</totfact>
</mgrwt>
</event>
<event>
 6    1  0.2436515E-005  0.4504436E+04  0.7818608E-02  0.7909861E-01
          1   -1    0    0  501    0  0.00000000000E+00  0.00000000000E+00  0.31917119883E+04  0.31917119883E+04  0.00000000000E+00 0.  1.
         -1   -1    0    0    0  501 -0.00000000000E+00 -0.00000000000E+00 -0.15892677506E+04  0.15892677506E+04  0.00000000000E+00 0. -1.
         23    2    1    2    0    0 -0.75399218464E+03 -0.93118757454E+03  0.28242399141E+04  0.30697231280E+04  0.10608711741E+03 0.  0.
         13    1    3    3    0    0 -0.15167430304E+03 -0.23941567300E+03  0.59054684057E+03  0.65503475449E+03  0.00000000000E+00 0.  1.
        -13    1    3    3    0    0 -0.60231788161E+03 -0.69177190154E+03  0.22336930736E+04  0.24146883735E+04  0.00000000000E+00 0. -1.
         22    1    1    2    0    0  0.75399218464E+03  0.93118757454E+03 -0.12217956764E+04  0.17112566109E+04  0.00000000000E+00 0. -1.
<mgrwt>
<rscale>  0 0.45044356E+04</rscale>
<asrwt>0</asrwt>
<pdfrwt beam="1">  1        1 0.49103261E+00 0.45044356E+04</pdfrwt>
<pdfrwt beam="2">  1       -1 0.24450273E+00 0.45044356E+04</pdfrwt>
<totfact> 0.24518574E-02</totfact>
</mgrwt>
</event>
<event>
 6    1  0.2436515E-005  0.3078498E+04  0.7818608E-02  0.8221664E-01
         -4   -1    0    0    0  501 -0.00000000000E+00  0.00000000000E+00  0.20466279028E+04  0.20466279028E+04  0.00000000000E+00 0. -1.
          4   -1    0    0  501    0  0.00000000000E+00 -0.00000000000E+00 -0.11576538829E+04  0.11576538829E+04  0.00000000000E+00 0.  1.
         23    2    1    2    0    0  0.70124762597E+03 -0.91806356967E+03 -0.60998307053E+03  0.13118068692E+04  0.11903346078E+03 0.  0.
         13    1    3    3    0    0  0.25674089530E+03 -0.42828065661E+03 -0.28337232432E+03  0.57414291107E+03  0.00000000000E+00 0. -1.
        -13    1    3    3    0    0  0.44450673066E+03 -0.48978291306E+03 -0.32661074622E+03  0.73766395810E+03  0.00000000000E+00 0.  1.
         22    1    1    2    0    0 -0.70124762597E+03  0.91806356967E+03  0.14989570904E+04  0.18924749166E+04  0.00000000000E+00 0. -1.
<mgrwt>
<rscale>  0 0.30784975E+04</rscale>
<asrwt>0</asrwt>
<pdfrwt beam="1">  1        4 0.17810060E+00 0.30784975E+04</pdfrwt>
<pdfrwt beam="2">  1       -4 0.31486583E+00 0.30784975E+04</pdfrwt>
<totfact> 0.77864406E-03</totfact>
</mgrwt>
</event>
<event>
 6    1  0.2436515E-005  0.2703212E+04  0.7818608E-02  0.8333963E-01
          2   -1    0    0  501    0  0.00000000000E+00  0.00000000000E+00  0.17835780122E+04  0.17835780122E+04  0.00000000000E+00 0.  1.
         -2   -1    0    0    0  501 -0.00000000000E+00 -0.00000000000E+00 -0.10242552491E+04  0.10242552491E+04  0.00000000000E+00 0. -1.
         23    2    1    2    0    0  0.66712036766E+03  0.11059216534E+04  0.78822415079E+03  0.15159557212E+04  0.93338889312E+02 0.  0.
         13    1    3    3    0    0  0.31202117386E+03  0.56203047491E+03  0.43952640488E+03  0.77872904675E+03  0.00000000000E+00 0.  1.
        -13    1    3    3    0    0  0.35509919380E+03  0.54389117849E+03  0.34869774591E+03  0.73722667442E+03  0.00000000000E+00 0. -1.
         22    1    1    2    0    0 -0.66712036766E+03 -0.11059216534E+04 -0.28901387672E+02  0.12918775401E+04  0.00000000000E+00 0. -1.
<mgrwt>
<rscale>  0 0.27032123E+04</rscale>
<asrwt>0</asrwt>
<pdfrwt beam="1">  1        2 0.27439662E+00 0.27032123E+04</pdfrwt>
<pdfrwt beam="2">  1       -2 0.15757773E+00 0.27032123E+04</pdfrwt>
<totfact> 0.20295056E+00</totfact>
</mgrwt>
</event>
<event>
 6    1  0.2436515E-005  0.4916541E+04  0.7818608E-02  0.7841512E-01
          2   -1    0    0  501    0  0.00000000000E+00  0.00000000000E+00  0.40064385321E+04  0.40064385321E+04  0.00000000000E+00 0.  1.
         -2   -1    0    0    0  501 -0.00000000000E+00 -0.00000000000E+00 -0.15083456562E+04  0.15083456562E+04  0.00000000000E+00 0. -1.
         23    2    1    2    0    0 -0.19759461594E+03  0.22329561975E+04  0.12036969768E+03  0.22469554711E+04  0.95828038868E+02 0.  0.
         13    1    3    3    0    0 -0.22288347596E+02  0.54824351954E+03  0.61388773533E+02  0.55211983181E+03  0.00000000000E+00 0. -1.
        -13    1    3    3    0    0 -0.17530626834E+03  0.16847126779E+04  0.58980924146E+02  0.16948356393E+04  0.00000000000E+00 0.  1.
         22    1    1    2    0    0  0.19759461594E+03 -0.22329561975E+04  0.23777231782E+04  0.32678287171E+04  0.00000000000E+00 0.  1.
<mgrwt>
<rscale>  0 0.49165411E+04</rscale>
<asrwt>0</asrwt>
<pdfrwt beam="1">  1        2 0.61637516E+00 0.49165411E+04</pdfrwt>
<pdfrwt beam="2">  1       -2 0.23205318E+00 0.49165411E+04</pdfrwt>
<totfact> 0.20468197E-02</totfact>
</mgrwt>
</event>
<event>
 6    1  0.2436515E-005  0.7921193E+03  0.7818608E-02  0.9571495E-01
          2   -1    0    0  501    0  0.00000000000E+00  0.00000000000E+00  0.31788900014E+03  0.31788900014E+03  0.00000000000E+00 0.  1.
         -2   -1    0    0    0  501 -0.00000000000E+00 -0.00000000000E+00 -0.49345287498E+03  0.49345287498E+03  0.00000000000E+00 0. -1.
         23    2    1    2    0    0 -0.38982294769E+03  0.51539703760E+01 -0.11819230527E+03  0.41728605299E+03  0.90386586588E+02 0.  0.
         13    1    3    3    0    0 -0.29730100740E+03 -0.29067982178E+02 -0.10988613533E+03  0.31828886146E+03  0.00000000000E+00 0.  1.
        -13    1    3    3    0    0 -0.92521940293E+02  0.34221952554E+02 -0.83061699377E+01  0.98997191532E+02  0.00000000000E+00 0. -1.
         22    1    1    2    0    0  0.38982294769E+03 -0.51539703760E+01 -0.57371569578E+02  0.39405582213E+03  0.00000000000E+00 0. -1.
<mgrwt>
<rscale>  0 0.79211929E+03</rscale>
<asrwt>0</asrwt>
<pdfrwt beam="1">  1        2 0.48906001E-01 0.79211929E+03</pdfrwt>
<pdfrwt beam="2">  1       -2 0.75915826E-01 0.79211929E+03</pdfrwt>
<totfact> 0.16122714E+02</totfact>
</mgrwt>
</event>
<event>
 6    1  0.2436515E-005  0.2034853E+04  0.7818608E-02  0.8590497E-01
         -2   -1    0    0    0  501 -0.00000000000E+00  0.00000000000E+00  0.65339433868E+03  0.65339433868E+03  0.00000000000E+00 0.  1.
          2   -1    0    0  501    0  0.00000000000E+00 -0.00000000000E+00 -0.15842763003E+04  0.15842763003E+04  0.00000000000E+00 0. -1.
         23    2    1    2    0    0 -0.69900509097E+03 -0.72584221614E+03 -0.32930668537E+03  0.10640659982E+04  0.91315472166E+02 0.  0.
         11    1    3    3    0    0 -0.31802246814E+03 -0.37853214380E+03 -0.19382414181E+03  0.53102982221E+03  0.00000000000E+00 0. -1.
        -11    1    3    3    0    0 -0.38098262283E+03 -0.34731007234E+03 -0.13548254356E+03  0.53303617594E+03  0.00000000000E+00 0.  1.
         22    1    1    2    0    0  0.69900509097E+03  0.72584221614E+03 -0.60157527620E+03  0.11736046408E+04  0.00000000000E+00 0.  1.
<mgrwt>
<rscale>  0 0.20348535E+04</rscale>
<asrwt>0</asrwt>
<pdfrwt beam="1">  1        2 0.24373481E+00 0.20348535E+04</pdfrwt>
<pdfrwt beam="2">  1       -2 0.10052221E+00 0.20348535E+04</pdfrwt>
<totfact> 0.86024647E+00</totfact>
</mgrwt>
</event>
<event>
 6    1  0.2436515E-005  0.1950650E+04  0.7818608E-02  0.8630047E-01
         -1   -1    0    0    0  501 -0.00000000000E+00  0.00000000000E+00  0.51608561853E+03  0.51608561853E+03  0.00000000000E+00 0. -1.
          1   -1    0    0  501    0  0.00000000000E+00 -0.00000000000E+00 -0.18432199065E+04  0.18432199065E+04  0.00000000000E+00 0.  1.
         23    2    1    2    0    0  0.37709374346E+03 -0.29736940360E+03 -0.16889016828E+04  0.17580535800E+04  0.87950226520E+02 0.  0.
         11    1    3    3    0    0  0.32773803601E+03 -0.28827010060E+03 -0.15534027255E+04  0.16135587683E+04  0.00000000000E+00 0. -1.
        -11    1    3    3    0    0  0.49355707454E+02 -0.90993030042E+01 -0.13549895724E+03  0.14449481162E+03  0.00000000000E+00 0.  1.
         22    1    1    2    0    0 -0.37709374346E+03  0.29736940360E+03  0.36176739478E+03  0.60125194510E+03  0.00000000000E+00 0. -1.
<mgrwt>
<rscale>  0 0.19506504E+04</rscale>
<asrwt>0</asrwt>
<pdfrwt beam="1">  1        1 0.28357229E+00 0.19506504E+04</pdfrwt>
<pdfrwt beam="2">  1       -1 0.79397787E-01 0.19506504E+04</pdfrwt>
<totfact> 0.56223322E+00</totfact>
</mgrwt>
</event>
<event>
 6    1  0.2436515E-005  0.2337117E+04  0.7818608E-02  0.8463429E-01
          2   -1    0    0  501    0  0.00000000000E+00  0.00000000000E+00  0.92717725854E+03  0.92717725854E+03  0.00000000000E+00 0.  1.
         -2   -1    0    0    0  501 -0.00000000000E+00 -0.00000000000E+00 -0.14727809285E+04  0.14727809285E+04  0.00000000000E+00 0. -1.
         23    2    1    2    0    0  0.45344237437E+03 -0.32916159975E+03 -0.13242336995E+04  0.14406761280E+04  0.89417387919E+02 0.  0.
         11    1    3    3    0    0  0.44263913019E+03 -0.30345152506E+03 -0.12208918959E+04  0.13336376003E+04  0.00000000000E+00 0.  1.
        -11    1    3    3    0    0  0.10803244186E+02 -0.25710074697E+02 -0.10334180367E+03  0.10703852770E+03  0.00000000000E+00 0. -1.
         22    1    1    2    0    0 -0.45344237437E+03  0.32916159975E+03  0.77863002962E+03  0.95928205897E+03  0.00000000000E+00 0.  1.
<mgrwt>
<rscale>  0 0.23371170E+04</rscale>
<asrwt>0</asrwt>
<pdfrwt beam="1">  1        2 0.14264266E+00 0.23371170E+04</pdfrwt>
<pdfrwt beam="2">  1       -2 0.22658168E+00 0.23371170E+04</pdfrwt>
<totfact> 0.22819172E+00</totfact>
</mgrwt>
</event>
<event>
 6    1  0.2436515E-005  0.1574746E+04  0.7818608E-02  0.8836214E-01
          2   -1    0    0  501    0  0.00000000000E+00  0.00000000000E+00  0.19837978201E+04  0.19837978201E+04  0.00000000000E+00 0.  1.
         -2   -1    0    0    0  501 -0.00000000000E+00 -0.00000000000E+00 -0.31250981118E+03  0.31250981118E+03  0.00000000000E+00 0. -1.
         23    2    1    2    0    0  0.37258587610E+02 -0.49727056627E+03  0.17218098653E+04  0.17950904365E+04  0.95153793396E+02 0.  0.
         13    1    3    3    0    0 -0.21729886301E+02 -0.20937961097E+03  0.61987910326E+03  0.65464655510E+03  0.00000000000E+00 0.  1.
        -13    1    3    3    0    0  0.58988473911E+02 -0.28789095531E+03  0.11019307620E+04  0.11404438814E+04  0.00000000000E+00 0. -1.
         22    1    1    2    0    0 -0.37258587610E+02  0.49727056627E+03 -0.50521856363E+02  0.50121719484E+03  0.00000000000E+00 0. -1.
<mgrwt>
<rscale>  0 0.15747461E+04</rscale>
<asrwt>0</asrwt>
<pdfrwt beam="1">  1        2 0.30519966E+00 0.15747461E+04</pdfrwt>
<pdfrwt beam="2">  1       -2 0.48078434E-01 0.15747461E+04</pdfrwt>
<totfact> 0.26866754E+01</totfact>
</mgrwt>
</event>
<event>
 6    1  0.2436515E-005  0.3232512E+04  0.7818608E-02  0.8180283E-01
          2   -1    0    0  501    0  0.00000000000E+00  0.00000000000E+00  0.30796816466E+04  0.30796816466E+04  0.00000000000E+00 0.  1.
         -2   -1    0    0    0  501 -0.00000000000E+00 -0.00000000000E+00 -0.84823177400E+03  0.84823177400E+03  0.00000000000E+00 0. -1.
         23    2    1    2    0    0  0.37435674209E+03  0.13255267572E+04  0.21414334168E+04  0.25475992836E+04  0.85795552722E+02 0.  0.
         13    1    3    3    0    0  0.15927763169E+03  0.52198301085E+03  0.77460175237E+03  0.94754604234E+03  0.00000000000E+00 0. -1.
        -13    1    3    3    0    0  0.21507911040E+03  0.80354374639E+03  0.13668316644E+04  0.16000532413E+04  0.00000000000E+00 0.  1.
         22    1    1    2    0    0 -0.37435674209E+03 -0.13255267572E+04  0.90016455844E+02  0.13803141370E+04  0.00000000000E+00 0. -1.
<mgrwt>
<rscale>  0 0.32325122E+04</rscale>
<asrwt>0</asrwt>
<pdfrwt beam="1">  1        2 0.47379717E+00 0.32325122E+04</pdfrwt>
<pdfrwt beam="2">  1       -2 0.13049720E+00 0.32325122E+04</pdfrwt>
<totfact> 0.55959543E-01</totfact>
</mgrwt>
</event>
<event>
 6    1  0.2436515E-005  0.8442238E+03  0.7818608E-02  0.9498123E-01
          2   -1    0    0  501    0  0.00000000000E+00  0.00000000000E+00  0.77190608960E+03  0.77190608960E+03  0.00000000000E+00 0.  1.
         -2   -1    0    0    0  501 -0.00000000000E+00 -0.00000000000E+00 -0.23082918328E+03  0.23082918328E+03  0.00000000000E+00 0. -1.
         23    2    1    2    0    0 -0.90693899319E+02 -0.12099763312E+03  0.73552977254E+03  0.75640677722E+03  0.91001954608E+02 0.  0.
         11    1    3    3    0    0 -0.63314499676E+02 -0.17771811044E+02  0.36134608545E+03  0.36728130446E+03  0.00000000000E+00 0.  1.
        -11    1    3    3    0    0 -0.27379399643E+02 -0.10322582207E+03  0.37418368709E+03  0.38912547276E+03  0.00000000000E+00 0. -1.
         22    1    1    2    0    0  0.90693899319E+02  0.12099763312E+03 -0.19445286621E+03  0.24632849566E+03  0.00000000000E+00 0. -1.
<mgrwt>
<rscale>  0 0.84422379E+03</rscale>
<asrwt>0</asrwt>
<pdfrwt beam="1">  1        2 0.11875478E+00 0.84422379E+03</pdfrwt>
<pdfrwt beam="2">  1       -2 0.35512182E-01 0.84422379E+03</pdfrwt>
<totfact> 0.27009708E+02</totfact>
</mgrwt>
</event>
<event>
 6    1  0.2436515E-005  0.2024920E+04  0.7818608E-02  0.8595058E-01
          2   -1    0    0  501    0  0.00000000000E+00  0.00000000000E+00  0.13956118240E+04  0.13956118240E+04  0.00000000000E+00 0.  1.
         -2   -1    0    0    0  501 -0.00000000000E+00 -0.00000000000E+00 -0.73449850366E+03  0.73449850366E+03  0.00000000000E+00 0. -1.
         23    2    1    2    0    0 -0.83436109748E+03 -0.28234437443E+03 -0.18946928241E+03  0.90562367978E+03  0.91536078376E+02 0.  0.
         13    1    3    3    0    0 -0.26282026937E+03 -0.62541820649E+02 -0.23492059857E+02  0.27117863153E+03  0.00000000000E+00 0. -1.
        -13    1    3    3    0    0 -0.57154082811E+03 -0.21980255379E+03 -0.16597722255E+03  0.63444504825E+03  0.00000000000E+00 0.  1.
         22    1    1    2    0    0  0.83436109748E+03  0.28234437443E+03  0.85058260279E+03  0.12244866479E+04  0.00000000000E+00 0.  1.
<mgrwt>
<rscale>  0 0.20249196E+04</rscale>
<asrwt>0</asrwt>
<pdfrwt beam="1">  1        2 0.21470951E+00 0.20249196E+04</pdfrwt>
<pdfrwt beam="2">  1       -2 0.11299977E+00 0.20249196E+04</pdfrwt>
<totfact> 0.83067526E+00</totfact>
</mgrwt>
</event>
<event>
 6    1  0.2436515E-005  0.2690135E+04  0.7818608E-02  0.8338213E-01
         -2   -1    0    0    0  501 -0.00000000000E+00  0.00000000000E+00  0.78371137820E+03  0.78371137820E+03  0.00000000000E+00 0. -1.
          2   -1    0    0  501    0  0.00000000000E+00 -0.00000000000E+00 -0.23085112820E+04  0.23085112820E+04  0.00000000000E+00 0.  1.
         23    2    1    2    0    0  0.26741197682E+03 -0.13141091530E+04 -0.85597757242E+03  0.15936515600E+04  0.92928245594E+02 0.  0.
         11    1    3    3    0    0  0.91972998631E+02 -0.41728158535E+03 -0.32413767801E+03  0.53632843320E+03  0.00000000000E+00 0. -1.
        -11    1    3    3    0    0  0.17543897819E+03 -0.89682756768E+03 -0.53183989440E+03  0.10573231268E+04  0.00000000000E+00 0.  1.
         22    1    1    2    0    0 -0.26741197682E+03  0.13141091530E+04 -0.66882233143E+03  0.14985711002E+04  0.00000000000E+00 0.  1.
<mgrwt>
<rscale>  0 0.26901350E+04</rscale>
<asrwt>0</asrwt>
<pdfrwt beam="1">  1        2 0.35515558E+00 0.26901350E+04</pdfrwt>
<pdfrwt beam="2">  1       -2 0.12057098E+00 0.26901350E+04</pdfrwt>
<totfact> 0.20654232E+00</totfact>
</mgrwt>
</event>
<event>
 6    1  0.2436515E-005  0.1386453E+04  0.7818608E-02  0.8963683E-01
          1   -1    0    0  501    0  0.00000000000E+00  0.00000000000E+00  0.69325316209E+03  0.69325316209E+03  0.00000000000E+00 0.  1.
         -1   -1    0    0    0  501 -0.00000000000E+00 -0.00000000000E+00 -0.69320011813E+03  0.69320011813E+03  0.00000000000E+00 0. -1.
         23    2    1    2    0    0 -0.22832980092E+03  0.39551174573E+03  0.51761443513E+03  0.69621141491E+03  0.90672993750E+02 0.  0.
         13    1    3    3    0    0 -0.96772092650E+02  0.11739845363E+03  0.12180771482E+03  0.19489575219E+03  0.00000000000E+00 0. -1.
        -13    1    3    3    0    0 -0.13155770827E+03  0.27811329210E+03  0.39580672031E+03  0.50131566272E+03  0.00000000000E+00 0.  1.
         22    1    1    2    0    0  0.22832980092E+03 -0.39551174573E+03 -0.51756139117E+03  0.69024186531E+03  0.00000000000E+00 0. -1.
<mgrwt>
<rscale>  0 0.13864533E+04</rscale>
<asrwt>0</asrwt>
<pdfrwt beam="1">  1        1 0.10665433E+00 0.13864533E+04</pdfrwt>
<pdfrwt beam="2">  1       -1 0.10664617E+00 0.13864533E+04</pdfrwt>
<totfact> 0.22164780E+01</totfact>
</mgrwt>
</event>
<event>
 6    1  0.2436515E-005  0.2091164E+04  0.7818608E-02  0.8565145E-01
         -2   -1    0    0    0  501 -0.00000000000E+00  0.00000000000E+00  0.77133520494E+03  0.77133520494E+03  0.00000000000E+00 0. -1.
          2   -1    0    0  501    0  0.00000000000E+00 -0.00000000000E+00 -0.14173374038E+04  0.14173374038E+04  0.00000000000E+00 0.  1.
         23    2    1    2    0    0 -0.15819214742E+03 -0.75657034152E+03  0.41094253261E+03  0.87926220610E+03  0.82491361941E+02 0.  0.
         11    1    3    3    0    0 -0.12590989269E+03 -0.56201642441E+03  0.26538365760E+03  0.63414844327E+03  0.00000000000E+00 0. -1.
        -11    1    3    3    0    0 -0.32282254735E+02 -0.19455391712E+03  0.14555887501E+03  0.24511376283E+03  0.00000000000E+00 0.  1.
         22    1    1    2    0    0  0.15819214742E+03  0.75657034152E+03 -0.10569447315E+04  0.13094104027E+04  0.00000000000E+00 0.  1.
<mgrwt>
<rscale>  0 0.20911645E+04</rscale>
<asrwt>0</asrwt>
<pdfrwt beam="1">  1        2 0.21805191E+00 0.20911645E+04</pdfrwt>
<pdfrwt beam="2">  1       -2 0.11866695E+00 0.20911645E+04</pdfrwt>
<totfact> 0.71223431E+00</totfact>
</mgrwt>
</event>
<event>
 6    1  0.2436515E-005  0.1444712E+04  0.7818608E-02  0.8922074E-01
         -2   -1    0    0    0  501 -0.00000000000E+00  0.00000000000E+00  0.74072262512E+03  0.74072262512E+03  0.00000000000E+00 0. -1.
          2   -1    0    0  501    0  0.00000000000E+00 -0.00000000000E+00 -0.70444516975E+03  0.70444516975E+03  0.00000000000E+00 0.  1.
         23    2    1    2    0    0  0.91506519495E+02 -0.35229675624E+03  0.64012674733E+03  0.74010012794E+03  0.74158608120E+02 0.  0.
         11    1    3    3    0    0  0.10065999833E+03 -0.26809217802E+03  0.50800789337E+03  0.58316195941E+03  0.00000000000E+00 0.  1.
        -11    1    3    3    0    0 -0.91534788384E+01 -0.84204578222E+02  0.13211885396E+03  0.15693816852E+03  0.00000000000E+00 0. -1.
         22    1    1    2    0    0 -0.91506519495E+02  0.35229675624E+03 -0.60384929196E+03  0.70506766694E+03  0.00000000000E+00 0.  1.
<mgrwt>
<rscale>  0 0.14447124E+04</rscale>
<asrwt>0</asrwt>
<pdfrwt beam="1">  1        2 0.10837618E+00 0.14447124E+04</pdfrwt>
<pdfrwt beam="2">  1       -2 0.11395733E+00 0.14447124E+04</pdfrwt>
<totfact> 0.23773534E+01</totfact>
</mgrwt>
</event>
<event>
 6    1  0.2436515E-005  0.2341928E+04  0.7818608E-02  0.8461570E-01
         -2   -1    0    0    0  501 -0.00000000000E+00  0.00000000000E+00  0.90342831719E+03  0.90342831719E+03  0.00000000000E+00 0. -1.
          2   -1    0    0  501    0  0.00000000000E+00 -0.00000000000E+00 -0.15177266441E+04  0.15177266441E+04  0.00000000000E+00 0.  1.
         23    2    1    2    0    0  0.54582158897E+03 -0.22427051786E+03 -0.13511272730E+04  0.14771552960E+04  0.90688413567E+02 0.  0.
         11    1    3    3    0    0  0.31220479820E+03 -0.79850676225E+02 -0.71456215997E+03  0.78386672781E+03  0.00000000000E+00 0. -1.
        -11    1    3    3    0    0  0.23361679077E+03 -0.14441984163E+03 -0.63656511307E+03  0.69328856818E+03  0.00000000000E+00 0.  1.
         22    1    1    2    0    0 -0.54582158897E+03  0.22427051786E+03  0.73682894615E+03  0.94399966528E+03  0.00000000000E+00 0. -1.
<mgrwt>
<rscale>  0 0.23419285E+04</rscale>
<asrwt>0</asrwt>
<pdfrwt beam="1">  1        2 0.23349641E+00 0.23419285E+04</pdfrwt>
<pdfrwt beam="2">  1       -2 0.13898897E+00 0.23419285E+04</pdfrwt>
<totfact> 0.41026175E+00</totfact>
</mgrwt>
</event>
<event>
 6    1  0.2436515E-005  0.1610028E+04  0.7818608E-02  0.8814411E-01
         -1   -1    0    0    0  501 -0.00000000000E+00  0.00000000000E+00  0.14129208649E+04  0.14129208649E+04  0.00000000000E+00 0. -1.
          1   -1    0    0  501    0  0.00000000000E+00 -0.00000000000E+00 -0.45865786990E+03  0.45865786990E+03  0.00000000000E+00 0.  1.
         23    2    1    2    0    0  0.10558836810E+03  0.48904188347E+03  0.12079278216E+04  0.13106360359E+04  0.91467639332E+02 0.  0.
         11    1    3    3    0    0  0.56515610139E+02  0.30526050464E+03  0.63246935663E+03  0.70455338830E+03  0.00000000000E+00 0.  1.
        -11    1    3    3    0    0  0.49072757957E+02  0.18378137883E+03  0.57545846497E+03  0.60608264757E+03  0.00000000000E+00 0. -1.
         22    1    1    2    0    0 -0.10558836810E+03 -0.48904188347E+03 -0.25366482658E+03  0.56094269895E+03  0.00000000000E+00 0.  1.
<mgrwt>
<rscale>  0 0.16100277E+04</rscale>
<asrwt>0</asrwt>
<pdfrwt beam="1">  1        1 0.70562750E-01 0.16100277E+04</pdfrwt>
<pdfrwt beam="2">  1       -1 0.21737244E+00 0.16100277E+04</pdfrwt>
<totfact> 0.54821253E+00</totfact>
</mgrwt>
</event>
<event>
 6    1  0.2436515E-005  0.6840415E+03  0.7818608E-02  0.9744919E-01
         -1   -1    0    0    0  501 -0.00000000000E+00  0.00000000000E+00  0.99273160184E+03  0.99273160184E+03  0.00000000000E+00 0. -1.
          1   -1    0    0  501    0  0.00000000000E+00 -0.00000000000E+00 -0.11783467506E+03  0.11783467506E+03  0.00000000000E+00 0.  1.
         23    2    1    2    0    0  0.12794438144E+03  0.21556444506E+03  0.80219900318E+03  0.84956286157E+03  0.12408070094E+03 0.  0.
         13    1    3    3    0    0  0.26558563998E+02  0.10614650214E+03  0.50866815525E+03  0.52030349740E+03  0.00000000000E+00 0. -1.
        -13    1    3    3    0    0  0.10138581744E+03  0.10941794292E+03  0.29353084793E+03  0.32925936417E+03  0.00000000000E+00 0.  1.
         22    1    1    2    0    0 -0.12794438144E+03 -0.21556444506E+03  0.72697923605E+02  0.26100341532E+03  0.00000000000E+00 0.  1.
<mgrwt>
<rscale>  0 0.68404154E+03</rscale>
<asrwt>0</asrwt>
<pdfrwt beam="1">  1        1 0.18128412E-01 0.68404154E+03</pdfrwt>
<pdfrwt beam="2">  1       -1 0.15272793E+00 0.68404154E+03</pdfrwt>
<totfact> 0.10141077E+02</totfact>
</mgrwt>
</event>
<event>
 6    1  0.2436515E-005  0.3536691E+04  0.7818608E-02  0.8105149E-01
          2   -1    0    0  501    0  0.00000000000E+00  0.00000000000E+00  0.38126444515E+04  0.38126444515E+04  0.00000000000E+00 0.  1.
         -2   -1    0    0    0  501 -0.00000000000E+00 -0.00000000000E+00 -0.82017763230E+03  0.82017763230E+03  0.00000000000E+00 0. -1.
         23    2    1    2    0    0 -0.77634203029E+03 -0.15738703903E+04  0.17693645885E+04  0.24937208659E+04  0.90651842436E+02 0.  0.
         11    1    3    3    0    0 -0.56276282704E+03 -0.11078929045E+04  0.13065033837E+04  0.18030750897E+04  0.00000000000E+00 0. -1.
        -11    1    3    3    0    0 -0.21357920324E+03 -0.46597748579E+03  0.46286120484E+03  0.69064577626E+03  0.00000000000E+00 0.  1.
         22    1    1    2    0    0  0.77634203029E+03  0.15738703903E+04  0.12231022307E+04  0.21391012178E+04  0.00000000000E+00 0.  1.
<mgrwt>
<rscale>  0 0.35366909E+04</rscale>
<asrwt>0</asrwt>
<pdfrwt beam="1">  1        2 0.58656067E+00 0.35366909E+04</pdfrwt>
<pdfrwt beam="2">  1       -2 0.12618118E+00 0.35366909E+04</pdfrwt>
<totfact> 0.18384907E-01</totfact>
</mgrwt>
</event>
<event>
 6    1  0.2436515E-005  0.2453053E+04  0.7818608E-02  0.8419904E-01
          2   -1    0    0  501    0  0.00000000000E+00  0.00000000000E+00  0.20483610929E+04  0.20483610929E+04  0.00000000000E+00 0.  1.
         -2   -1    0    0    0  501 -0.00000000000E+00 -0.00000000000E+00 -0.73442511963E+03  0.73442511963E+03  0.00000000000E+00 0. -1.
         23    2    1    2    0    0  0.78149747130E+03 -0.88825728494E+03  0.29889024631E+03  0.12239221615E+04  0.94396907283E+02 0.  0.
         13    1    3    3    0    0  0.31181634648E+03 -0.40968064411E+03  0.16004332532E+03  0.53914889415E+03  0.00000000000E+00 0. -1.
        -13    1    3    3    0    0  0.46968112482E+03 -0.47857664084E+03  0.13884692098E+03  0.68477326732E+03  0.00000000000E+00 0.  1.
         22    1    1    2    0    0 -0.78149747130E+03  0.88825728494E+03  0.10150457270E+04  0.15588640511E+04  0.00000000000E+00 0. -1.
<mgrwt>
<rscale>  0 0.24530535E+04</rscale>
<asrwt>0</asrwt>
<pdfrwt beam="1">  1        2 0.31513247E+00 0.24530535E+04</pdfrwt>
<pdfrwt beam="2">  1       -2 0.11298848E+00 0.24530535E+04</pdfrwt>
<totfact> 0.34606993E+00</totfact>
</mgrwt>
</event>
<event>
 6    1  0.2436515E-005  0.4215621E+04  0.7818608E-02  0.7962407E-01
          2   -1    0    0  501    0  0.00000000000E+00  0.00000000000E+00  0.28672722018E+04  0.28672722018E+04  0.00000000000E+00 0.  1.
         -2   -1    0    0    0  501 -0.00000000000E+00 -0.00000000000E+00 -0.15495094400E+04  0.15495094400E+04  0.00000000000E+00 0. -1.
         23    2    1    2    0    0  0.19915243995E+04  0.68443698082E+03  0.72800040063E+03  0.22299018881E+04  0.88625238049E+02 0.  0.
         13    1    3    3    0    0  0.14789702677E+04  0.47306126945E+03  0.51487732677E+03  0.16359213548E+04  0.00000000000E+00 0.  1.
        -13    1    3    3    0    0  0.51255413181E+03  0.21137571137E+03  0.21312307386E+03  0.59398053335E+03  0.00000000000E+00 0. -1.
         22    1    1    2    0    0 -0.19915243995E+04 -0.68443698082E+03  0.58976236122E+03  0.21868797537E+04  0.00000000000E+00 0.  1.
<mgrwt>
<rscale>  0 0.42156211E+04</rscale>
<asrwt>0</asrwt>
<pdfrwt beam="1">  1        2 0.44111880E+00 0.42156211E+04</pdfrwt>
<pdfrwt beam="2">  1       -2 0.23838607E+00 0.42156211E+04</pdfrwt>
<totfact> 0.12362108E-01</totfact>
</mgrwt>
</event>
<event>
 6    1  0.2436515E-005  0.3983069E+04  0.7818608E-02  0.8007971E-01
         -2   -1    0    0    0  501 -0.00000000000E+00  0.00000000000E+00  0.16115017985E+04  0.16115017985E+04  0.00000000000E+00 0. -1.
          2   -1    0    0  501    0  0.00000000000E+00 -0.00000000000E+00 -0.24611887334E+04  0.24611887334E+04  0.00000000000E+00 0.  1.
         23    2    1    2    0    0  0.11700786429E+04  0.12794195916E+03 -0.20663751047E+04  0.23798280809E+04  0.90677704436E+02 0.  0.
         11    1    3    3    0    0  0.61044452412E+03  0.28209429433E+02 -0.11192429151E+04  0.12752031179E+04  0.00000000000E+00 0.  1.
        -11    1    3    3    0    0  0.55963411882E+03  0.99732529726E+02 -0.94713218956E+03  0.11046249630E+04  0.00000000000E+00 0. -1.
         22    1    1    2    0    0 -0.11700786429E+04 -0.12794195916E+03  0.12166881698E+04  0.16928624510E+04  0.00000000000E+00 0. -1.
<mgrwt>
<rscale>  0 0.39830692E+04</rscale>
<asrwt>0</asrwt>
<pdfrwt beam="1">  1        2 0.37864442E+00 0.39830692E+04</pdfrwt>
<pdfrwt beam="2">  1       -2 0.24792336E+00 0.39830692E+04</pdfrwt>
<totfact> 0.19166367E-01</totfact>
</mgrwt>
</event>
<event>
 6    1  0.2436515E-005  0.7629066E+03  0.7818608E-02  0.9615317E-01
         -2   -1    0    0    0  501 -0.00000000000E+00  0.00000000000E+00  0.60299028110E+02  0.60299028110E+02  0.00000000000E+00 0. -1.
          2   -1    0    0  501    0  0.00000000000E+00 -0.00000000000E+00 -0.24130837647E+04  0.24130837647E+04  0.00000000000E+00 0.  1.
         23    2    1    2    0    0  0.25978876027E+03  0.25577110164E+03 -0.89509340271E+03  0.97079399967E+03  0.91322143116E+02 0.  0.
         13    1    3    3    0    0  0.30480195515E+02  0.82044212541E+02 -0.23319557144E+03  0.24907924375E+03  0.00000000000E+00 0.  1.
        -13    1    3    3    0    0  0.22930856476E+03  0.17372688910E+03 -0.66189783128E+03  0.72171475592E+03  0.00000000000E+00 0. -1.
         22    1    1    2    0    0 -0.25978876027E+03 -0.25577110164E+03 -0.14576913338E+04  0.15025887931E+04  0.00000000000E+00 0.  1.
<mgrwt>
<rscale>  0 0.76290656E+03</rscale>
<asrwt>0</asrwt>
<pdfrwt beam="1">  1        2 0.37124363E+00 0.76290656E+03</pdfrwt>
<pdfrwt beam="2">  1       -2 0.92767743E-02 0.76290656E+03</pdfrwt>
<totfact> 0.31326591E+02</totfact>
</mgrwt>
</event>
<event>
 6    1  0.2436515E-005  0.1647793E+04  0.7818608E-02  0.8791713E-01
         -2   -1    0    0    0  501 -0.00000000000E+00  0.00000000000E+00  0.77538405923E+03  0.77538405923E+03  0.00000000000E+00 0. -1.
          2   -1    0    0  501    0  0.00000000000E+00 -0.00000000000E+00 -0.87544429474E+03  0.87544429474E+03  0.00000000000E+00 0.  1.
         23    2    1    2    0    0 -0.44303325871E+03  0.45467070664E+03  0.47198961657E+03  0.79628464353E+03  0.91055563072E+02 0.  0.
         13    1    3    3    0    0 -0.42423442913E+03  0.45525137285E+03  0.45430604066E+03  0.77046910510E+03  0.00000000000E+00 0.  1.
        -13    1    3    3    0    0 -0.18798829583E+02 -0.58066621523E+00  0.17683575911E+02  0.25815538421E+02  0.00000000000E+00 0. -1.
         22    1    1    2    0    0  0.44303325871E+03 -0.45467070664E+03 -0.57204985208E+03  0.85454371044E+03  0.00000000000E+00 0.  1.
<mgrwt>
<rscale>  0 0.16477931E+04</rscale>
<asrwt>0</asrwt>
<pdfrwt beam="1">  1        2 0.13468374E+00 0.16477931E+04</pdfrwt>
<pdfrwt beam="2">  1       -2 0.11928985E+00 0.16477931E+04</pdfrwt>
<totfact> 0.15690843E+01</totfact>
</mgrwt>
</event>
<event>
 6    1  0.2436515E-005  0.3688277E+03  0.7818608E-02  0.1055142E+00
         -2   -1    0    0    0  501 -0.00000000000E+00  0.00000000000E+00  0.36687472464E+02  0.36687472464E+02  0.00000000000E+00 0.  1.
          2   -1    0    0  501    0  0.00000000000E+00 -0.00000000000E+00 -0.92697782829E+03  0.92697782829E+03  0.00000000000E+00 0. -1.
         23    2    1    2    0    0 -0.50768787563E+02 -0.12897182934E+03 -0.20324066910E+03  0.26277410050E+03  0.92370210376E+02 0.  0.
         11    1    3    3    0    0 -0.37212950476E+02 -0.88943835678E+02 -0.60303653462E+02  0.11372044763E+03  0.00000000000E+00 0.  1.
        -11    1    3    3    0    0 -0.13555837087E+02 -0.40027993667E+02 -0.14293701564E+03  0.14905365287E+03  0.00000000000E+00 0. -1.
         22    1    1    2    0    0  0.50768787563E+02  0.12897182934E+03 -0.68704968673E+03  0.70089120025E+03  0.00000000000E+00 0. -1.
<mgrwt>
<rscale>  0 0.36882773E+03</rscale>
<asrwt>0</asrwt>
<pdfrwt beam="1">  1        2 0.14261198E+00 0.36882773E+03</pdfrwt>
<pdfrwt beam="2">  1       -2 0.56442263E-02 0.36882773E+03</pdfrwt>
<totfact> 0.47675283E+03</totfact>
</mgrwt>
</event>
<event>
 6    1  0.2436515E-005  0.1394743E+04  0.7818608E-02  0.8957633E-01
         -2   -1    0    0    0  501 -0.00000000000E+00  0.00000000000E+00  0.44130447915E+03  0.44130447915E+03  0.00000000000E+00 0. -1.
          2   -1    0    0  501    0  0.00000000000E+00 -0.00000000000E+00 -0.11020209392E+04  0.11020209392E+04  0.00000000000E+00 0.  1.
         23    2    1    2    0    0  0.33577199345E+03  0.10933710870E+03 -0.99325542019E+03  0.10582691381E+04  0.93165465820E+02 0.  0.
         11    1    3    3    0    0  0.24297946385E+03  0.11841932224E+03 -0.78054377603E+03  0.82602103002E+03  0.00000000000E+00 0.  1.
        -11    1    3    3    0    0  0.92792529598E+02 -0.90822135436E+01 -0.21271164416E+03  0.23224810809E+03  0.00000000000E+00 0. -1.
         22    1    1    2    0    0 -0.33577199345E+03 -0.10933710870E+03  0.33253896018E+03  0.48505628020E+03  0.00000000000E+00 0. -1.
<mgrwt>
<rscale>  0 0.13947427E+04</rscale>
<asrwt>0</asrwt>
<pdfrwt beam="1">  1        2 0.16954168E+00 0.13947427E+04</pdfrwt>
<pdfrwt beam="2">  1       -2 0.67892997E-01 0.13947427E+04</pdfrwt>
<totfact> 0.42033619E+01</totfact>
</mgrwt>
</event>
<event>
 6    1  0.2436515E-005  0.1430493E+04  0.7818608E-02  0.8932037E-01
         -2   -1    0    0    0  501 -0.00000000000E+00  0.00000000000E+00  0.33286285526E+03  0.33286285526E+03  0.00000000000E+00 0. -1.
          2   -1    0    0  501    0  0.00000000000E+00 -0.00000000000E+00 -0.15369019959E+04  0.15369019959E+04  0.00000000000E+00 0.  1.
         23    2    1    2    0    0 -0.37590246716E+03 -0.60233433510E+03 -0.52862004672E+03  0.88981573589E+03  0.90683923553E+02 0.  0.
         11    1    3    3    0    0 -0.16933481609E+03 -0.33201705628E+03 -0.31595607391E+03  0.48860807018E+03  0.00000000000E+00 0.  1.
        -11    1    3    3    0    0 -0.20656765107E+03 -0.27031727883E+03 -0.21266397280E+03  0.40120766572E+03  0.00000000000E+00 0. -1.
         22    1    1    2    0    0  0.37590246716E+03  0.60233433510E+03 -0.67541909389E+03  0.97994911524E+03  0.00000000000E+00 0. -1.
<mgrwt>
<rscale>  0 0.14304930E+04</rscale>
<asrwt>0</asrwt>
<pdfrwt beam="1">  1        2 0.23644646E+00 0.14304930E+04</pdfrwt>
<pdfrwt beam="2">  1       -2 0.51209671E-01 0.14304930E+04</pdfrwt>
<totfact> 0.42334779E+01</totfact>
</mgrwt>
</event>
<event>
 6    1  0.2568427E-005  0.4419125E+04  0.7818608E-02  0.7924950E-01
         -2   -1    0    0    0  501 -0.00000000000E+00  0.00000000000E+00  0.18610981267E+04  0.18610981267E+04  0.00000000000E+00 0. -1.
          2   -1    0    0  501    0  0.00000000000E+00 -0.00000000000E+00 -0.26232724492E+04  0.26232724492E+04  0.00000000000E+00 0.  1.
         23    2    1    2    0    0 -0.46839184337E+03 -0.20362771417E+04 -0.11074682140E+04  0.23665784736E+04  0.91609552020E+02 0.  0.
         13    1    3    3    0    0 -0.11317152158E+03 -0.65942742028E+03 -0.33133878119E+03  0.74661750839E+03  0.00000000000E+00 0.  1.
        -13    1    3    3    0    0 -0.35522032179E+03 -0.13768497215E+04 -0.77612943279E+03  0.16199609653E+04  0.00000000000E+00 0. -1.
         22    1    1    2    0    0  0.46839184337E+03  0.20362771417E+04  0.34529389145E+03  0.21177921023E+04  0.00000000000E+00 0. -1.
<mgrwt>
<rscale>  0 0.44191255E+04</rscale>
<asrwt>0</asrwt>
<pdfrwt beam="1">  1        2 0.40358038E+00 0.44191255E+04</pdfrwt>
<pdfrwt beam="2">  1       -2 0.28632279E+00 0.44191255E+04</pdfrwt>
<totfact> 0.86650698E-02</totfact>
</mgrwt>
</event>
<event>
 6    1  0.2436515E-005  0.1843201E+04  0.7818608E-02  0.8683657E-01
         -2   -1    0    0    0  501 -0.00000000000E+00  0.00000000000E+00  0.62510291931E+03  0.62510291931E+03  0.00000000000E+00 0. -1.
          2   -1    0    0  501    0  0.00000000000E+00 -0.00000000000E+00 -0.13587318151E+04  0.13587318151E+04  0.00000000000E+00 0.  1.
         23    2    1    2    0    0  0.69472549222E+03 -0.14782117553E+02  0.28014947616E+03  0.75476654752E+03  0.91251256011E+02 0.  0.
         11    1    3    3    0    0  0.38748287838E+03  0.22583496115E+02  0.19152339991E+03  0.43282121950E+03  0.00000000000E+00 0.  1.
        -11    1    3    3    0    0  0.30724261384E+03 -0.37365613669E+02  0.88626076250E+02  0.32194532802E+03  0.00000000000E+00 0. -1.
         22    1    1    2    0    0 -0.69472549222E+03  0.14782117553E+02 -0.10137783719E+04  0.12290681868E+04  0.00000000000E+00 0.  1.
<mgrwt>
<rscale>  0 0.18432007E+04</rscale>
<asrwt>0</asrwt>
<pdfrwt beam="1">  1        2 0.20903566E+00 0.18432007E+04</pdfrwt>
<pdfrwt beam="2">  1       -2 0.96169680E-01 0.18432007E+04</pdfrwt>
<totfact> 0.13024153E+01</totfact>
</mgrwt>
</event>
<event>
 6    1  0.2436515E-005  0.1502025E+04  0.7818608E-02  0.8883108E-01
          2   -1    0    0  501    0  0.00000000000E+00  0.00000000000E+00  0.74802734463E+03  0.74802734463E+03  0.00000000000E+00 0.  1.
         -2   -1    0    0    0  501 -0.00000000000E+00 -0.00000000000E+00 -0.75400918224E+03  0.75400918224E+03  0.00000000000E+00 0. -1.
         23    2    1    2    0    0  0.67187073341E+03 -0.29827707659E+03  0.13527445492E+03  0.75348269646E+03  0.95170893033E+02 0.  0.
         11    1    3    3    0    0  0.34117126901E+03 -0.17860735644E+03  0.29448389978E+02  0.38621966579E+03  0.00000000000E+00 0.  1.
        -11    1    3    3    0    0  0.33069946440E+03 -0.11966972015E+03  0.10582606494E+03  0.36726303067E+03  0.00000000000E+00 0. -1.
         22    1    1    2    0    0 -0.67187073341E+03  0.29827707659E+03 -0.14125629253E+03  0.74855383040E+03  0.00000000000E+00 0.  1.
<mgrwt>
<rscale>  0 0.15020246E+04</rscale>
<asrwt>0</asrwt>
<pdfrwt beam="1">  1        2 0.11508113E+00 0.15020246E+04</pdfrwt>
<pdfrwt beam="2">  1       -2 0.11600141E+00 0.15020246E+04</pdfrwt>
<totfact> 0.20983924E+01</totfact>
</mgrwt>
</event>
<event>
 6    1  0.2436515E-005  0.2274053E+04  0.7818608E-02  0.8488222E-01
          2   -1    0    0  501    0  0.00000000000E+00  0.00000000000E+00  0.21042099712E+04  0.21042099712E+04  0.00000000000E+00 0.  1.
         -2   -1    0    0    0  501 -0.00000000000E+00 -0.00000000000E+00 -0.61440139003E+03  0.61440139003E+03  0.00000000000E+00 0. -1.
         23    2    1    2    0    0  0.29531234997E+03  0.10226989108E+04  0.12181079554E+04  0.16200014777E+04  0.86575691227E+02 0.  0.
         13    1    3    3    0    0  0.13366567794E+03  0.37409903038E+03  0.40339328195E+03  0.56616493879E+03  0.00000000000E+00 0.  1.
        -13    1    3    3    0    0  0.16164667203E+03  0.64859988044E+03  0.81471467348E+03  0.10538365389E+04  0.00000000000E+00 0. -1.
         22    1    1    2    0    0 -0.29531234997E+03 -0.10226989108E+04  0.27170062573E+03  0.10986098836E+04  0.00000000000E+00 0. -1.
<mgrwt>
<rscale>  0 0.22740532E+04</rscale>
<asrwt>0</asrwt>
<pdfrwt beam="1">  1        2 0.32372461E+00 0.22740532E+04</pdfrwt>
<pdfrwt beam="2">  1       -2 0.94523292E-01 0.22740532E+04</pdfrwt>
<totfact> 0.50065328E+00</totfact>
</mgrwt>
</event>
<event>
 6    1  0.2436515E-005  0.4489451E+04  0.7818608E-02  0.7912486E-01
          2   -1    0    0  501    0  0.00000000000E+00  0.00000000000E+00  0.37845418439E+04  0.37845418439E+04  0.00000000000E+00 0.  1.
         -2   -1    0    0    0  501 -0.00000000000E+00 -0.00000000000E+00 -0.13314141309E+04  0.13314141309E+04  0.00000000000E+00 0. -1.
         23    2    1    2    0    0  0.18424999142E+04 -0.35566470263E+03  0.26290030376E+04  0.32312184747E+04  0.88388601060E+02 0.  0.
         13    1    3    3    0    0  0.16883300507E+04 -0.30949009276E+03  0.23699353726E+04  0.29262324152E+04  0.00000000000E+00 0. -1.
        -13    1    3    3    0    0  0.15416986353E+03 -0.46174609865E+02  0.25906766495E+03  0.30498605942E+03  0.00000000000E+00 0.  1.
         22    1    1    2    0    0 -0.18424999142E+04  0.35566470263E+03 -0.17587532459E+03  0.18847375001E+04  0.00000000000E+00 0. -1.
<mgrwt>
<rscale>  0 0.44894510E+04</rscale>
<asrwt>0</asrwt>
<pdfrwt beam="1">  1        2 0.58223720E+00 0.44894510E+04</pdfrwt>
<pdfrwt beam="2">  1       -2 0.20483294E+00 0.44894510E+04</pdfrwt>
<totfact> 0.47176057E-02</totfact>
</mgrwt>
</event>
<event>
 6    1  0.2436515E-005  0.2101526E+04  0.7818608E-02  0.8560571E-01
          2   -1    0    0  501    0  0.00000000000E+00  0.00000000000E+00  0.30119104523E+04  0.30119104523E+04  0.00000000000E+00 0.  1.
         -2   -1    0    0    0  501 -0.00000000000E+00 -0.00000000000E+00 -0.36657907867E+03  0.36657907867E+03  0.00000000000E+00 0. -1.
         23    2    1    2    0    0  0.66316106265E+03 -0.70143502308E+03  0.66631460571E+03  0.11766037360E+04  0.92884396152E+02 0.  0.
         11    1    3    3    0    0  0.44793368986E+03 -0.52251478332E+03  0.44224014010E+03  0.81807250951E+03  0.00000000000E+00 0.  1.
        -11    1    3    3    0    0  0.21522737279E+03 -0.17892023976E+03  0.22407446561E+03  0.35853122644E+03  0.00000000000E+00 0. -1.
         22    1    1    2    0    0 -0.66316106265E+03  0.70143502308E+03  0.19790167680E+04  0.22018857951E+04  0.00000000000E+00 0.  1.
<mgrwt>
<rscale>  0 0.21015265E+04</rscale>
<asrwt>0</asrwt>
<pdfrwt beam="1">  1        2 0.46337082E+00 0.21015265E+04</pdfrwt>
<pdfrwt beam="2">  1       -2 0.56396783E-01 0.21015265E+04</pdfrwt>
<totfact> 0.46612563E+00</totfact>
</mgrwt>
</event>
<event>
 6    1  0.2436515E-005  0.3422917E+04  0.7818608E-02  0.8132305E-01
          2   -1    0    0  501    0  0.00000000000E+00  0.00000000000E+00  0.82366812437E+03  0.82366812437E+03  0.00000000000E+00 0.  1.
         -2   -1    0    0    0  501 -0.00000000000E+00 -0.00000000000E+00 -0.35561526400E+04  0.35561526400E+04  0.00000000000E+00 0. -1.
         23    2    1    2    0    0  0.15937165348E+04  0.15038676760E+03 -0.59712093865E+03  0.17110521009E+04  0.92721645724E+02 0.  0.
         13    1    3    3    0    0  0.99512273801E+03  0.71844651757E+02 -0.32998806904E+03  0.10508677573E+04  0.00000000000E+00 0. -1.
        -13    1    3    3    0    0  0.59859379678E+03  0.78542115844E+02 -0.26713286961E+03  0.66018434360E+03  0.00000000000E+00 0.  1.
         22    1    1    2    0    0 -0.15937165348E+04 -0.15038676760E+03 -0.21353635770E+04  0.26687686635E+04  0.00000000000E+00 0.  1.
<mgrwt>
<rscale>  0 0.34229166E+04</rscale>
<asrwt>0</asrwt>
<pdfrwt beam="1">  1        2 0.12671817E+00 0.34229166E+04</pdfrwt>
<pdfrwt beam="2">  1       -2 0.54710041E+00 0.34229166E+04</pdfrwt>
<totfact> 0.24107957E-02</totfact>
</mgrwt>
</event>
<event>
 6    1  0.2436515E-005  0.8911340E+03  0.7818608E-02  0.9436733E-01
          2   -1    0    0  501    0  0.00000000000E+00  0.00000000000E+00  0.92620894743E+03  0.92620894743E+03  0.00000000000E+00 0.  1.
         -2   -1    0    0    0  501 -0.00000000000E+00 -0.00000000000E+00 -0.21434683329E+03  0.21434683329E+03  0.00000000000E+00 0. -1.
         23    2    1    2    0    0  0.26214867008E+03  0.64083080086E+02  0.80544367892E+03  0.85492301711E+03  0.96567483622E+02 0.  0.
         13    1    3    3    0    0  0.41948144878E+02  0.19150786979E+02  0.56184701602E+02  0.72685075461E+02  0.00000000000E+00 0.  1.
        -13    1    3    3    0    0  0.22020052520E+03  0.44932293108E+02  0.74925897732E+03  0.78223794165E+03  0.00000000000E+00 0. -1.
         22    1    1    2    0    0 -0.26214867008E+03 -0.64083080086E+02 -0.93581564775E+02  0.28563276361E+03  0.00000000000E+00 0. -1.
<mgrwt>
<rscale>  0 0.89113401E+03</rscale>
<asrwt>0</asrwt>
<pdfrwt beam="1">  1        2 0.14249368E+00 0.89113401E+03</pdfrwt>
<pdfrwt beam="2">  1       -2 0.32976436E-01 0.89113401E+03</pdfrwt>
<totfact> 0.24204073E+02</totfact>
</mgrwt>
</event>
<event>
 6    1  0.2436515E-005  0.1216427E+04  0.7818608E-02  0.9098599E-01
          2   -1    0    0  501    0  0.00000000000E+00  0.00000000000E+00  0.12958737760E+04  0.12958737760E+04  0.00000000000E+00 0.  1.
         -2   -1    0    0    0  501 -0.00000000000E+00 -0.00000000000E+00 -0.28546252841E+03  0.28546252841E+03  0.00000000000E+00 0. -1.
         23    2    1    2    0    0  0.21017572914E+03 -0.43690370181E+03  0.97789536241E+03  0.10954186524E+04  0.92757762327E+02 0.  0.
         13    1    3    3    0    0  0.10699364445E+03 -0.20861230420E+03  0.37129582803E+03  0.43912108276E+03  0.00000000000E+00 0. -1.
        -13    1    3    3    0    0  0.10318208469E+03 -0.22829139760E+03  0.60659953439E+03  0.65629756966E+03  0.00000000000E+00 0.  1.
         22    1    1    2    0    0 -0.21017572914E+03  0.43690370181E+03  0.32515885226E+02  0.48591765204E+03  0.00000000000E+00 0. -1.
<mgrwt>
<rscale>  0 0.12164266E+04</rscale>
<asrwt>0</asrwt>
<pdfrwt beam="1">  1        2 0.19936519E+00 0.12164266E+04</pdfrwt>
<pdfrwt beam="2">  1       -2 0.43917313E-01 0.12164266E+04</pdfrwt>
<totfact> 0.80523471E+01</totfact>
</mgrwt>
</event>
<event>
 6    1  0.2436515E-005  0.2571802E+04  0.7818608E-02  0.8377843E-01
         -2   -1    0    0    0  501 -0.00000000000E+00  0.00000000000E+00  0.10060188568E+04  0.10060188568E+04  0.00000000000E+00 0. -1.
          2   -1    0    0  501    0  0.00000000000E+00 -0.00000000000E+00 -0.16436482494E+04  0.16436482494E+04  0.00000000000E+00 0.  1.
         23    2    1    2    0    0  0.31024166935E+03 -0.41863346450E+03 -0.15285178705E+04  0.16175885476E+04  0.93391422902E+02 0.  0.
         11    1    3    3    0    0  0.13209694957E+03 -0.17703849587E+03 -0.79265293382E+03  0.82285533759E+03  0.00000000000E+00 0.  1.
        -11    1    3    3    0    0  0.17814471977E+03 -0.24159496863E+03 -0.73586493673E+03  0.79473321005E+03  0.00000000000E+00 0. -1.
         22    1    1    2    0    0 -0.31024166935E+03  0.41863346450E+03  0.89088847793E+03  0.10320785586E+04  0.00000000000E+00 0. -1.
<mgrwt>
<rscale>  0 0.25718018E+04</rscale>
<asrwt>0</asrwt>
<pdfrwt beam="1">  1        2 0.25286896E+00 0.25718018E+04</pdfrwt>
<pdfrwt beam="2">  1       -2 0.15477213E+00 0.25718018E+04</pdfrwt>
<totfact> 0.25766208E+00</totfact>
</mgrwt>
</event>
<event>
 6    1  0.2436515E-005  0.1992087E+04  0.7818608E-02  0.8610329E-01
         -2   -1    0    0    0  501 -0.00000000000E+00  0.00000000000E+00  0.62893283970E+03  0.62893283970E+03  0.00000000000E+00 0. -1.
          2   -1    0    0  501    0  0.00000000000E+00 -0.00000000000E+00 -0.15774378453E+04  0.15774378453E+04  0.00000000000E+00 0.  1.
         23    2    1    2    0    0 -0.91169268745E+03 -0.39199878525E+03 -0.41455625963E+03  0.10794510484E+04  0.92255457865E+02 0.  0.
         11    1    3    3    0    0 -0.42692519773E+03 -0.21360924042E+03 -0.23913462189E+03  0.53392827181E+03  0.00000000000E+00 0. -1.
        -11    1    3    3    0    0 -0.48476748971E+03 -0.17838954484E+03 -0.17542163774E+03  0.54552277659E+03  0.00000000000E+00 0.  1.
         22    1    1    2    0    0  0.91169268745E+03  0.39199878525E+03 -0.53394874592E+03  0.11269196366E+04  0.00000000000E+00 0. -1.
<mgrwt>
<rscale>  0 0.19920868E+04</rscale>
<asrwt>0</asrwt>
<pdfrwt beam="1">  1        2 0.24268274E+00 0.19920868E+04</pdfrwt>
<pdfrwt beam="2">  1       -2 0.96758899E-01 0.19920868E+04</pdfrwt>
<totfact> 0.95298858E+00</totfact>
</mgrwt>
</event>
<event>
 6    1  0.2436515E-005  0.2869692E+04  0.7818608E-02  0.8281953E-01
          2   -1    0    0  501    0  0.00000000000E+00  0.00000000000E+00  0.21098041143E+04  0.21098041143E+04  0.00000000000E+00 0.  1.
         -2   -1    0    0    0  501 -0.00000000000E+00 -0.00000000000E+00 -0.97581683738E+03  0.97581683738E+03  0.00000000000E+00 0. -1.
         23    2    1    2    0    0  0.13999598184E+04 -0.26737879331E+03  0.40391265390E+03  0.14842503302E+04  0.92058126461E+02 0.  0.
         13    1    3    3    0    0  0.48294848366E+03 -0.13155539853E+03  0.16342367166E+03  0.52654853262E+03  0.00000000000E+00 0.  1.
        -13    1    3    3    0    0  0.91701133470E+03 -0.13582339477E+03  0.24048898225E+03  0.95770179759E+03  0.00000000000E+00 0. -1.
         22    1    1    2    0    0 -0.13999598184E+04  0.26737879331E+03  0.73007462302E+03  0.16013706215E+04  0.00000000000E+00 0. -1.
<mgrwt>
<rscale>  0 0.28696915E+04</rscale>
<asrwt>0</asrwt>
<pdfrwt beam="1">  1        2 0.32458525E+00 0.28696915E+04</pdfrwt>
<pdfrwt beam="2">  1       -2 0.15012567E+00 0.28696915E+04</pdfrwt>
<totfact> 0.15007872E+00</totfact>
</mgrwt>
</event>
<event>
 6    1  0.2436515E-005  0.3579332E+04  0.7818608E-02  0.8095242E-01
         -2   -1    0    0    0  501 -0.00000000000E+00  0.00000000000E+00  0.19415411140E+04  0.19415411140E+04  0.00000000000E+00 0. -1.
          2   -1    0    0  501    0  0.00000000000E+00 -0.00000000000E+00 -0.16496713531E+04  0.16496713531E+04  0.00000000000E+00 0.  1.
         23    2    1    2    0    0 -0.88825911169E+03  0.14937168891E+04 -0.27560516527E+03  0.17630379170E+04  0.11022747130E+03 0.  0.
         13    1    3    3    0    0 -0.57106826110E+03  0.10547853014E+04 -0.20652842388E+03  0.12171051642E+04  0.00000000000E+00 0. -1.
        -13    1    3    3    0    0 -0.31719085058E+03  0.43893158764E+03 -0.69076741388E+02  0.54593275275E+03  0.00000000000E+00 0.  1.
         22    1    1    2    0    0  0.88825911169E+03 -0.14937168891E+04  0.56747492618E+03  0.18281745502E+04  0.00000000000E+00 0.  1.
<mgrwt>
<rscale>  0 0.35793322E+04</rscale>
<asrwt>0</asrwt>
<pdfrwt beam="1">  1        2 0.25379559E+00 0.35793322E+04</pdfrwt>
<pdfrwt beam="2">  1       -2 0.29869863E+00 0.35793322E+04</pdfrwt>
<totfact> 0.27645861E-01</totfact>
</mgrwt>
</event>
<event>
 6    1  0.2436515E-005  0.2378406E+04  0.7818608E-02  0.8447633E-01
          2   -1    0    0  501    0  0.00000000000E+00  0.00000000000E+00  0.32241947688E+04  0.32241947688E+04  0.00000000000E+00 0.  1.
         -2   -1    0    0    0  501 -0.00000000000E+00 -0.00000000000E+00 -0.43862213990E+03  0.43862213990E+03  0.00000000000E+00 0. -1.
         23    2    1    2    0    0 -0.41950670449E+03 -0.84301807039E+03  0.28070588485E+03  0.98680817413E+03  0.91264651528E+02 0.  0.
         11    1    3    3    0    0 -0.14299161626E+03 -0.38697975942E+03  0.13164342344E+03  0.43304725776E+03  0.00000000000E+00 0.  1.
        -11    1    3    3    0    0 -0.27651508823E+03 -0.45603831097E+03  0.14906246141E+03  0.55376091637E+03  0.00000000000E+00 0. -1.
         22    1    1    2    0    0  0.41950670449E+03  0.84301807039E+03  0.25048667440E+04  0.26760087346E+04  0.00000000000E+00 0.  1.
<mgrwt>
<rscale>  0 0.23784055E+04</rscale>
<asrwt>0</asrwt>
<pdfrwt beam="1">  1        2 0.49602995E+00 0.23784055E+04</pdfrwt>
<pdfrwt beam="2">  1       -2 0.67480331E-01 0.23784055E+04</pdfrwt>
<totfact> 0.22702686E+00</totfact>
</mgrwt>
</event>
<event>
 6    1  0.2436515E-005  0.3246574E+04  0.7818608E-02  0.8176624E-01
         -2   -1    0    0    0  501 -0.00000000000E+00  0.00000000000E+00  0.90252744161E+03  0.90252744161E+03  0.00000000000E+00 0. -1.
          2   -1    0    0  501    0  0.00000000000E+00 -0.00000000000E+00 -0.29196452048E+04  0.29196452048E+04  0.00000000000E+00 0.  1.
         23    2    1    2    0    0 -0.61258542067E+03 -0.15013051299E+04 -0.10579117631E+04  0.19382262190E+04  0.91463581879E+02 0.  0.
         13    1    3    3    0    0 -0.19972725018E+02 -0.18742225065E+02 -0.15988053008E+02  0.31714327741E+02  0.00000000000E+00 0. -1.
        -13    1    3    3    0    0 -0.59261269566E+03 -0.14825629048E+04 -0.10419237101E+04  0.19065118913E+04  0.00000000000E+00 0.  1.
         22    1    1    2    0    0  0.61258542067E+03  0.15013051299E+04 -0.95920600006E+03  0.18839464274E+04  0.00000000000E+00 0.  1.
<mgrwt>
<rscale>  0 0.32465735E+04</rscale>
<asrwt>0</asrwt>
<pdfrwt beam="1">  1        2 0.44917618E+00 0.32465735E+04</pdfrwt>
<pdfrwt beam="2">  1       -2 0.13885038E+00 0.32465735E+04</pdfrwt>
<totfact> 0.60099875E-01</totfact>
</mgrwt>
</event>
<event>
 6    1  0.2436515E-005  0.2838830E+04  0.7818608E-02  0.8291314E-01
          2   -1    0    0  501    0  0.00000000000E+00  0.00000000000E+00  0.98613603096E+03  0.98613603096E+03  0.00000000000E+00 0.  1.
         -2   -1    0    0    0  501 -0.00000000000E+00 -0.00000000000E+00 -0.20430643002E+04  0.20430643002E+04  0.00000000000E+00 0. -1.
         23    2    1    2    0    0 -0.60376873013E+03  0.12180992077E+04 -0.98956424818E+02  0.13660670190E+04  0.89690394908E+02 0.  0.
         11    1    3    3    0    0 -0.28289613409E+02  0.71435628667E+02  0.14131290745E+02  0.78121985689E+02  0.00000000000E+00 0. -1.
        -11    1    3    3    0    0 -0.57547911672E+03  0.11466635791E+04 -0.11308771556E+03  0.12879450333E+04  0.00000000000E+00 0.  1.
         22    1    1    2    0    0  0.60376873013E+03 -0.12180992077E+04 -0.95797184439E+03  0.16631333122E+04  0.00000000000E+00 0. -1.
<mgrwt>
<rscale>  0 0.28388303E+04</rscale>
<asrwt>0</asrwt>
<pdfrwt beam="1">  1        2 0.15171324E+00 0.28388303E+04</pdfrwt>
<pdfrwt beam="2">  1       -2 0.31431758E+00 0.28388303E+04</pdfrwt>
<totfact> 0.57891675E-01</totfact>
</mgrwt>
</event>
<event>
 6    1  0.2436515E-005  0.4956939E+04  0.7818608E-02  0.7835184E-01
          2   -1    0    0  501    0  0.00000000000E+00  0.00000000000E+00  0.30240085328E+04  0.30240085328E+04  0.00000000000E+00 0.  1.
         -2   -1    0    0    0  501 -0.00000000000E+00 -0.00000000000E+00 -0.20313472923E+04  0.20313472923E+04  0.00000000000E+00 0. -1.
         23    2    1    2    0    0  0.74860987300E+02 -0.21307378420E+04  0.17839584468E+04  0.27811968185E+04  0.83066748219E+02 0.  0.
         11    1    3    3    0    0  0.48957861031E+02 -0.12656255105E+04  0.11123714826E+04  0.16856972208E+04  0.00000000000E+00 0. -1.
        -11    1    3    3    0    0  0.25903126269E+02 -0.86511233150E+03  0.67158696422E+03  0.10954995977E+04  0.00000000000E+00 0.  1.
         22    1    1    2    0    0 -0.74860987300E+02  0.21307378420E+04 -0.79129720627E+03  0.22741590066E+04  0.00000000000E+00 0. -1.
<mgrwt>
<rscale>  0 0.49569392E+04</rscale>
<asrwt>0</asrwt>
<pdfrwt beam="1">  1        2 0.46523208E+00 0.49569392E+04</pdfrwt>
<pdfrwt beam="2">  1       -2 0.31251497E+00 0.49569392E+04</pdfrwt>
<totfact> 0.32695903E-02</totfact>
</mgrwt>
</event>
<event>
 6    1  0.2436515E-005  0.2601098E+04  0.7818608E-02  0.8367828E-01
         -2   -1    0    0    0  501 -0.00000000000E+00  0.00000000000E+00  0.77000140688E+03  0.77000140688E+03  0.00000000000E+00 0. -1.
          2   -1    0    0  501    0  0.00000000000E+00 -0.00000000000E+00 -0.21966561692E+04  0.21966561692E+04  0.00000000000E+00 0.  1.
         23    2    1    2    0    0 -0.34688415118E+03 -0.11874651569E+04 -0.11659636531E+04  0.17023941670E+04  0.90953540412E+02 0.  0.
         11    1    3    3    0    0 -0.25903539269E+03 -0.84251052111E+03 -0.77542742979E+03  0.11739723215E+04  0.00000000000E+00 0.  1.
        -11    1    3    3    0    0 -0.87848758498E+02 -0.34495463575E+03 -0.39053622328E+03  0.52842184549E+03  0.00000000000E+00 0. -1.
         22    1    1    2    0    0  0.34688415118E+03  0.11874651569E+04 -0.26069110926E+03  0.12642634091E+04  0.00000000000E+00 0. -1.
<mgrwt>
<rscale>  0 0.26010985E+04</rscale>
<asrwt>0</asrwt>
<pdfrwt beam="1">  1        2 0.33794710E+00 0.26010985E+04</pdfrwt>
<pdfrwt beam="2">  1       -2 0.11846176E+00 0.26010985E+04</pdfrwt>
<totfact> 0.25148735E+00</totfact>
</mgrwt>
</event>
<event>
 6    1  0.2436515E-005  0.3387623E+03  0.7818608E-02  0.1067324E+00
         -2   -1    0    0    0  501 -0.00000000000E+00  0.00000000000E+00  0.93505168983E+02  0.93505168983E+02  0.00000000000E+00 0. -1.
          2   -1    0    0  501    0  0.00000000000E+00 -0.00000000000E+00 -0.30682760853E+03  0.30682760853E+03  0.00000000000E+00 0.  1.
         23    2    1    2    0    0 -0.29639859383E+02 -0.12392715207E+03 -0.22460376376E+03  0.27241198733E+03  0.86746641800E+02 0.  0.
         13    1    3    3    0    0 -0.47016325098E+01 -0.12005136995E+03 -0.14183282445E+03  0.18587895757E+03  0.00000000000E+00 0. -1.
        -13    1    3    3    0    0 -0.24938226873E+02 -0.38757821239E+01 -0.82770939305E+02  0.86533029763E+02  0.00000000000E+00 0.  1.
         22    1    1    2    0    0  0.29639859383E+02  0.12392715207E+03  0.11281324207E+02  0.12792079018E+03  0.00000000000E+00 0. -1.
<mgrwt>
<rscale>  0 0.33876226E+03</rscale>
<asrwt>0</asrwt>
<pdfrwt beam="1">  1        2 0.47204247E-01 0.33876226E+03</pdfrwt>
<pdfrwt beam="2">  1       -2 0.14385411E-01 0.33876226E+03</pdfrwt>
<totfact> 0.39250192E+03</totfact>
</mgrwt>
</event>
<event>
 6    1  0.2436515E-005  0.4596527E+04  0.7818608E-02  0.7893952E-01
         -2   -1    0    0    0  501 -0.00000000000E+00  0.00000000000E+00  0.30255050904E+04  0.30255050904E+04  0.00000000000E+00 0. -1.
          2   -1    0    0  501    0  0.00000000000E+00 -0.00000000000E+00 -0.17458295267E+04  0.17458295267E+04  0.00000000000E+00 0.  1.
         23    2    1    2    0    0 -0.13234938321E+04 -0.15451747950E+04  0.17480002470E+04  0.26836255665E+04  0.84499983495E+02 0.  0.
         13    1    3    3    0    0 -0.21403746237E+03 -0.20798562771E+03  0.24031457934E+03  0.38317248554E+03  0.00000000000E+00 0.  1.
        -13    1    3    3    0    0 -0.11094563697E+04 -0.13371891673E+04  0.15076856677E+04  0.23004530810E+04  0.00000000000E+00 0. -1.
         22    1    1    2    0    0  0.13234938321E+04  0.15451747950E+04 -0.46832468336E+03  0.20877090506E+04  0.00000000000E+00 0.  1.
<mgrwt>
<rscale>  0 0.45965274E+04</rscale>
<asrwt>0</asrwt>
<pdfrwt beam="1">  1        2 0.26858916E+00 0.45965274E+04</pdfrwt>
<pdfrwt beam="2">  1       -2 0.46546232E+00 0.45965274E+04</pdfrwt>
<totfact> 0.19133032E-02</totfact>
</mgrwt>
</event>
<event>
 6    1  0.2436515E-005  0.2249707E+04  0.7818608E-02  0.8498019E-01
          2   -1    0    0  501    0  0.00000000000E+00  0.00000000000E+00  0.28147762501E+04  0.28147762501E+04  0.00000000000E+00 0.  1.
         -2   -1    0    0    0  501 -0.00000000000E+00 -0.00000000000E+00 -0.44951911819E+03  0.44951911819E+03  0.00000000000E+00 0. -1.
         23    2    1    2    0    0  0.49847804586E+03 -0.95374177833E+03  0.71902007132E+03  0.12975213087E+04  0.92021419103E+02 0.  0.
         13    1    3    3    0    0  0.25043058769E+03 -0.51522390496E+03  0.43380002757E+03  0.71857749437E+03  0.00000000000E+00 0. -1.
        -13    1    3    3    0    0  0.24804745817E+03 -0.43851787337E+03  0.28522004375E+03  0.57894381431E+03  0.00000000000E+00 0.  1.
         22    1    1    2    0    0 -0.49847804586E+03  0.95374177833E+03  0.16462370606E+04  0.19667740596E+04  0.00000000000E+00 0. -1.
<mgrwt>
<rscale>  0 0.22497073E+04</rscale>
<asrwt>0</asrwt>
<pdfrwt beam="1">  1        2 0.43304249E+00 0.22497073E+04</pdfrwt>
<pdfrwt beam="2">  1       -2 0.69156789E-01 0.22497073E+04</pdfrwt>
<totfact> 0.39381402E+00</totfact>
</mgrwt>
</event>
<event>
 6    1  0.2436515E-005  0.1261418E+04  0.7818608E-02  0.9060734E-01
         -2   -1    0    0    0  501 -0.00000000000E+00  0.00000000000E+00  0.39811454202E+03  0.39811454202E+03  0.00000000000E+00 0. -1.
          2   -1    0    0  501    0  0.00000000000E+00 -0.00000000000E+00 -0.99919378482E+03  0.99919378482E+03  0.00000000000E+00 0.  1.
         23    2    1    2    0    0  0.38031001883E+03 -0.49044979358E+03 -0.19955791158E+03  0.65812222723E+03  0.90137647265E+02 0.  0.
         13    1    3    3    0    0  0.17246282354E+02 -0.63911949871E+02 -0.31569169952E+02  0.73340194183E+02  0.00000000000E+00 0.  1.
        -13    1    3    3    0    0  0.36306373648E+03 -0.42653784371E+03 -0.16798874162E+03  0.58478203304E+03  0.00000000000E+00 0. -1.
         22    1    1    2    0    0 -0.38031001883E+03  0.49044979358E+03 -0.40152133122E+03  0.73918609962E+03  0.00000000000E+00 0. -1.
<mgrwt>
<rscale>  0 0.12614176E+04</rscale>
<asrwt>0</asrwt>
<pdfrwt beam="1">  1        2 0.15372212E+00 0.12614176E+04</pdfrwt>
<pdfrwt beam="2">  1       -2 0.61248392E-01 0.12614176E+04</pdfrwt>
<totfact> 0.61452544E+01</totfact>
</mgrwt>
</event>
<event>
 6    1  0.2436515E-005  0.1538127E+04  0.7818608E-02  0.8859487E-01
          2   -1    0    0  501    0  0.00000000000E+00  0.00000000000E+00  0.10176883084E+04  0.10176883084E+04  0.00000000000E+00 0.  1.
         -2   -1    0    0    0  501 -0.00000000000E+00 -0.00000000000E+00 -0.58117886969E+03  0.58117886969E+03  0.00000000000E+00 0. -1.
         23    2    1    2    0    0 -0.22569836664E+03 -0.57315466350E+03 -0.25543504937E+03  0.67245841541E+03  0.86644301685E+02 0.  0.
         13    1    3    3    0    0 -0.14834423887E+03 -0.47168004586E+03 -0.20376712911E+03  0.53479820659E+03  0.00000000000E+00 0. -1.
        -13    1    3    3    0    0 -0.77354127769E+02 -0.10147461765E+03 -0.51667920264E+02  0.13766020883E+03  0.00000000000E+00 0.  1.
         22    1    1    2    0    0  0.22569836664E+03  0.57315466350E+03  0.69194448813E+03  0.92640876272E+03  0.00000000000E+00 0.  1.
<mgrwt>
<rscale>  0 0.15381274E+04</rscale>
<asrwt>0</asrwt>
<pdfrwt beam="1">  1        2 0.15656743E+00 0.15381274E+04</pdfrwt>
<pdfrwt beam="2">  1       -2 0.89412134E-01 0.15381274E+04</pdfrwt>
<totfact> 0.25371688E+01</totfact>
</mgrwt>
</event>
<event>
 6    1  0.2436515E-005  0.3928675E+04  0.7818608E-02  0.8019092E-01
         -2   -1    0    0    0  501 -0.00000000000E+00  0.00000000000E+00  0.21556852846E+04  0.21556852846E+04  0.00000000000E+00 0. -1.
          2   -1    0    0  501    0  0.00000000000E+00 -0.00000000000E+00 -0.17899741754E+04  0.17899741754E+04  0.00000000000E+00 0.  1.
         23    2    1    2    0    0 -0.16367214372E+04 -0.51295601117E+03 -0.77652375679E+03  0.18849116779E+04  0.89005370571E+02 0.  0.
         11    1    3    3    0    0 -0.29322513936E+03 -0.10866488926E+03 -0.17544530272E+03  0.35856672288E+03  0.00000000000E+00 0.  1.
        -11    1    3    3    0    0 -0.13434962979E+04 -0.40429112191E+03 -0.60107845407E+03  0.15263449550E+04  0.00000000000E+00 0. -1.
         22    1    1    2    0    0  0.16367214372E+04  0.51295601117E+03  0.11422348660E+04  0.20607477821E+04  0.00000000000E+00 0. -1.
<mgrwt>
<rscale>  0 0.39286746E+04</rscale>
<asrwt>0</asrwt>
<pdfrwt beam="1">  1        2 0.27538064E+00 0.39286746E+04</pdfrwt>
<pdfrwt beam="2">  1       -2 0.33164389E+00 0.39286746E+04</pdfrwt>
<totfact> 0.14058131E-01</totfact>
</mgrwt>
</event>
<event>
 6    1  0.2436515E-005  0.6383768E+04  0.7818608E-02  0.7644558E-01
         -2   -1    0    0    0  501 -0.00000000000E+00  0.00000000000E+00  0.41742957613E+04  0.41742957613E+04  0.00000000000E+00 0. -1.
          2   -1    0    0  501    0  0.00000000000E+00 -0.00000000000E+00 -0.24406811314E+04  0.24406811314E+04  0.00000000000E+00 0.  1.
         23    2    1    2    0    0  0.15942679523E+04  0.73868718650E+03  0.36273974042E+04  0.40316143049E+04  0.92481958168E+02 0.  0.
         11    1    3    3    0    0  0.91619861966E+03  0.47356853104E+03  0.21041904600E+04  0.23433532717E+04  0.00000000000E+00 0.  1.
        -11    1    3    3    0    0  0.67806933267E+03  0.26511865546E+03  0.15232069442E+04  0.16882610332E+04  0.00000000000E+00 0. -1.
         22    1    1    2    0    0 -0.15942679523E+04 -0.73868718650E+03 -0.18937827743E+04  0.25833625877E+04  0.00000000000E+00 0.  1.
<mgrwt>
<rscale>  0 0.63837684E+04</rscale>
<asrwt>0</asrwt>
<pdfrwt beam="1">  1        2 0.37548940E+00 0.63837684E+04</pdfrwt>
<pdfrwt beam="2">  1       -2 0.64219935E+00 0.63837684E+04</pdfrwt>
<totfact> 0.90082922E-04</totfact>
</mgrwt>
</event>
<event>
 6    1  0.2436515E-005  0.4303148E+04  0.7818608E-02  0.7946036E-01
          2   -1    0    0  501    0  0.00000000000E+00  0.00000000000E+00  0.19545655267E+04  0.19545655267E+04  0.00000000000E+00 0.  1.
         -2   -1    0    0    0  501 -0.00000000000E+00 -0.00000000000E+00 -0.23684402331E+04  0.23684402331E+04  0.00000000000E+00 0. -1.
         23    2    1    2    0    0 -0.22429342117E+03 -0.14531160697E+04  0.13696878910E+04  0.20115236835E+04  0.91262038877E+02 0.  0.
         13    1    3    3    0    0 -0.22131158857E+03 -0.13607704352E+04  0.13081808365E+04  0.19005294256E+04  0.00000000000E+00 0.  1.
        -13    1    3    3    0    0 -0.29818326090E+01 -0.92345634487E+02  0.61507054505E+02  0.11099425791E+03  0.00000000000E+00 0. -1.
         22    1    1    2    0    0  0.22429342117E+03  0.14531160697E+04 -0.17835625973E+04  0.23114820763E+04  0.00000000000E+00 0. -1.
<mgrwt>
<rscale>  0 0.43031484E+04</rscale>
<asrwt>0</asrwt>
<pdfrwt beam="1">  1        2 0.30070239E+00 0.43031484E+04</pdfrwt>
<pdfrwt beam="2">  1       -2 0.36437542E+00 0.43031484E+04</pdfrwt>
<totfact> 0.68744756E-02</totfact>
</mgrwt>
</event>
<event>
 6    1  0.2436515E-005  0.2600274E+04  0.7818608E-02  0.8368108E-01
         -2   -1    0    0    0  501 -0.00000000000E+00  0.00000000000E+00  0.91303587225E+03  0.91303587225E+03  0.00000000000E+00 0. -1.
          2   -1    0    0  501    0  0.00000000000E+00 -0.00000000000E+00 -0.18513576744E+04  0.18513576744E+04  0.00000000000E+00 0.  1.
         23    2    1    2    0    0 -0.82354358765E+03  0.98930878345E+03 -0.28539157288E+03  0.13210384988E+04  0.82088097841E+02 0.  0.
         11    1    3    3    0    0 -0.41608284381E+03  0.55971494500E+03 -0.16903128528E+03  0.71761920819E+03  0.00000000000E+00 0.  1.
        -11    1    3    3    0    0 -0.40746074384E+03  0.42959383845E+03 -0.11636028760E+03  0.60341929066E+03  0.00000000000E+00 0. -1.
         22    1    1    2    0    0  0.82354358765E+03 -0.98930878345E+03 -0.65293022933E+03  0.14433550478E+04  0.00000000000E+00 0.  1.
<mgrwt>
<rscale>  0 0.26002738E+04</rscale>
<asrwt>0</asrwt>
<pdfrwt beam="1">  1        2 0.28482426E+00 0.26002738E+04</pdfrwt>
<pdfrwt beam="2">  1       -2 0.14046706E+00 0.26002738E+04</pdfrwt>
<totfact> 0.25452615E+00</totfact>
</mgrwt>
</event>
<event>
 6    1  0.2436515E-005  0.4346919E+04  0.7818608E-02  0.7937999E-01
          2   -1    0    0  501    0  0.00000000000E+00  0.00000000000E+00  0.36231889065E+04  0.36231889065E+04  0.00000000000E+00 0.  1.
         -2   -1    0    0    0  501 -0.00000000000E+00 -0.00000000000E+00 -0.13038036767E+04  0.13038036767E+04  0.00000000000E+00 0. -1.
         23    2    1    2    0    0  0.15676512522E+04 -0.11124353896E+04  0.23074355261E+04  0.30047059917E+04  0.94638497127E+02 0.  0.
         11    1    3    3    0    0  0.10493227900E+04 -0.76149322309E+03  0.16210820347E+04  0.20757786996E+04  0.00000000000E+00 0. -1.
        -11    1    3    3    0    0  0.51832846214E+03 -0.35094216649E+03  0.68635349140E+03  0.92892729212E+03  0.00000000000E+00 0.  1.
         22    1    1    2    0    0 -0.15676512522E+04  0.11124353896E+04  0.11949703667E+02  0.19222865915E+04  0.00000000000E+00 0. -1.
<mgrwt>
<rscale>  0 0.43469194E+04</rscale>
<asrwt>0</asrwt>
<pdfrwt beam="1">  1        2 0.55741367E+00 0.43469194E+04</pdfrwt>
<pdfrwt beam="2">  1       -2 0.20058518E+00 0.43469194E+04</pdfrwt>
<totfact> 0.67024029E-02</totfact>
</mgrwt>
</event>
<event>
 6    1  0.2436515E-005  0.1355472E+04  0.7818608E-02  0.8986696E-01
         -2   -1    0    0    0  501 -0.00000000000E+00  0.00000000000E+00  0.44657183463E+03  0.44657183463E+03  0.00000000000E+00 0. -1.
          2   -1    0    0  501    0  0.00000000000E+00 -0.00000000000E+00 -0.10285608379E+04  0.10285608379E+04  0.00000000000E+00 0.  1.
         23    2    1    2    0    0  0.26948676843E+03 -0.55209066833E+03  0.11481907659E+02  0.62094595608E+03  0.89525536843E+02 0.  0.
         13    1    3    3    0    0  0.21350630878E+03 -0.46424320156E+03  0.41136219763E+02  0.51263913493E+03  0.00000000000E+00 0.  1.
        -13    1    3    3    0    0  0.55980459656E+02 -0.87847466770E+02 -0.29654312104E+02  0.10830682115E+03  0.00000000000E+00 0. -1.
         22    1    1    2    0    0 -0.26948676843E+03  0.55209066833E+03 -0.59347091088E+03  0.85418671641E+03  0.00000000000E+00 0.  1.
<mgrwt>
<rscale>  0 0.13554723E+04</rscale>
<asrwt>0</asrwt>
<pdfrwt beam="1">  1        2 0.15824013E+00 0.13554723E+04</pdfrwt>
<pdfrwt beam="2">  1       -2 0.68703359E-01 0.13554723E+04</pdfrwt>
<totfact> 0.45670219E+01</totfact>
</mgrwt>
</event>
<event>
 6    1  0.2436515E-005  0.1629145E+04  0.7818608E-02  0.8802840E-01
         -2   -1    0    0    0  501 -0.00000000000E+00  0.00000000000E+00  0.41746533871E+03  0.41746533871E+03  0.00000000000E+00 0. -1.
          2   -1    0    0  501    0  0.00000000000E+00 -0.00000000000E+00 -0.15894223058E+04  0.15894223058E+04  0.00000000000E+00 0.  1.
         23    2    1    2    0    0 -0.30990356705E+03  0.35082759687E+03  0.22933738398E+03  0.52947569047E+03  0.92890513581E+02 0.  0.
         13    1    3    3    0    0 -0.13539399439E+03  0.13634129130E+03  0.14392991817E+03  0.24007561886E+03  0.00000000000E+00 0. -1.
        -13    1    3    3    0    0 -0.17450957266E+03  0.21448630557E+03  0.85407465803E+02  0.28940007160E+03  0.00000000000E+00 0.  1.
         22    1    1    2    0    0  0.30990356705E+03 -0.35082759687E+03 -0.14012943510E+04  0.14774119540E+04  0.00000000000E+00 0. -1.
<mgrwt>
<rscale>  0 0.16291454E+04</rscale>
<asrwt>0</asrwt>
<pdfrwt beam="1">  1        2 0.24452651E+00 0.16291454E+04</pdfrwt>
<pdfrwt beam="2">  1       -2 0.64225437E-01 0.16291454E+04</pdfrwt>
<totfact> 0.24228104E+01</totfact>
</mgrwt>
</event>
<event>
 6    1  0.2436515E-005  0.3502965E+04  0.7818608E-02  0.8113088E-01
          2   -1    0    0  501    0  0.00000000000E+00  0.00000000000E+00  0.25918294706E+04  0.25918294706E+04  0.00000000000E+00 0.  1.
         -2   -1    0    0    0  501 -0.00000000000E+00 -0.00000000000E+00 -0.11836005275E+04  0.11836005275E+04  0.00000000000E+00 0. -1.
         23    2    1    2    0    0 -0.24163751070E+03  0.15500441450E+04 -0.13195157367E+03  0.15769801891E+04  0.91813730060E+02 0.  0.
         13    1    3    3    0    0 -0.21424306961E+03  0.12206381258E+04 -0.13319863080E+03  0.12464346763E+04  0.00000000000E+00 0. -1.
        -13    1    3    3    0    0 -0.27394441095E+02  0.32940601927E+03  0.12470571384E+01  0.33054551288E+03  0.00000000000E+00 0.  1.
         22    1    1    2    0    0  0.24163751070E+03 -0.15500441450E+04  0.15401805168E+04  0.21984498089E+04  0.00000000000E+00 0.  1.
<mgrwt>
<rscale>  0 0.35029649E+04</rscale>
<asrwt>0</asrwt>
<pdfrwt beam="1">  1        2 0.39874299E+00 0.35029649E+04</pdfrwt>
<pdfrwt beam="2">  1       -2 0.18209239E+00 0.35029649E+04</pdfrwt>
<totfact> 0.44330819E-01</totfact>
</mgrwt>
</event>
<event>
 6    1  0.2436515E-005  0.4365719E+04  0.7818608E-02  0.7934577E-01
         -2   -1    0    0    0  501 -0.00000000000E+00  0.00000000000E+00  0.14282514544E+04  0.14282514544E+04  0.00000000000E+00 0.  1.
          2   -1    0    0  501    0  0.00000000000E+00 -0.00000000000E+00 -0.33361596287E+04  0.33361596287E+04  0.00000000000E+00 0. -1.
         23    2    1    2    0    0 -0.91817210357E+03 -0.10536741729E+04 -0.27829315705E+04  0.31154916738E+04  0.91164515627E+02 0.  0.
         11    1    3    3    0    0 -0.75027917568E+03 -0.81797690954E+03 -0.21531839088E+04  0.24224380304E+04  0.00000000000E+00 0.  1.
        -11    1    3    3    0    0 -0.16789292789E+03 -0.23569726333E+03 -0.62974766177E+03  0.69305364344E+03  0.00000000000E+00 0. -1.
         22    1    1    2    0    0  0.91817210357E+03  0.10536741729E+04  0.87502339624E+03  0.16489194093E+04  0.00000000000E+00 0.  1.
<mgrwt>
<rscale>  0 0.43657187E+04</rscale>
<asrwt>0</asrwt>
<pdfrwt beam="1">  1        2 0.51325532E+00 0.43657187E+04</pdfrwt>
<pdfrwt beam="2">  1       -2 0.21973100E+00 0.43657187E+04</pdfrwt>
<totfact> 0.79950034E-02</totfact>
</mgrwt>
</event>
<event>
 6    1  0.2436515E-005  0.1348205E+04  0.7818608E-02  0.8992188E-01
         -2   -1    0    0    0  501 -0.00000000000E+00  0.00000000000E+00  0.37444754275E+03  0.37444754275E+03  0.00000000000E+00 0. -1.
          2   -1    0    0  501    0  0.00000000000E+00 -0.00000000000E+00 -0.12135581599E+04  0.12135581599E+04  0.00000000000E+00 0.  1.
         23    2    1    2    0    0 -0.57270810070E+03 -0.22516427356E+03 -0.73637692276E+03  0.96410849104E+03  0.92524004595E+02 0.  0.
         13    1    3    3    0    0 -0.34541738244E+03 -0.18018296528E+03 -0.43489495791E+03  0.58387729317E+03  0.00000000000E+00 0. -1.
        -13    1    3    3    0    0 -0.22729071826E+03 -0.44981308288E+02 -0.30148196484E+03  0.38023119786E+03  0.00000000000E+00 0.  1.
         22    1    1    2    0    0  0.57270810070E+03  0.22516427356E+03 -0.10273369439E+03  0.62389721161E+03  0.00000000000E+00 0. -1.
<mgrwt>
<rscale>  0 0.13482045E+04</rscale>
<asrwt>0</asrwt>
<pdfrwt beam="1">  1        2 0.18670125E+00 0.13482045E+04</pdfrwt>
<pdfrwt beam="2">  1       -2 0.57607314E-01 0.13482045E+04</pdfrwt>
<totfact> 0.51247909E+01</totfact>
</mgrwt>
</event>
<event>
 6    1  0.2436515E-005  0.2589451E+04  0.7818608E-02  0.8371793E-01
         -2   -1    0    0    0  501 -0.00000000000E+00  0.00000000000E+00  0.54952881238E+03  0.54952881238E+03  0.00000000000E+00 0. -1.
          2   -1    0    0  501    0  0.00000000000E+00 -0.00000000000E+00 -0.30504569496E+04  0.30504569496E+04  0.00000000000E+00 0.  1.
         23    2    1    2    0    0 -0.67076235343E+03  0.10994423152E+04 -0.10870257346E+04  0.16874441171E+04  0.84540886962E+02 0.  0.
         11    1    3    3    0    0 -0.24707372366E+03  0.48508888795E+03 -0.45663597058E+03  0.71054420254E+03  0.00000000000E+00 0. -1.
        -11    1    3    3    0    0 -0.42368862977E+03  0.61435342723E+03 -0.63038976403E+03  0.97689991460E+03  0.00000000000E+00 0.  1.
         22    1    1    2    0    0  0.67076235343E+03 -0.10994423152E+04 -0.14139024026E+04  0.19125416449E+04  0.00000000000E+00 0.  1.
<mgrwt>
<rscale>  0 0.25894509E+04</rscale>
<asrwt>0</asrwt>
<pdfrwt beam="1">  1        2 0.46930106E+00 0.25894509E+04</pdfrwt>
<pdfrwt beam="2">  1       -2 0.84542895E-01 0.25894509E+04</pdfrwt>
<totfact> 0.17475163E+00</totfact>
</mgrwt>
</event>
<event>
 6    1  0.2436515E-005  0.3200228E+04  0.7818608E-02  0.8188757E-01
         -2   -1    0    0    0  501 -0.00000000000E+00  0.00000000000E+00  0.13862265018E+04  0.13862265018E+04  0.00000000000E+00 0. -1.
          2   -1    0    0  501    0  0.00000000000E+00 -0.00000000000E+00 -0.18470029757E+04  0.18470029757E+04  0.00000000000E+00 0.  1.
         23    2    1    2    0    0  0.40679161010E+03 -0.26312776643E+03  0.13087558214E+04  0.13985741476E+04  0.91935905174E+02 0.  0.
         13    1    3    3    0    0  0.24338709713E+03 -0.14450246881E+03  0.63540583637E+03  0.69559961144E+03  0.00000000000E+00 0. -1.
        -13    1    3    3    0    0  0.16340451297E+03 -0.11862529762E+03  0.67334998502E+03  0.70297453611E+03  0.00000000000E+00 0.  1.
         22    1    1    2    0    0 -0.40679161010E+03  0.26312776643E+03 -0.17695322953E+04  0.18346553300E+04  0.00000000000E+00 0.  1.
<mgrwt>
<rscale>  0 0.32002278E+04</rscale>
<asrwt>0</asrwt>
<pdfrwt beam="1">  1        2 0.28415430E+00 0.32002278E+04</pdfrwt>
<pdfrwt beam="2">  1       -2 0.21326562E+00 0.32002278E+04</pdfrwt>
<totfact> 0.74658180E-01</totfact>
</mgrwt>
</event>
<event>
 6    1  0.2436515E-005  0.3016841E+04  0.7818608E-02  0.8238938E-01
          2   -1    0    0  501    0  0.00000000000E+00  0.00000000000E+00  0.10070346155E+04  0.10070346155E+04  0.00000000000E+00 0. -1.
         -2   -1    0    0    0  501 -0.00000000000E+00 -0.00000000000E+00 -0.22594381460E+04  0.22594381460E+04  0.00000000000E+00 0.  1.
         23    2    1    2    0    0 -0.10402601567E+03 -0.59807638858E+03  0.86674561634E+03  0.10620885199E+04  0.90924595615E+02 0.  0.
         13    1    3    3    0    0 -0.10221182366E+03 -0.46064131447E+03  0.72175360917E+03  0.86230270198E+03  0.00000000000E+00 0. -1.
        -13    1    3    3    0    0 -0.18141920112E+01 -0.13743507411E+03  0.14499200718E+03  0.19978581790E+03  0.00000000000E+00 0.  1.
         22    1    1    2    0    0  0.10402601567E+03  0.59807638858E+03 -0.21191491468E+04  0.22043842416E+04  0.00000000000E+00 0.  1.
<mgrwt>
<rscale>  0 0.30168410E+04</rscale>
<asrwt>0</asrwt>
<pdfrwt beam="1">  1        2 0.15492841E+00 0.30168410E+04</pdfrwt>
<pdfrwt beam="2">  1       -2 0.34760586E+00 0.30168410E+04</pdfrwt>
<totfact> 0.34316022E-01</totfact>
</mgrwt>
</event>
<event>
 6    1  0.2436515E-005  0.2241850E+04  0.7818608E-02  0.8501209E-01
         -2   -1    0    0    0  501 -0.00000000000E+00  0.00000000000E+00  0.33292304206E+03  0.33292304206E+03  0.00000000000E+00 0. -1.
          2   -1    0    0  501    0  0.00000000000E+00 -0.00000000000E+00 -0.37740627535E+04  0.37740627535E+04  0.00000000000E+00 0.  1.
         23    2    1    2    0    0  0.29927079143E+02 -0.11186537588E+04 -0.16978426282E+04  0.20354244079E+04  0.89448690603E+02 0.  0.
         11    1    3    3    0    0  0.43892426935E+02 -0.59734162294E+03 -0.97050355388E+03  0.11404475910E+04  0.00000000000E+00 0.  1.
        -11    1    3    3    0    0 -0.13965347792E+02 -0.52131213585E+03 -0.72733907431E+03  0.89497681698E+03  0.00000000000E+00 0. -1.
         22    1    1    2    0    0 -0.29927079143E+02  0.11186537588E+04 -0.17432970832E+04  0.20715613876E+04  0.00000000000E+00 0. -1.
<mgrwt>
<rscale>  0 0.22418496E+04</rscale>
<asrwt>0</asrwt>
<pdfrwt beam="1">  1        2 0.58062509E+00 0.22418496E+04</pdfrwt>
<pdfrwt beam="2">  1       -2 0.51218925E-01 0.22418496E+04</pdfrwt>
<totfact> 0.16943261E+00</totfact>
</mgrwt>
</event>
<event>
 6    1  0.2436515E-005  0.3562048E+04  0.7818608E-02  0.8099241E-01
          2   -1    0    0  501    0  0.00000000000E+00  0.00000000000E+00  0.17609109159E+04  0.17609109159E+04  0.00000000000E+00 0.  1.
         -2   -1    0    0    0  501 -0.00000000000E+00 -0.00000000000E+00 -0.18013672519E+04  0.18013672519E+04  0.00000000000E+00 0. -1.
         23    2    1    2    0    0 -0.58204041253E+03 -0.68088580687E+03 -0.15583374562E+04  0.17997970704E+04  0.92072490390E+02 0.  0.
         13    1    3    3    0    0 -0.13692156009E+03 -0.20302237840E+03 -0.48715286030E+03  0.54523711269E+03  0.00000000000E+00 0. -1.
        -13    1    3    3    0    0 -0.44511885243E+03 -0.47786342848E+03 -0.10711845959E+04  0.12545599577E+04  0.00000000000E+00 0.  1.
         22    1    1    2    0    0  0.58204041253E+03  0.68088580687E+03  0.15178811202E+04  0.17624810974E+04  0.00000000000E+00 0.  1.
<mgrwt>
<rscale>  0 0.35620484E+04</rscale>
<asrwt>0</asrwt>
<pdfrwt beam="1">  1        2 0.27090937E+00 0.35620484E+04</pdfrwt>
<pdfrwt beam="2">  1       -2 0.27713342E+00 0.35620484E+04</pdfrwt>
<totfact> 0.32514894E-01</totfact>
</mgrwt>
</event>
<event>
 6    1  0.2436515E-005  0.3807328E+04  0.7818608E-02  0.8044584E-01
          2   -1    0    0  501    0  0.00000000000E+00  0.00000000000E+00  0.34161571307E+04  0.34161571307E+04  0.00000000000E+00 0.  1.
         -2   -1    0    0    0  501 -0.00000000000E+00 -0.00000000000E+00 -0.10608224805E+04  0.10608224805E+04  0.00000000000E+00 0. -1.
         23    2    1    2    0    0  0.64234432032E+03 -0.73368936190E+03  0.30992459067E+04  0.32504763445E+04  0.96772778936E+02 0.  0.
         11    1    3    3    0    0  0.35459083190E+03 -0.43174152602E+03  0.19202650000E+04  0.19998882653E+04  0.00000000000E+00 0. -1.
        -11    1    3    3    0    0  0.28775348842E+03 -0.30194783589E+03  0.11789809067E+04  0.12505880793E+04  0.00000000000E+00 0.  1.
         22    1    1    2    0    0 -0.64234432032E+03  0.73368936190E+03 -0.74391125645E+03  0.12265032666E+04  0.00000000000E+00 0. -1.
<mgrwt>
<rscale>  0 0.38073278E+04</rscale>
<asrwt>0</asrwt>
<pdfrwt beam="1">  1        2 0.52556263E+00 0.38073278E+04</pdfrwt>
<pdfrwt beam="2">  1       -2 0.16320346E+00 0.38073278E+04</pdfrwt>
<totfact> 0.17742327E-01</totfact>
</mgrwt>
</event>
<event>
 6    1  0.2436515E-005  0.3609853E+04  0.7818608E-02  0.8088238E-01
          2   -1    0    0  501    0  0.00000000000E+00  0.00000000000E+00  0.22747255346E+04  0.22747255346E+04  0.00000000000E+00 0.  1.
         -2   -1    0    0    0  501 -0.00000000000E+00 -0.00000000000E+00 -0.14321553114E+04  0.14321553114E+04  0.00000000000E+00 0. -1.
         23    2    1    2    0    0 -0.19063469840E+03  0.14898980071E+04  0.14471795098E+04  0.20877174666E+04  0.89989036164E+02 0.  0.
         13    1    3    3    0    0 -0.15227062535E+03  0.86755947863E+03  0.82366967670E+03  0.12059342970E+04  0.00000000000E+00 0.  1.
        -13    1    3    3    0    0 -0.38364073056E+02  0.62233852851E+03  0.62350983315E+03  0.88178316960E+03  0.00000000000E+00 0. -1.
         22    1    1    2    0    0  0.19063469840E+03 -0.14898980071E+04 -0.60460928662E+03  0.16191633795E+04  0.00000000000E+00 0. -1.
<mgrwt>
<rscale>  0 0.36098533E+04</rscale>
<asrwt>0</asrwt>
<pdfrwt beam="1">  1        2 0.34995778E+00 0.36098533E+04</pdfrwt>
<pdfrwt beam="2">  1       -2 0.22033159E+00 0.36098533E+04</pdfrwt>
<totfact> 0.37533863E-01</totfact>
</mgrwt>
</event>
<event>
 6    1  0.2436515E-005  0.4422922E+04  0.7818608E-02  0.7924271E-01
          2   -1    0    0  501    0  0.00000000000E+00  0.00000000000E+00  0.14222412372E+04  0.14222412372E+04  0.00000000000E+00 0.  1.
         -2   -1    0    0    0  501 -0.00000000000E+00 -0.00000000000E+00 -0.34386292904E+04  0.34386292904E+04  0.00000000000E+00 0. -1.
         23    2    1    2    0    0 -0.92716557323E+03  0.14912767160E+04 -0.24842965941E+04  0.30435976679E+04  0.90636375237E+02 0.  0.
         11    1    3    3    0    0 -0.45690471068E+03  0.64973805759E+03 -0.11160636564E+04  0.13698611401E+04  0.00000000000E+00 0. -1.
        -11    1    3    3    0    0 -0.47026086255E+03  0.84153865841E+03 -0.13682329378E+04  0.16737365278E+04  0.00000000000E+00 0.  1.
         22    1    1    2    0    0  0.92716557323E+03 -0.14912767160E+04  0.46790854088E+03  0.18172728597E+04  0.00000000000E+00 0.  1.
<mgrwt>
<rscale>  0 0.44229223E+04</rscale>
<asrwt>0</asrwt>
<pdfrwt beam="1">  1        2 0.21880635E+00 0.44229223E+04</pdfrwt>
<pdfrwt beam="2">  1       -2 0.52901989E+00 0.44229223E+04</pdfrwt>
<totfact> 0.11931752E-02</totfact>
</mgrwt>
</event>
<event>
 6    1  0.2436515E-005  0.1212555E+04  0.7818608E-02  0.9101937E-01
          2   -1    0    0  501    0  0.00000000000E+00  0.00000000000E+00  0.67511783645E+03  0.67511783645E+03  0.00000000000E+00 0.  1.
         -2   -1    0    0    0  501 -0.00000000000E+00 -0.00000000000E+00 -0.54445696098E+03  0.54445696098E+03  0.00000000000E+00 0. -1.
         23    2    1    2    0    0 -0.32110687052E+03 -0.47011233160E+03 -0.13261413283E+03  0.59233564319E+03  0.95706736153E+02 0.  0.
         11    1    3    3    0    0 -0.16523399741E+03 -0.30464465753E+03 -0.48488410287E+02  0.34994537745E+03  0.00000000000E+00 0.  1.
        -11    1    3    3    0    0 -0.15587287311E+03 -0.16546767407E+03 -0.84125722543E+02  0.24239026574E+03  0.00000000000E+00 0. -1.
         22    1    1    2    0    0  0.32110687052E+03  0.47011233160E+03  0.26327500830E+03  0.62723915424E+03  0.00000000000E+00 0.  1.
<mgrwt>
<rscale>  0 0.12125553E+04</rscale>
<asrwt>0</asrwt>
<pdfrwt beam="1">  1        2 0.10386428E+00 0.12125553E+04</pdfrwt>
<pdfrwt beam="2">  1       -2 0.83762610E-01 0.12125553E+04</pdfrwt>
<totfact> 0.52702636E+01</totfact>
</mgrwt>
</event>
<event>
 6    1  0.2436515E-005  0.4387722E+04  0.7818608E-02  0.7930594E-01
          2   -1    0    0  501    0  0.00000000000E+00  0.00000000000E+00  0.41713338429E+04  0.41713338429E+04  0.00000000000E+00 0.  1.
         -2   -1    0    0    0  501 -0.00000000000E+00 -0.00000000000E+00 -0.11538336351E+04  0.11538336351E+04  0.00000000000E+00 0. -1.
         23    2    1    2    0    0 -0.60993964249E+03 -0.40587855060E+03 -0.99901529336E+03  0.12423791494E+04  0.93330751959E+02 0.  0.
         13    1    3    3    0    0 -0.17501297043E+03 -0.81859141773E+02 -0.21507764042E+03  0.28911736427E+03  0.00000000000E+00 0.  1.
        -13    1    3    3    0    0 -0.43492667206E+03 -0.32401940883E+03 -0.78393765293E+03  0.95326178516E+03  0.00000000000E+00 0. -1.
         22    1    1    2    0    0  0.60993964249E+03  0.40587855060E+03  0.40165155011E+04  0.40827883286E+04  0.00000000000E+00 0.  1.
<mgrwt>
<rscale>  0 0.43877216E+04</rscale>
<asrwt>0</asrwt>
<pdfrwt beam="1">  1        2 0.64174366E+00 0.43877216E+04</pdfrwt>
<pdfrwt beam="2">  1       -2 0.17751287E+00 0.43877216E+04</pdfrwt>
<totfact> 0.35328241E-02</totfact>
</mgrwt>
</event>
<event>
 6    1  0.2436515E-005  0.1373033E+04  0.7818608E-02  0.8973573E-01
         -2   -1    0    0    0  501 -0.00000000000E+00  0.00000000000E+00  0.21478384201E+03  0.21478384201E+03  0.00000000000E+00 0. -1.
          2   -1    0    0  501    0  0.00000000000E+00 -0.00000000000E+00 -0.21943215275E+04  0.21943215275E+04  0.00000000000E+00 0.  1.
         23    2    1    2    0    0  0.62590675236E+03 -0.74454438715E+02 -0.14579362544E+04  0.15909545405E+04  0.90859792461E+02 0.  0.
         11    1    3    3    0    0  0.27145515568E+03 -0.67249337402E+02 -0.71560125419E+03  0.76830692430E+03  0.00000000000E+00 0. -1.
        -11    1    3    3    0    0  0.35445159668E+03 -0.72051013134E+01 -0.74233500023E+03  0.82264761620E+03  0.00000000000E+00 0.  1.
         22    1    1    2    0    0 -0.62590675236E+03  0.74454438715E+02 -0.52160143106E+03  0.81815082899E+03  0.00000000000E+00 0. -1.
<mgrwt>
<rscale>  0 0.13730329E+04</rscale>
<asrwt>0</asrwt>
<pdfrwt beam="1">  1        2 0.33758791E+00 0.13730329E+04</pdfrwt>
<pdfrwt beam="2">  1       -2 0.33043670E-01 0.13730329E+04</pdfrwt>
<totfact> 0.43438101E+01</totfact>
</mgrwt>
</event>
<event>
 6    1  0.2436515E-005  0.3540041E+04  0.7818608E-02  0.8104366E-01
          2   -1    0    0  501    0  0.00000000000E+00  0.00000000000E+00  0.21072414060E+04  0.21072414060E+04  0.00000000000E+00 0.  1.
         -2   -1    0    0    0  501 -0.00000000000E+00 -0.00000000000E+00 -0.14867646927E+04  0.14867646927E+04  0.00000000000E+00 0. -1.
         23    2    1    2    0    0 -0.11330000206E+04  0.28552015976E+03  0.16587626557E+04  0.20309166878E+04  0.88984473727E+02 0.  0.
         13    1    3    3    0    0 -0.97658990965E+03  0.21397440948E+03  0.14220384169E+04  0.17383055424E+04  0.00000000000E+00 0.  1.
        -13    1    3    3    0    0 -0.15641011092E+03  0.71545750279E+02  0.23672423873E+03  0.29261114535E+03  0.00000000000E+00 0. -1.
         22    1    1    2    0    0  0.11330000206E+04 -0.28552015976E+03 -0.10382859424E+04  0.15630894109E+04  0.00000000000E+00 0. -1.
<mgrwt>
<rscale>  0 0.35400407E+04</rscale>
<asrwt>0</asrwt>
<pdfrwt beam="1">  1        2 0.32419099E+00 0.35400407E+04</pdfrwt>
<pdfrwt beam="2">  1       -2 0.22873303E+00 0.35400407E+04</pdfrwt>
<totfact> 0.41519276E-01</totfact>
</mgrwt>
</event>
<event>
 6    1  0.2436515E-005  0.2900716E+04  0.7818608E-02  0.8272665E-01
         -2   -1    0    0    0  501 -0.00000000000E+00  0.00000000000E+00  0.13237607468E+04  0.13237607468E+04  0.00000000000E+00 0. -1.
          2   -1    0    0  501    0  0.00000000000E+00 -0.00000000000E+00 -0.15890620493E+04  0.15890620493E+04  0.00000000000E+00 0.  1.
         23    2    1    2    0    0  0.18121410472E+03 -0.13127856979E+04 -0.72112428300E+03  0.15113880206E+04  0.89602885631E+02 0.  0.
         13    1    3    3    0    0  0.15794101150E+03 -0.11527916637E+04 -0.59846653867E+03  0.13084480046E+04  0.00000000000E+00 0.  1.
        -13    1    3    3    0    0  0.23273093220E+02 -0.15999403418E+03 -0.12265774434E+03  0.20294001598E+03  0.00000000000E+00 0. -1.
         22    1    1    2    0    0 -0.18121410472E+03  0.13127856979E+04  0.45582298056E+03  0.14014347755E+04  0.00000000000E+00 0. -1.
<mgrwt>
<rscale>  0 0.29007157E+04</rscale>
<asrwt>0</asrwt>
<pdfrwt beam="1">  1        2 0.24447109E+00 0.29007157E+04</pdfrwt>
<pdfrwt beam="2">  1       -2 0.20365550E+00 0.29007157E+04</pdfrwt>
<totfact> 0.12287578E+00</totfact>
</mgrwt>
</event>
<event>
 6    1  0.2436515E-005  0.2941011E+04  0.7818608E-02  0.8260779E-01
          2   -1    0    0  501    0  0.00000000000E+00  0.00000000000E+00  0.29291791184E+04  0.29291791184E+04  0.00000000000E+00 0.  1.
         -2   -1    0    0    0  501 -0.00000000000E+00 -0.00000000000E+00 -0.73822252570E+03  0.73822252570E+03  0.00000000000E+00 0. -1.
         23    2    1    2    0    0  0.11313111963E+04 -0.58271415152E+03  0.18076722660E+03  0.12882669079E+04  0.86798793699E+02 0.  0.
         11    1    3    3    0    0  0.83223618308E+03 -0.38526104900E+03  0.12430743259E+03  0.92547040909E+03  0.00000000000E+00 0. -1.
        -11    1    3    3    0    0  0.29907501323E+03 -0.19745310253E+03  0.56459794019E+02  0.36279649885E+03  0.00000000000E+00 0.  1.
         22    1    1    2    0    0 -0.11313111963E+04  0.58271415152E+03  0.20101893661E+04  0.23791347362E+04  0.00000000000E+00 0.  1.
<mgrwt>
<rscale>  0 0.29410107E+04</rscale>
<asrwt>0</asrwt>
<pdfrwt beam="1">  1        2 0.45064293E+00 0.29410107E+04</pdfrwt>
<pdfrwt beam="2">  1       -2 0.11357270E+00 0.29410107E+04</pdfrwt>
<totfact> 0.10073138E+00</totfact>
</mgrwt>
</event>
<event>
 6    1  0.2436515E-005  0.2759103E+04  0.7818608E-02  0.8316079E-01
         -2   -1    0    0    0  501 -0.00000000000E+00  0.00000000000E+00  0.96938521959E+03  0.96938521959E+03  0.00000000000E+00 0. -1.
          2   -1    0    0  501    0  0.00000000000E+00 -0.00000000000E+00 -0.19632666882E+04  0.19632666882E+04  0.00000000000E+00 0.  1.
         23    2    1    2    0    0  0.12879215958E+04  0.40787693794E+03 -0.20834905761E+03  0.13699085501E+04  0.90191309562E+02 0.  0.
         13    1    3    3    0    0  0.83087312897E+03  0.30595738829E+03 -0.12295444633E+03  0.89391155925E+03  0.00000000000E+00 0.  1.
        -13    1    3    3    0    0  0.45704846682E+03  0.10191954965E+03 -0.85394611279E+02  0.47599699081E+03  0.00000000000E+00 0. -1.
         22    1    1    2    0    0 -0.12879215958E+04 -0.40787693794E+03 -0.78553241101E+03  0.15627433577E+04  0.00000000000E+00 0. -1.
<mgrwt>
<rscale>  0 0.27591025E+04</rscale>
<asrwt>0</asrwt>
<pdfrwt beam="1">  1        2 0.30204103E+00 0.27591025E+04</pdfrwt>
<pdfrwt beam="2">  1       -2 0.14913619E+00 0.27591025E+04</pdfrwt>
<totfact> 0.18603483E+00</totfact>
</mgrwt>
</event>
<event>
 6    1  0.2436515E-005  0.1563599E+04  0.7818608E-02  0.8843228E-01
         -2   -1    0    0    0  501 -0.00000000000E+00  0.00000000000E+00  0.78615802131E+03  0.78615802131E+03  0.00000000000E+00 0. -1.
          2   -1    0    0  501    0  0.00000000000E+00 -0.00000000000E+00 -0.77746499542E+03  0.77746499542E+03  0.00000000000E+00 0.  1.
         23    2    1    2    0    0  0.50598723373E+03 -0.56694700416E+03 -0.17139306675E+03  0.78267296263E+03  0.75824777497E+02 0.  0.
         13    1    3    3    0    0  0.16238118667E+03 -0.23694204490E+03 -0.67221485481E+02  0.29500493307E+03  0.00000000000E+00 0.  1.
        -13    1    3    3    0    0  0.34360604706E+03 -0.33000495925E+03 -0.10417158127E+03  0.48766802956E+03  0.00000000000E+00 0. -1.
         22    1    1    2    0    0 -0.50598723373E+03  0.56694700416E+03  0.18008609264E+03  0.78095005409E+03  0.00000000000E+00 0.  1.
<mgrwt>
<rscale>  0 0.15635989E+04</rscale>
<asrwt>0</asrwt>
<pdfrwt beam="1">  1        2 0.11961000E+00 0.15635989E+04</pdfrwt>
<pdfrwt beam="2">  1       -2 0.12094739E+00 0.15635989E+04</pdfrwt>
<totfact> 0.17911501E+01</totfact>
</mgrwt>
</event>
<event>
 6    1  0.2436515E-005  0.8689728E+03  0.7818608E-02  0.9465220E-01
          2   -1    0    0  501    0  0.00000000000E+00  0.00000000000E+00  0.75387115033E+03  0.75387115033E+03  0.00000000000E+00 0. -1.
         -2   -1    0    0    0  501 -0.00000000000E+00 -0.00000000000E+00 -0.25041208855E+03  0.25041208855E+03  0.00000000000E+00 0.  1.
         23    2    1    2    0    0  0.97032595731E+01 -0.40894664460E+03  0.40609295157E+03  0.58379344021E+03  0.92583930274E+02 0.  0.
         13    1    3    3    0    0 -0.34282962584E+02 -0.85571014192E+02  0.74309047535E+02  0.11840419984E+03  0.00000000000E+00 0.  1.
        -13    1    3    3    0    0  0.43986222157E+02 -0.32337563041E+03  0.33178390403E+03  0.46538924037E+03  0.00000000000E+00 0. -1.
         22    1    1    2    0    0 -0.97032595731E+01  0.40894664460E+03  0.97366110213E+02  0.42048979868E+03  0.00000000000E+00 0.  1.
<mgrwt>
<rscale>  0 0.86897284E+03</rscale>
<asrwt>0</asrwt>
<pdfrwt beam="1">  1        2 0.11598018E+00 0.86897284E+03</pdfrwt>
<pdfrwt beam="2">  1       -2 0.38524937E-01 0.86897284E+03</pdfrwt>
<totfact> 0.23788075E+02</totfact>
</mgrwt>
</event>
<event>
 6    1  0.2436515E-005  0.2449409E+04  0.7818608E-02  0.8421234E-01
         -2   -1    0    0    0  501 -0.00000000000E+00  0.00000000000E+00  0.11189708452E+04  0.11189708452E+04  0.00000000000E+00 0.  1.
          2   -1    0    0  501    0  0.00000000000E+00 -0.00000000000E+00 -0.13404292692E+04  0.13404292692E+04  0.00000000000E+00 0. -1.
         23    2    1    2    0    0 -0.86233025093E+02  0.12199348433E+04 -0.92600478903E+02  0.12296515522E+04  0.88266270762E+02 0.  0.
         11    1    3    3    0    0 -0.38993856133E+02  0.55500746816E+03 -0.86227769355E+02  0.56301779611E+03  0.00000000000E+00 0. -1.
        -11    1    3    3    0    0 -0.47239168960E+02  0.66492737512E+03 -0.63727095475E+01  0.66663375604E+03  0.00000000000E+00 0.  1.
         22    1    1    2    0    0  0.86233025093E+02 -0.12199348433E+04 -0.12885794514E+03  0.12297485623E+04  0.00000000000E+00 0. -1.
<mgrwt>
<rscale>  0 0.24494091E+04</rscale>
<asrwt>0</asrwt>
<pdfrwt beam="1">  1        2 0.20621989E+00 0.24494091E+04</pdfrwt>
<pdfrwt beam="2">  1       -2 0.17214936E+00 0.24494091E+04</pdfrwt>
<totfact> 0.28864258E+00</totfact>
</mgrwt>
</event>
<event>
 6    1  0.2436515E-005  0.3220971E+04  0.7818608E-02  0.8183301E-01
         -2   -1    0    0    0  501 -0.00000000000E+00  0.00000000000E+00  0.12927370471E+04  0.12927370471E+04  0.00000000000E+00 0. -1.
          2   -1    0    0  501    0  0.00000000000E+00 -0.00000000000E+00 -0.20063345206E+04  0.20063345206E+04  0.00000000000E+00 0.  1.
         23    2    1    2    0    0  0.32384441890E+03 -0.15387105037E+04 -0.70753454194E+03  0.17266396993E+04  0.90411842183E+02 0.  0.
         13    1    3    3    0    0  0.13287356275E+03 -0.79481894870E+03 -0.39530613128E+03  0.89758536214E+03  0.00000000000E+00 0. -1.
        -13    1    3    3    0    0  0.19097085615E+03 -0.74389155500E+03 -0.31222841066E+03  0.82905433713E+03  0.00000000000E+00 0.  1.
         22    1    1    2    0    0 -0.32384441890E+03  0.15387105037E+04 -0.60629316157E+01  0.15724318685E+04  0.00000000000E+00 0.  1.
<mgrwt>
<rscale>  0 0.32209706E+04</rscale>
<asrwt>0</asrwt>
<pdfrwt beam="1">  1        2 0.30866685E+00 0.32209706E+04</pdfrwt>
<pdfrwt beam="2">  1       -2 0.19888262E+00 0.32209706E+04</pdfrwt>
<totfact> 0.75363305E-01</totfact>
</mgrwt>
</event>
<event>
 6    1  0.2436515E-005  0.2239392E+04  0.7818608E-02  0.8502209E-01
          2   -1    0    0  501    0  0.00000000000E+00  0.00000000000E+00  0.12900917143E+04  0.12900917143E+04  0.00000000000E+00 0.  1.
         -2   -1    0    0    0  501 -0.00000000000E+00 -0.00000000000E+00 -0.97180630515E+03  0.97180630515E+03  0.00000000000E+00 0. -1.
         23    2    1    2    0    0 -0.33706086482E+03  0.49225468468E+03 -0.79494596279E+03  0.99888226790E+03  0.99508794452E+02 0.  0.
         13    1    3    3    0    0 -0.14536249047E+03  0.13269934096E+03 -0.27908280723E+03  0.34150634257E+03  0.00000000000E+00 0. -1.
        -13    1    3    3    0    0 -0.19169837435E+03  0.35955534372E+03 -0.51586315557E+03  0.65737592533E+03  0.00000000000E+00 0.  1.
         22    1    1    2    0    0  0.33706086482E+03 -0.49225468468E+03  0.11132313719E+04  0.12630157515E+04  0.00000000000E+00 0.  1.
<mgrwt>
<rscale>  0 0.22393921E+04</rscale>
<asrwt>0</asrwt>
<pdfrwt beam="1">  1        2 0.19847565E+00 0.22393921E+04</pdfrwt>
<pdfrwt beam="2">  1       -2 0.14950866E+00 0.22393921E+04</pdfrwt>
<totfact> 0.46139559E+00</totfact>
</mgrwt>
</event>
<event>
 6    1  0.2436515E-005  0.3382926E+04  0.7818608E-02  0.8142110E-01
          2   -1    0    0  501    0  0.00000000000E+00  0.00000000000E+00  0.11623911301E+04  0.11623911301E+04  0.00000000000E+00 0.  1.
         -2   -1    0    0    0  501 -0.00000000000E+00 -0.00000000000E+00 -0.24613465497E+04  0.24613465497E+04  0.00000000000E+00 0. -1.
         23    2    1    2    0    0  0.91008924915E+03 -0.11197594401E+04  0.29290998853E+03  0.14752128085E+04  0.91284851015E+02 0.  0.
         13    1    3    3    0    0  0.29190269009E+03 -0.29442879495E+03  0.90163802100E+02  0.42429353870E+03  0.00000000000E+00 0. -1.
        -13    1    3    3    0    0  0.61818655906E+03 -0.82533064513E+03  0.20274618643E+03  0.10509192698E+04  0.00000000000E+00 0.  1.
         22    1    1    2    0    0 -0.91008924915E+03  0.11197594401E+04 -0.15918654081E+04  0.21485248713E+04  0.00000000000E+00 0. -1.
<mgrwt>
<rscale>  0 0.33829262E+04</rscale>
<asrwt>0</asrwt>
<pdfrwt beam="1">  1        2 0.17882941E+00 0.33829262E+04</pdfrwt>
<pdfrwt beam="2">  1       -2 0.37866869E+00 0.33829262E+04</pdfrwt>
<totfact> 0.16893363E-01</totfact>
</mgrwt>
</event>
<event>
 6    1  0.2436515E-005  0.2343428E+04  0.7818608E-02  0.8460992E-01
          2   -1    0    0  501    0  0.00000000000E+00  0.00000000000E+00  0.28397181130E+04  0.28397181130E+04  0.00000000000E+00 0.  1.
         -2   -1    0    0    0  501 -0.00000000000E+00 -0.00000000000E+00 -0.48346842628E+03  0.48346842628E+03  0.00000000000E+00 0. -1.
         23    2    1    2    0    0  0.26059296702E+03 -0.60673637831E+03 -0.18956964771E+03  0.69312307792E+03  0.91897892194E+02 0.  0.
         13    1    3    3    0    0  0.88474377860E+02 -0.31375607807E+03 -0.11088660652E+03  0.34433476672E+03  0.00000000000E+00 0.  1.
        -13    1    3    3    0    0  0.17211858916E+03 -0.29298030024E+03 -0.78683041187E+02  0.34878831120E+03  0.00000000000E+00 0. -1.
         22    1    1    2    0    0 -0.26059296702E+03  0.60673637831E+03  0.25458193344E+04  0.26300634613E+04  0.00000000000E+00 0.  1.
<mgrwt>
<rscale>  0 0.23434283E+04</rscale>
<asrwt>0</asrwt>
<pdfrwt beam="1">  1        2 0.43687970E+00 0.23434283E+04</pdfrwt>
<pdfrwt beam="2">  1       -2 0.74379760E-01 0.23434283E+04</pdfrwt>
<totfact> 0.32151932E+00</totfact>
</mgrwt>
</event>
<event>
 6    1  0.2436515E-005  0.1667517E+04  0.7818608E-02  0.8780111E-01
         -2   -1    0    0    0  501 -0.00000000000E+00  0.00000000000E+00  0.11691250867E+04  0.11691250867E+04  0.00000000000E+00 0. -1.
          2   -1    0    0  501    0  0.00000000000E+00 -0.00000000000E+00 -0.59459267079E+03  0.59459267079E+03  0.00000000000E+00 0.  1.
         23    2    1    2    0    0 -0.14963233803E+03 -0.15066854870E+03  0.11381478794E+04  0.11614277620E+04  0.91885813820E+02 0.  0.
         11    1    3    3    0    0 -0.15314140239E+03 -0.12814007334E+03  0.88460175655E+03  0.90685855304E+03  0.00000000000E+00 0. -1.
        -11    1    3    3    0    0  0.35090643594E+01 -0.22528475361E+02  0.25354612282E+03  0.25456920892E+03  0.00000000000E+00 0.  1.
         22    1    1    2    0    0  0.14963233803E+03  0.15066854870E+03 -0.56361546342E+03  0.60228999557E+03  0.00000000000E+00 0.  1.
<mgrwt>
<rscale>  0 0.16675170E+04</rscale>
<asrwt>0</asrwt>
<pdfrwt beam="1">  1        2 0.91475795E-01 0.16675170E+04</pdfrwt>
<pdfrwt beam="2">  1       -2 0.17986540E+00 0.16675170E+04</pdfrwt>
<totfact> 0.86842599E+00</totfact>
</mgrwt>
</event>
<event>
 6    1  0.2436515E-005  0.1754133E+04  0.7818608E-02  0.8731078E-01
          2   -1    0    0  501    0  0.00000000000E+00  0.00000000000E+00  0.17533218422E+04  0.17533218422E+04  0.00000000000E+00 0.  1.
         -2   -1    0    0    0  501 -0.00000000000E+00 -0.00000000000E+00 -0.43873633651E+03  0.43873633651E+03  0.00000000000E+00 0. -1.
         23    2    1    2    0    0 -0.24217733367E+02  0.86860436037E+03  0.53290013025E+03  0.10232587692E+04  0.89531706588E+02 0.  0.
         13    1    3    3    0    0  0.32896911699E+02  0.38485652833E+03  0.24584985743E+03  0.45786341478E+03  0.00000000000E+00 0. -1.
        -13    1    3    3    0    0 -0.57114645066E+02  0.48374783204E+03  0.28705027282E+03  0.56539535443E+03  0.00000000000E+00 0.  1.
         22    1    1    2    0    0  0.24217733367E+02 -0.86860436037E+03  0.78168537545E+03  0.11687994095E+04  0.00000000000E+00 0. -1.
<mgrwt>
<rscale>  0 0.17541334E+04</rscale>
<asrwt>0</asrwt>
<pdfrwt beam="1">  1        2 0.26974182E+00 0.17541334E+04</pdfrwt>
<pdfrwt beam="2">  1       -2 0.67497899E-01 0.17541334E+04</pdfrwt>
<totfact> 0.17462491E+01</totfact>
</mgrwt>
</event>
<event>
 6    1  0.2436515E-005  0.5069887E+04  0.7818608E-02  0.7817816E-01
          2   -1    0    0  501    0  0.00000000000E+00  0.00000000000E+00  0.20830678690E+04  0.20830678690E+04  0.00000000000E+00 0.  1.
         -2   -1    0    0    0  501 -0.00000000000E+00 -0.00000000000E+00 -0.30848430121E+04  0.30848430121E+04  0.00000000000E+00 0. -1.
         23    2    1    2    0    0  0.20734758317E+04  0.13795037419E+04 -0.23625148643E+02  0.24922595567E+04  0.92016039993E+02 0.  0.
         13    1    3    3    0    0  0.11144374582E+04  0.72292997997E+03 -0.55841218883E+02  0.13295551308E+04  0.00000000000E+00 0. -1.
        -13    1    3    3    0    0  0.95903837346E+03  0.65657376193E+03  0.32216070240E+02  0.11627044258E+04  0.00000000000E+00 0.  1.
         22    1    1    2    0    0 -0.20734758317E+04 -0.13795037419E+04 -0.97814999437E+03  0.26756513244E+04  0.00000000000E+00 0. -1.
<mgrwt>
<rscale>  0 0.50698865E+04</rscale>
<asrwt>0</asrwt>
<pdfrwt beam="1">  1        2 0.32047198E+00 0.50698865E+04</pdfrwt>
<pdfrwt beam="2">  1       -2 0.47459123E+00 0.50698865E+04</pdfrwt>
<totfact> 0.10456712E-02</totfact>
</mgrwt>
</event>
<event>
 6    1  0.2436515E-005  0.7873793E+03  0.7818608E-02  0.9578467E-01
          2   -1    0    0  501    0  0.00000000000E+00  0.00000000000E+00  0.54551072052E+03  0.54551072052E+03  0.00000000000E+00 0.  1.
         -2   -1    0    0    0  501 -0.00000000000E+00 -0.00000000000E+00 -0.28412191954E+03  0.28412191954E+03  0.00000000000E+00 0. -1.
         23    2    1    2    0    0 -0.11566638735E+03 -0.95764872857E+02  0.50981053611E+03  0.53935177172E+03  0.91890842248E+02 0.  0.
         11    1    3    3    0    0 -0.11662696983E+03 -0.10488094412E+03  0.40770299718E+03  0.43683360269E+03  0.00000000000E+00 0. -1.
        -11    1    3    3    0    0  0.96058247417E+00  0.91160712649E+01  0.10210753893E+03  0.10251816903E+03  0.00000000000E+00 0.  1.
         22    1    1    2    0    0  0.11566638735E+03  0.95764872857E+02 -0.24842173513E+03  0.29028086834E+03  0.00000000000E+00 0. -1.
<mgrwt>
<rscale>  0 0.78737933E+03</rscale>
<asrwt>0</asrwt>
<pdfrwt beam="1">  1        2 0.83924726E-01 0.78737933E+03</pdfrwt>
<pdfrwt beam="2">  1       -2 0.43711065E-01 0.78737933E+03</pdfrwt>
<totfact> 0.27776822E+02</totfact>
</mgrwt>
</event>
<event>
 6    1  0.2436515E-005  0.3082711E+04  0.7818608E-02  0.8220499E-01
         -2   -1    0    0    0  501 -0.00000000000E+00  0.00000000000E+00  0.17067626264E+04  0.17067626264E+04  0.00000000000E+00 0. -1.
          2   -1    0    0  501    0  0.00000000000E+00 -0.00000000000E+00 -0.13919786916E+04  0.13919786916E+04  0.00000000000E+00 0.  1.
         23    2    1    2    0    0  0.62087273352E+03  0.69017336625E+03  0.13926626443E+04  0.16761926407E+04  0.91051091303E+02 0.  0.
         11    1    3    3    0    0  0.35296739764E+02  0.75810907134E+02  0.11065836132E+03  0.13870265465E+03  0.00000000000E+00 0. -1.
        -11    1    3    3    0    0  0.58557599375E+03  0.61436245912E+03  0.12820042830E+04  0.15374899861E+04  0.00000000000E+00 0.  1.
         22    1    1    2    0    0 -0.62087273352E+03 -0.69017336625E+03 -0.10778787096E+04  0.14225486773E+04  0.00000000000E+00 0.  1.
<mgrwt>
<rscale>  0 0.30827113E+04</rscale>
<asrwt>0</asrwt>
<pdfrwt beam="1">  1        2 0.21415057E+00 0.30827113E+04</pdfrwt>
<pdfrwt beam="2">  1       -2 0.26257887E+00 0.30827113E+04</pdfrwt>
<totfact> 0.66899209E-01</totfact>
</mgrwt>
</event>
<event>
 6    1  0.2436515E-005  0.2587220E+04  0.7818608E-02  0.8372555E-01
          2   -1    0    0  501    0  0.00000000000E+00  0.00000000000E+00  0.85961241033E+03  0.85961241033E+03  0.00000000000E+00 0.  1.
         -2   -1    0    0    0  501 -0.00000000000E+00 -0.00000000000E+00 -0.19467232609E+04  0.19467232609E+04  0.00000000000E+00 0. -1.
         23    2    1    2    0    0  0.85718483441E+03 -0.95461436136E+03 -0.70970423258E+03  0.14689912225E+04  0.90557688140E+02 0.  0.
         13    1    3    3    0    0  0.54243515678E+03 -0.62184928127E+03 -0.40824090131E+03  0.92064817462E+03  0.00000000000E+00 0.  1.
        -13    1    3    3    0    0  0.31474967763E+03 -0.33276508009E+03 -0.30146333127E+03  0.54834304791E+03  0.00000000000E+00 0. -1.
         22    1    1    2    0    0 -0.85718483441E+03  0.95461436136E+03 -0.37740661802E+03  0.13373444487E+04  0.00000000000E+00 0. -1.
<mgrwt>
<rscale>  0 0.25872205E+04</rscale>
<asrwt>0</asrwt>
<pdfrwt beam="1">  1        2 0.13224806E+00 0.25872205E+04</pdfrwt>
<pdfrwt beam="2">  1       -2 0.29949588E+00 0.25872205E+04</pdfrwt>
<totfact> 0.88595528E-01</totfact>
</mgrwt>
</event>
<event>
 6    1  0.2436515E-005  0.1088063E+04  0.7818608E-02  0.9216906E-01
         -2   -1    0    0    0  501 -0.00000000000E+00  0.00000000000E+00  0.11090702780E+03  0.11090702780E+03  0.00000000000E+00 0.  1.
          2   -1    0    0  501    0  0.00000000000E+00 -0.00000000000E+00 -0.26686319463E+04  0.26686319463E+04  0.00000000000E+00 0. -1.
         23    2    1    2    0    0 -0.30453460810E+03 -0.36515987553E+03 -0.19427817924E+04  0.20022114302E+04  0.91468332979E+02 0.  0.
         11    1    3    3    0    0 -0.83612269467E+02 -0.70616003513E+02 -0.32043142483E+03  0.33860586170E+03  0.00000000000E+00 0.  1.
        -11    1    3    3    0    0 -0.22092233864E+03 -0.29454387202E+03 -0.16223503676E+04  0.16636055685E+04  0.00000000000E+00 0. -1.
         22    1    1    2    0    0  0.30453460810E+03  0.36515987553E+03 -0.61494312609E+03  0.77732754394E+03  0.00000000000E+00 0. -1.
<mgrwt>
<rscale>  0 0.10880626E+04</rscale>
<asrwt>0</asrwt>
<pdfrwt beam="1">  1        2 0.41055872E+00 0.10880626E+04</pdfrwt>
<pdfrwt beam="2">  1       -2 0.17062622E-01 0.10880626E+04</pdfrwt>
<totfact> 0.78567789E+01</totfact>
</mgrwt>
</event>
<event>
 6    1  0.2436515E-005  0.1386883E+04  0.7818608E-02  0.8963368E-01
         -2   -1    0    0    0  501 -0.00000000000E+00  0.00000000000E+00  0.23495710287E+03  0.23495710287E+03  0.00000000000E+00 0. -1.
          2   -1    0    0  501    0  0.00000000000E+00 -0.00000000000E+00 -0.20465921028E+04  0.20465921028E+04  0.00000000000E+00 0.  1.
         23    2    1    2    0    0 -0.32205094408E+03 -0.45028830040E+03 -0.23104044195E+03  0.60680877182E+03  0.91437605434E+02 0.  0.
         11    1    3    3    0    0 -0.77709337447E+02 -0.17930860224E+03 -0.65182298223E+02  0.20600739784E+03  0.00000000000E+00 0. -1.
        -11    1    3    3    0    0 -0.24434160663E+03 -0.27097969816E+03 -0.16585814373E+03  0.40080137398E+03  0.00000000000E+00 0.  1.
         22    1    1    2    0    0  0.32205094408E+03  0.45028830040E+03 -0.15805945580E+04  0.16747404338E+04  0.00000000000E+00 0.  1.
<mgrwt>
<rscale>  0 0.13868833E+04</rscale>
<asrwt>0</asrwt>
<pdfrwt beam="1">  1        2 0.31486033E+00 0.13868833E+04</pdfrwt>
<pdfrwt beam="2">  1       -2 0.36147246E-01 0.13868833E+04</pdfrwt>
<totfact> 0.44186166E+01</totfact>
</mgrwt>
</event>
<event>
 6    1  0.2436515E-005  0.2554931E+04  0.7818608E-02  0.8383673E-01
         -2   -1    0    0    0  501 -0.00000000000E+00  0.00000000000E+00  0.11085739436E+04  0.11085739436E+04  0.00000000000E+00 0. -1.
          2   -1    0    0  501    0  0.00000000000E+00 -0.00000000000E+00 -0.14720873227E+04  0.14720873227E+04  0.00000000000E+00 0.  1.
         23    2    1    2    0    0  0.90050795330E+03 -0.55014384956E+03 -0.90624488635E+03  0.13940145968E+04  0.91782748848E+02 0.  0.
         13    1    3    3    0    0  0.50156350488E+03 -0.30945294853E+03 -0.44583268057E+03  0.73898163430E+03  0.00000000000E+00 0.  1.
        -13    1    3    3    0    0  0.39894444842E+03 -0.24069090104E+03 -0.46041220578E+03  0.65503296253E+03  0.00000000000E+00 0. -1.
         22    1    1    2    0    0 -0.90050795330E+03  0.55014384956E+03  0.54273150720E+03  0.11866466694E+04  0.00000000000E+00 0. -1.
<mgrwt>
<rscale>  0 0.25549306E+04</rscale>
<asrwt>0</asrwt>
<pdfrwt beam="1">  1        2 0.22647497E+00 0.25549306E+04</pdfrwt>
<pdfrwt beam="2">  1       -2 0.17054984E+00 0.25549306E+04</pdfrwt>
<totfact> 0.24691177E+00</totfact>
</mgrwt>
</event>
<event>
 6    1  0.2436515E-005  0.7991580E+03  0.7818608E-02  0.9561237E-01
         -2   -1    0    0    0  501 -0.00000000000E+00  0.00000000000E+00  0.30883688794E+03  0.30883688794E+03  0.00000000000E+00 0. -1.
          2   -1    0    0  501    0  0.00000000000E+00 -0.00000000000E+00 -0.51698283004E+03  0.51698283004E+03  0.00000000000E+00 0.  1.
         23    2    1    2    0    0 -0.22014156661E+03 -0.32213908764E+03 -0.46950774734E+02  0.40365886816E+03  0.92196558815E+02 0.  0.
         13    1    3    3    0    0 -0.14160130569E+03 -0.17666903330E+03 -0.69430012188E+02  0.23681934822E+03  0.00000000000E+00 0. -1.
        -13    1    3    3    0    0 -0.78540260925E+02 -0.14547005434E+03  0.22479237454E+02  0.16683951993E+03  0.00000000000E+00 0.  1.
         22    1    1    2    0    0  0.22014156661E+03  0.32213908764E+03 -0.16119516736E+03  0.42216084982E+03  0.00000000000E+00 0.  1.
<mgrwt>
<rscale>  0 0.79915798E+03</rscale>
<asrwt>0</asrwt>
<pdfrwt beam="1">  1        2 0.79535818E-01 0.79915798E+03</pdfrwt>
<pdfrwt beam="2">  1       -2 0.47513368E-01 0.79915798E+03</pdfrwt>
<totfact> 0.25031456E+02</totfact>
</mgrwt>
</event>
<event>
 6    1  0.2436515E-005  0.1799155E+04  0.7818608E-02  0.8706749E-01
          2   -1    0    0  501    0  0.00000000000E+00  0.00000000000E+00  0.30142835239E+04  0.30142835239E+04  0.00000000000E+00 0.  1.
         -2   -1    0    0    0  501 -0.00000000000E+00 -0.00000000000E+00 -0.26846834550E+03  0.26846834550E+03  0.00000000000E+00 0. -1.
         23    2    1    2    0    0  0.60667693695E+02 -0.76243502283E+03  0.22323874024E+04  0.23615592651E+04  0.91765543384E+02 0.  0.
         13    1    3    3    0    0  0.39386282487E+02 -0.53937967444E+03  0.14441473725E+04  0.15420905764E+04  0.00000000000E+00 0.  1.
        -13    1    3    3    0    0  0.21281411208E+02 -0.22305534839E+03  0.78824002994E+03  0.81946868867E+03  0.00000000000E+00 0. -1.
         22    1    1    2    0    0 -0.60667693695E+02  0.76243502283E+03  0.51342777598E+03  0.92119260431E+03  0.00000000000E+00 0. -1.
<mgrwt>
<rscale>  0 0.17991550E+04</rscale>
<asrwt>0</asrwt>
<pdfrwt beam="1">  1        2 0.46373590E+00 0.17991550E+04</pdfrwt>
<pdfrwt beam="2">  1       -2 0.41302824E-01 0.17991550E+04</pdfrwt>
<totfact> 0.89774518E+00</totfact>
</mgrwt>
</event>
<event>
 6    1  0.2436515E-005  0.3647646E+04  0.7818608E-02  0.8079664E-01
          2   -1    0    0  501    0  0.00000000000E+00  0.00000000000E+00  0.34064099708E+04  0.34064099708E+04  0.00000000000E+00 0.  1.
         -2   -1    0    0    0  501 -0.00000000000E+00 -0.00000000000E+00 -0.97649166158E+03  0.97649166158E+03  0.00000000000E+00 0. -1.
         23    2    1    2    0    0  0.68103879939E+03  0.16344575716E+04  0.17353231067E+04  0.24808690630E+04  0.89997906326E+02 0.  0.
         13    1    3    3    0    0  0.30309237368E+03  0.66484760249E+03  0.76815044500E+03  0.10601615102E+04  0.00000000000E+00 0.  1.
        -13    1    3    3    0    0  0.37794642571E+03  0.96960996913E+03  0.96717266172E+03  0.14207075528E+04  0.00000000000E+00 0. -1.
         22    1    1    2    0    0 -0.68103879939E+03 -0.16344575716E+04  0.69459520245E+03  0.19020325694E+04  0.00000000000E+00 0. -1.
<mgrwt>
<rscale>  0 0.36476463E+04</rscale>
<asrwt>0</asrwt>
<pdfrwt beam="1">  1        2 0.52406307E+00 0.36476463E+04</pdfrwt>
<pdfrwt beam="2">  1       -2 0.15022949E+00 0.36476463E+04</pdfrwt>
<totfact> 0.22831521E-01</totfact>
</mgrwt>
</event>
<event>
 6    1  0.2436515E-005  0.1241829E+04  0.7818608E-02  0.9077011E-01
         -2   -1    0    0    0  501 -0.00000000000E+00  0.00000000000E+00  0.28631848646E+03  0.28631848646E+03  0.00000000000E+00 0. -1.
          2   -1    0    0  501    0  0.00000000000E+00 -0.00000000000E+00 -0.13465251700E+04  0.13465251700E+04  0.00000000000E+00 0.  1.
         23    2    1    2    0    0  0.37635149642E+03 -0.20775559118E+03 -0.11162822237E+04  0.11993147639E+04  0.86412183223E+02 0.  0.
         13    1    3    3    0    0  0.28547200769E+03 -0.11327894644E+03 -0.76285322400E+03  0.82235723882E+03  0.00000000000E+00 0.  1.
        -13    1    3    3    0    0  0.90879488735E+02 -0.94476644745E+02 -0.35342899970E+03  0.37695752506E+03  0.00000000000E+00 0. -1.
         22    1    1    2    0    0 -0.37635149642E+03  0.20775559118E+03  0.56075540128E+02  0.43352889261E+03  0.00000000000E+00 0. -1.
<mgrwt>
<rscale>  0 0.12418294E+04</rscale>
<asrwt>0</asrwt>
<pdfrwt beam="1">  1        2 0.20715772E+00 0.12418294E+04</pdfrwt>
<pdfrwt beam="2">  1       -2 0.44048997E-01 0.12418294E+04</pdfrwt>
<totfact> 0.74673314E+01</totfact>
</mgrwt>
</event>
<event>
 6    1  0.2436515E-005  0.4032857E+04  0.7818608E-02  0.7997951E-01
         -2   -1    0    0    0  501 -0.00000000000E+00  0.00000000000E+00  0.14029288164E+04  0.14029288164E+04  0.00000000000E+00 0. -1.
          2   -1    0    0  501    0  0.00000000000E+00 -0.00000000000E+00 -0.28982105368E+04  0.28982105368E+04  0.00000000000E+00 0.  1.
         23    2    1    2    0    0 -0.18833386508E+04  0.63409946500E+03 -0.38925716844E+03  0.20268621241E+04  0.87191293439E+02 0.  0.
         13    1    3    3    0    0 -0.30071994809E+03  0.12247484821E+03 -0.38063543963E+02  0.32692722279E+03  0.00000000000E+00 0. -1.
        -13    1    3    3    0    0 -0.15826187027E+04  0.51162461679E+03 -0.35119362448E+03  0.16999349013E+04  0.00000000000E+00 0.  1.
         22    1    1    2    0    0  0.18833386508E+04 -0.63409946500E+03 -0.11060245519E+04  0.22742772291E+04  0.00000000000E+00 0.  1.
<mgrwt>
<rscale>  0 0.40328566E+04</rscale>
<asrwt>0</asrwt>
<pdfrwt beam="1">  1        2 0.44587854E+00 0.40328566E+04</pdfrwt>
<pdfrwt beam="2">  1       -2 0.21583520E+00 0.40328566E+04</pdfrwt>
<totfact> 0.16641079E-01</totfact>
</mgrwt>
</event>
<event>
 6    1  0.2436515E-005  0.1716906E+04  0.7818608E-02  0.8751781E-01
          2   -1    0    0  501    0  0.00000000000E+00  0.00000000000E+00  0.15272724489E+04  0.15272724489E+04  0.00000000000E+00 0.  1.
         -2   -1    0    0    0  501 -0.00000000000E+00 -0.00000000000E+00 -0.48252132816E+03  0.48252132816E+03  0.00000000000E+00 0. -1.
         23    2    1    2    0    0 -0.18346332009E+03 -0.69703865211E+03  0.10631832439E+04  0.12887796194E+04  0.10522654086E+03 0.  0.
         11    1    3    3    0    0 -0.86357636495E+02 -0.51279388757E+03  0.74779599316E+03  0.91083152114E+03  0.00000000000E+00 0. -1.
        -11    1    3    3    0    0 -0.97105683590E+02 -0.18424476454E+03  0.31538725078E+03  0.37794809828E+03  0.00000000000E+00 0.  1.
         22    1    1    2    0    0  0.18346332009E+03  0.69703865211E+03 -0.18432123187E+02  0.72101415764E+03  0.00000000000E+00 0. -1.
<mgrwt>
<rscale>  0 0.17169060E+04</rscale>
<asrwt>0</asrwt>
<pdfrwt beam="1">  1        2 0.23496499E+00 0.17169060E+04</pdfrwt>
<pdfrwt beam="2">  1       -2 0.74234051E-01 0.17169060E+04</pdfrwt>
<totfact> 0.19018231E+01</totfact>
</mgrwt>
</event>
<event>
 6    1  0.2436515E-005  0.4258093E+04  0.7818608E-02  0.7954413E-01
          2   -1    0    0  501    0  0.00000000000E+00  0.00000000000E+00  0.29963341717E+04  0.29963341717E+04  0.00000000000E+00 0.  1.
         -2   -1    0    0    0  501 -0.00000000000E+00 -0.00000000000E+00 -0.15127946374E+04  0.15127946374E+04  0.00000000000E+00 0. -1.
         23    2    1    2    0    0  0.11602328241E+04 -0.11276366977E+04  0.22060758633E+04  0.27371910350E+04  0.87973402545E+02 0.  0.
         13    1    3    3    0    0  0.83307964802E+03 -0.85141184872E+03  0.16638485617E+04  0.20462932029E+04  0.00000000000E+00 0. -1.
        -13    1    3    3    0    0  0.32715317610E+03 -0.27622484901E+03  0.54222730156E+03  0.69089783210E+03  0.00000000000E+00 0.  1.
         22    1    1    2    0    0 -0.11602328241E+04  0.11276366977E+04 -0.72253632898E+03  0.17719377740E+04  0.00000000000E+00 0. -1.
<mgrwt>
<rscale>  0 0.42580927E+04</rscale>
<asrwt>0</asrwt>
<pdfrwt beam="1">  1        2 0.46097449E+00 0.42580927E+04</pdfrwt>
<pdfrwt beam="2">  1       -2 0.23273764E+00 0.42580927E+04</pdfrwt>
<totfact> 0.11109933E-01</totfact>
</mgrwt>
</event>
<event>
 6    1  0.2436515E-005  0.2179944E+04  0.7818608E-02  0.8526822E-01
         -2   -1    0    0    0  501 -0.00000000000E+00  0.00000000000E+00  0.32866985614E+03  0.32866985614E+03  0.00000000000E+00 0.  1.
          2   -1    0    0  501    0  0.00000000000E+00 -0.00000000000E+00 -0.36146890925E+04  0.36146890925E+04  0.00000000000E+00 0. -1.
         23    2    1    2    0    0 -0.19814470836E+03  0.10699159182E+04 -0.16488948511E+04  0.19776128688E+04  0.90094569119E+02 0.  0.
         13    1    3    3    0    0 -0.15259026769E+03  0.95693137448E+03 -0.14901369822E+04  0.17775009623E+04  0.00000000000E+00 0.  1.
        -13    1    3    3    0    0 -0.45554440666E+02  0.11298454375E+03 -0.15875786888E+03  0.20011190650E+03  0.00000000000E+00 0. -1.
         22    1    1    2    0    0  0.19814470836E+03 -0.10699159182E+04 -0.16371243852E+04  0.19657460798E+04  0.00000000000E+00 0. -1.
<mgrwt>
<rscale>  0 0.21799444E+04</rscale>
<asrwt>0</asrwt>
<pdfrwt beam="1">  1        2 0.55610601E+00 0.21799444E+04</pdfrwt>
<pdfrwt beam="2">  1       -2 0.50564594E-01 0.21799444E+04</pdfrwt>
<totfact> 0.22915687E+00</totfact>
</mgrwt>
</event>
<event>
 6    1  0.2436515E-005  0.1343803E+04  0.7818608E-02  0.8995533E-01
          2   -1    0    0  501    0  0.00000000000E+00  0.00000000000E+00  0.74672699050E+03  0.74672699050E+03  0.00000000000E+00 0.  1.
         -2   -1    0    0    0  501 -0.00000000000E+00 -0.00000000000E+00 -0.60457377656E+03  0.60457377656E+03  0.00000000000E+00 0. -1.
         23    2    1    2    0    0  0.51847570811E+03  0.13452669032E+03  0.47412401657E+03  0.72112689890E+03  0.91191726195E+02 0.  0.
         11    1    3    3    0    0  0.29469187631E+03  0.42526006170E+02  0.30273680327E+03  0.42461904716E+03  0.00000000000E+00 0.  1.
        -11    1    3    3    0    0  0.22378383180E+03  0.92000684148E+02  0.17138721331E+03  0.29650785174E+03  0.00000000000E+00 0. -1.
         22    1    1    2    0    0 -0.51847570811E+03 -0.13452669032E+03 -0.33197080263E+03  0.63017386816E+03  0.00000000000E+00 0. -1.
<mgrwt>
<rscale>  0 0.13438029E+04</rscale>
<asrwt>0</asrwt>
<pdfrwt beam="1">  1        2 0.11488107E+00 0.13438029E+04</pdfrwt>
<pdfrwt beam="2">  1       -2 0.93011351E-01 0.13438029E+04</pdfrwt>
<totfact> 0.36097890E+01</totfact>
</mgrwt>
</event>
<event>
 6    1  0.2436515E-005  0.2734799E+04  0.7818608E-02  0.8323802E-01
          2   -1    0    0  501    0  0.00000000000E+00  0.00000000000E+00  0.14582437949E+04  0.14582437949E+04  0.00000000000E+00 0.  1.
         -2   -1    0    0    0  501 -0.00000000000E+00 -0.00000000000E+00 -0.12822141204E+04  0.12822141204E+04  0.00000000000E+00 0. -1.
         23    2    1    2    0    0  0.11339370172E+03  0.75487452147E+03 -0.10468848248E+04  0.12988568792E+04  0.91475031897E+02 0.  0.
         11    1    3    3    0    0  0.46167626998E+01  0.30465459280E+03 -0.44710688349E+03  0.54105480377E+03  0.00000000000E+00 0.  1.
        -11    1    3    3    0    0  0.10877693902E+03  0.45021992867E+03 -0.59977794134E+03  0.75780207545E+03  0.00000000000E+00 0. -1.
         22    1    1    2    0    0 -0.11339370172E+03 -0.75487452147E+03  0.12229144993E+04  0.14416010361E+04  0.00000000000E+00 0.  1.
<mgrwt>
<rscale>  0 0.27347986E+04</rscale>
<asrwt>0</asrwt>
<pdfrwt beam="1">  1        2 0.22434520E+00 0.27347986E+04</pdfrwt>
<pdfrwt beam="2">  1       -2 0.19726371E+00 0.27347986E+04</pdfrwt>
<totfact> 0.16259447E+00</totfact>
</mgrwt>
</event>
<event>
 6    1  0.2436515E-005  0.3833112E+04  0.7818608E-02  0.8039086E-01
          2   -1    0    0  501    0  0.00000000000E+00  0.00000000000E+00  0.30262458082E+04  0.30262458082E+04  0.00000000000E+00 0.  1.
         -2   -1    0    0    0  501 -0.00000000000E+00 -0.00000000000E+00 -0.12137765957E+04  0.12137765957E+04  0.00000000000E+00 0. -1.
         23    2    1    2    0    0 -0.14494142904E+04 -0.58092260847E+03  0.21339585652E+04  0.26457739082E+04  0.89819556531E+02 0.  0.
         13    1    3    3    0    0 -0.33756685256E+03 -0.98255538705E+02  0.45486941213E+03  0.57490148106E+03  0.00000000000E+00 0. -1.
        -13    1    3    3    0    0 -0.11118474379E+04 -0.48266706976E+03  0.16790891531E+04  0.20708724271E+04  0.00000000000E+00 0.  1.
         22    1    1    2    0    0  0.14494142904E+04  0.58092260847E+03 -0.32148935267E+03  0.15942484957E+04  0.00000000000E+00 0. -1.
<mgrwt>
<rscale>  0 0.38331117E+04</rscale>
<asrwt>0</asrwt>
<pdfrwt beam="1">  1        2 0.46557627E+00 0.38331117E+04</pdfrwt>
<pdfrwt beam="2">  1       -2 0.18673486E+00 0.38331117E+04</pdfrwt>
<totfact> 0.21841924E-01</totfact>
</mgrwt>
</event>
<event>
 6    1  0.2436515E-005  0.2066932E+04  0.7818608E-02  0.8575952E-01
         -2   -1    0    0    0  501 -0.00000000000E+00  0.00000000000E+00  0.96406213179E+03  0.96406213179E+03  0.00000000000E+00 0. -1.
          2   -1    0    0  501    0  0.00000000000E+00 -0.00000000000E+00 -0.11078660939E+04  0.11078660939E+04  0.00000000000E+00 0.  1.
         23    2    1    2    0    0 -0.51163676460E+03  0.31179445918E+03  0.76959346886E+03  0.97955336761E+03  0.90899554555E+02 0.  0.
         13    1    3    3    0    0 -0.22197315975E+03  0.14661772401E+03  0.41375474009E+03  0.49189615326E+03  0.00000000000E+00 0. -1.
        -13    1    3    3    0    0 -0.28966360485E+03  0.16517673516E+03  0.35583872877E+03  0.48765721435E+03  0.00000000000E+00 0.  1.
         22    1    1    2    0    0  0.51163676460E+03 -0.31179445918E+03 -0.91339743101E+03  0.10923748581E+04  0.00000000000E+00 0.  1.
<mgrwt>
<rscale>  0 0.20669318E+04</rscale>
<asrwt>0</asrwt>
<pdfrwt beam="1">  1        2 0.17044094E+00 0.20669318E+04</pdfrwt>
<pdfrwt beam="2">  1       -2 0.14831725E+00 0.20669318E+04</pdfrwt>
<totfact> 0.61456676E+00</totfact>
</mgrwt>
</event>
<event>
 6    1  0.2436515E-005  0.2762332E+04  0.7818608E-02  0.8315059E-01
         -2   -1    0    0    0  501 -0.00000000000E+00  0.00000000000E+00  0.76571054165E+03  0.76571054165E+03  0.00000000000E+00 0. -1.
          2   -1    0    0  501    0  0.00000000000E+00 -0.00000000000E+00 -0.24913067936E+04  0.24913067936E+04  0.00000000000E+00 0.  1.
         23    2    1    2    0    0  0.97321552896E+03  0.97739101035E+03 -0.83066000157E+03  0.16128298322E+04  0.93714334197E+02 0.  0.
         13    1    3    3    0    0  0.69122801304E+03  0.63214900880E+03 -0.56393298883E+03  0.10933567356E+04  0.00000000000E+00 0.  1.
        -13    1    3    3    0    0  0.28198751592E+03  0.34524200155E+03 -0.26672701274E+03  0.51947309660E+03  0.00000000000E+00 0. -1.
         22    1    1    2    0    0 -0.97321552896E+03 -0.97739101035E+03 -0.89493625033E+03  0.16441875030E+04  0.00000000000E+00 0. -1.
<mgrwt>
<rscale>  0 0.27623323E+04</rscale>
<asrwt>0</asrwt>
<pdfrwt beam="1">  1        2 0.38327797E+00 0.27623323E+04</pdfrwt>
<pdfrwt beam="2">  1       -2 0.11780162E+00 0.27623323E+04</pdfrwt>
<totfact> 0.17083707E+00</totfact>
</mgrwt>
</event>
<event>
 6    1  0.2436515E-005  0.2849205E+04  0.7818608E-02  0.8288153E-01
         -2   -1    0    0    0  501 -0.00000000000E+00  0.00000000000E+00  0.12185485428E+04  0.12185485428E+04  0.00000000000E+00 0.  1.
          2   -1    0    0  501    0  0.00000000000E+00 -0.00000000000E+00 -0.16654997001E+04  0.16654997001E+04  0.00000000000E+00 0. -1.
         23    2    1    2    0    0 -0.12472232281E+04 -0.58780922300E+03  0.13270612593E+03  0.13883584256E+04  0.94035837972E+02 0.  0.
         13    1    3    3    0    0 -0.11074752339E+04 -0.55344818035E+03  0.12146863934E+03  0.12440100130E+04  0.00000000000E+00 0.  1.
        -13    1    3    3    0    0 -0.13974799416E+03 -0.34361042655E+02  0.11237486582E+02  0.14434841263E+03  0.00000000000E+00 0. -1.
         22    1    1    2    0    0  0.12472232281E+04  0.58780922300E+03 -0.57965728324E+03  0.14956898172E+04  0.00000000000E+00 0.  1.
<mgrwt>
<rscale>  0 0.28492050E+04</rscale>
<asrwt>0</asrwt>
<pdfrwt beam="1">  1        2 0.25623072E+00 0.28492050E+04</pdfrwt>
<pdfrwt beam="2">  1       -2 0.18746901E+00 0.28492050E+04</pdfrwt>
<totfact> 0.14323684E+00</totfact>
</mgrwt>
</event>
<event>
 6    1  0.2436515E-005  0.2647042E+04  0.7818608E-02  0.8352395E-01
         -2   -1    0    0    0  501 -0.00000000000E+00  0.00000000000E+00  0.20976048384E+04  0.20976048384E+04  0.00000000000E+00 0. -1.
          2   -1    0    0  501    0  0.00000000000E+00 -0.00000000000E+00 -0.83509903174E+03  0.83509903174E+03  0.00000000000E+00 0.  1.
         23    2    1    2    0    0  0.24417593434E+03  0.10027589349E+04 -0.28323414173E+03  0.10740862773E+04  0.91062525626E+02 0.  0.
         13    1    3    3    0    0  0.67868660575E+02  0.17961608342E+03 -0.25461865645E+02  0.19369150501E+03  0.00000000000E+00 0. -1.
        -13    1    3    3    0    0  0.17630727377E+03  0.82314285148E+03 -0.25777227609E+03  0.88039477227E+03  0.00000000000E+00 0.  1.
         22    1    1    2    0    0 -0.24417593434E+03 -0.10027589349E+04  0.15457399484E+04  0.18586175929E+04  0.00000000000E+00 0. -1.
<mgrwt>
<rscale>  0 0.26470419E+04</rscale>
<asrwt>0</asrwt>
<pdfrwt beam="1">  1        2 0.12847677E+00 0.26470419E+04</pdfrwt>
<pdfrwt beam="2">  1       -2 0.32270843E+00 0.26470419E+04</pdfrwt>
<totfact> 0.66008789E-01</totfact>
</mgrwt>
</event>
<event>
 6    1  0.2436515E-005  0.2730911E+04  0.7818608E-02  0.8325045E-01
          2   -1    0    0  501    0  0.00000000000E+00  0.00000000000E+00  0.15414288299E+04  0.15414288299E+04  0.00000000000E+00 0.  1.
         -2   -1    0    0    0  501 -0.00000000000E+00 -0.00000000000E+00 -0.12095715624E+04  0.12095715624E+04  0.00000000000E+00 0. -1.
         23    2    1    2    0    0 -0.13334938636E+04  0.21062390112E+03  0.36579112596E+03  0.14005486831E+04  0.71869004356E+02 0.  0.
         13    1    3    3    0    0 -0.75789803413E+03  0.85855457531E+02  0.19364113621E+03  0.78694185259E+03  0.00000000000E+00 0.  1.
        -13    1    3    3    0    0 -0.57559582949E+03  0.12476844359E+03  0.17214998975E+03  0.61360683048E+03  0.00000000000E+00 0. -1.
         22    1    1    2    0    0  0.13334938636E+04 -0.21062390112E+03 -0.33933858425E+02  0.13504517092E+04  0.00000000000E+00 0.  1.
<mgrwt>
<rscale>  0 0.27309108E+04</rscale>
<asrwt>0</asrwt>
<pdfrwt beam="1">  1        2 0.23714290E+00 0.27309108E+04</pdfrwt>
<pdfrwt beam="2">  1       -2 0.18608793E+00 0.27309108E+04</pdfrwt>
<totfact> 0.17341542E+00</totfact>
</mgrwt>
</event>
<event>
 6    1  0.2436515E-005  0.2990182E+04  0.7818608E-02  0.8246540E-01
         -2   -1    0    0    0  501 -0.00000000000E+00  0.00000000000E+00  0.12201434464E+04  0.12201434464E+04  0.00000000000E+00 0. -1.
          2   -1    0    0  501    0  0.00000000000E+00 -0.00000000000E+00 -0.18319957919E+04  0.18319957919E+04  0.00000000000E+00 0.  1.
         23    2    1    2    0    0  0.11932496526E+04 -0.53925691958E+03 -0.10401708590E+04  0.16744239166E+04  0.84245343578E+02 0.  0.
         13    1    3    3    0    0  0.62339410468E+03 -0.23991159214E+03 -0.55259287761E+03  0.86691214675E+03  0.00000000000E+00 0. -1.
        -13    1    3    3    0    0  0.56985554789E+03 -0.29934532744E+03 -0.48757798134E+03  0.80751176983E+03  0.00000000000E+00 0.  1.
         22    1    1    2    0    0 -0.11932496526E+04  0.53925691958E+03  0.42831851353E+03  0.13777153217E+04  0.00000000000E+00 0. -1.
<mgrwt>
<rscale>  0 0.29901824E+04</rscale>
<asrwt>0</asrwt>
<pdfrwt beam="1">  1        2 0.28184551E+00 0.29901824E+04</pdfrwt>
<pdfrwt beam="2">  1       -2 0.18771438E+00 0.29901824E+04</pdfrwt>
<totfact> 0.11397378E+00</totfact>
</mgrwt>
</event>
<event>
 6    1  0.2436515E-005  0.2904616E+04  0.7818608E-02  0.8271505E-01
          2   -1    0    0  501    0  0.00000000000E+00  0.00000000000E+00  0.95284069488E+03  0.95284069488E+03  0.00000000000E+00 0.  1.
         -2   -1    0    0    0  501 -0.00000000000E+00 -0.00000000000E+00 -0.22135903097E+04  0.22135903097E+04  0.00000000000E+00 0. -1.
         23    2    1    2    0    0 -0.86458881268E+03 -0.34416467591E+03  0.58248892773E+03  0.11016086239E+04  0.91022360429E+02 0.  0.
         13    1    3    3    0    0 -0.80414802790E+03 -0.31536267828E+03  0.51075000351E+03  0.10034805607E+04  0.00000000000E+00 0. -1.
        -13    1    3    3    0    0 -0.60440784787E+02 -0.28801997622E+02  0.71738924218E+02  0.98128063166E+02  0.00000000000E+00 0.  1.
         22    1    1    2    0    0  0.86458881268E+03  0.34416467591E+03 -0.18432385426E+04  0.20648223807E+04  0.00000000000E+00 0. -1.
<mgrwt>
<rscale>  0 0.29046163E+04</rscale>
<asrwt>0</asrwt>
<pdfrwt beam="1">  1        2 0.14659088E+00 0.29046163E+04</pdfrwt>
<pdfrwt beam="2">  1       -2 0.34055236E+00 0.29046163E+04</pdfrwt>
<totfact> 0.41597762E-01</totfact>
</mgrwt>
</event>
<event>
 6    1  0.2436515E-005  0.3627571E+04  0.7818608E-02  0.8084205E-01
          2   -1    0    0  501    0  0.00000000000E+00  0.00000000000E+00  0.19256291578E+04  0.19256291578E+04  0.00000000000E+00 0.  1.
         -2   -1    0    0    0  501 -0.00000000000E+00 -0.00000000000E+00 -0.17084378538E+04  0.17084378538E+04  0.00000000000E+00 0. -1.
         23    2    1    2    0    0 -0.45498946746E+03  0.15446439491E+04 -0.72514712583E+03  0.17683387192E+04  0.90791665185E+02 0.  0.
         11    1    3    3    0    0 -0.16521582381E+03  0.71918549342E+03 -0.33917861569E+03  0.81213679619E+03  0.00000000000E+00 0.  1.
        -11    1    3    3    0    0 -0.28977364365E+03  0.82545845573E+03 -0.38596851014E+03  0.95620192297E+03  0.00000000000E+00 0. -1.
         22    1    1    2    0    0  0.45498946746E+03 -0.15446439491E+04  0.94233842977E+03  0.18657282925E+04  0.00000000000E+00 0.  1.
<mgrwt>
<rscale>  0 0.36275709E+04</rscale>
<asrwt>0</asrwt>
<pdfrwt beam="1">  1        2 0.29625064E+00 0.36275709E+04</pdfrwt>
<pdfrwt beam="2">  1       -2 0.26283659E+00 0.36275709E+04</pdfrwt>
<totfact> 0.32037069E-01</totfact>
</mgrwt>
</event>
<event>
 6    1  0.2436515E-005  0.1868465E+04  0.7818608E-02  0.8670715E-01
          2   -1    0    0  501    0  0.00000000000E+00  0.00000000000E+00  0.20302264468E+04  0.20302264468E+04  0.00000000000E+00 0.  1.
         -2   -1    0    0    0  501 -0.00000000000E+00 -0.00000000000E+00 -0.42989799205E+03  0.42989799205E+03  0.00000000000E+00 0. -1.
         23    2    1    2    0    0 -0.46774483550E+03  0.32011360029E+02 -0.25847077084E+03  0.54310995812E+03  0.91385605648E+02 0.  0.
         11    1    3    3    0    0 -0.27839371017E+03 -0.19930864316E+02 -0.17721949804E+03  0.33061616370E+03  0.00000000000E+00 0.  1.
        -11    1    3    3    0    0 -0.18935112533E+03  0.51942224345E+02 -0.81251272797E+02  0.21249379442E+03  0.00000000000E+00 0. -1.
         22    1    1    2    0    0  0.46774483550E+03 -0.32011360029E+02  0.18587992256E+04  0.19170144807E+04  0.00000000000E+00 0.  1.
<mgrwt>
<rscale>  0 0.18684649E+04</rscale>
<asrwt>0</asrwt>
<pdfrwt beam="1">  1        2 0.31234252E+00 0.18684649E+04</pdfrwt>
<pdfrwt beam="2">  1       -2 0.66138154E-01 0.18684649E+04</pdfrwt>
<totfact> 0.12690137E+01</totfact>
</mgrwt>
</event>
<event>
 6    1  0.2436515E-005  0.3053098E+04  0.7818608E-02  0.8228729E-01
         -2   -1    0    0    0  501 -0.00000000000E+00  0.00000000000E+00  0.11392357357E+04  0.11392357357E+04  0.00000000000E+00 0. -1.
          2   -1    0    0  501    0  0.00000000000E+00 -0.00000000000E+00 -0.20455390181E+04  0.20455390181E+04  0.00000000000E+00 0.  1.
         23    2    1    2    0    0 -0.72673978297E+03 -0.96307043515E+03 -0.14269120797E+04  0.18707394061E+04  0.89064398512E+02 0.  0.
         13    1    3    3    0    0 -0.50249755981E+02 -0.34885780088E+02 -0.67920681106E+02  0.91407190912E+02  0.00000000000E+00 0. -1.
        -13    1    3    3    0    0 -0.67649002699E+03 -0.92818465506E+03 -0.13589913986E+04  0.17793322152E+04  0.00000000000E+00 0.  1.
         22    1    1    2    0    0  0.72673978297E+03  0.96307043515E+03  0.52060879736E+03  0.13140353477E+04  0.00000000000E+00 0. -1.
<mgrwt>
<rscale>  0 0.30530975E+04</rscale>
<asrwt>0</asrwt>
<pdfrwt beam="1">  1        2 0.31469831E+00 0.30530975E+04</pdfrwt>
<pdfrwt beam="2">  1       -2 0.17526704E+00 0.30530975E+04</pdfrwt>
<totfact> 0.10508565E+00</totfact>
</mgrwt>
</event>
<event>
 6    1  0.2436515E-005  0.2857806E+04  0.7818608E-02  0.8285543E-01
         -2   -1    0    0    0  501 -0.00000000000E+00  0.00000000000E+00  0.11951871782E+04  0.11951871782E+04  0.00000000000E+00 0. -1.
          2   -1    0    0  501    0  0.00000000000E+00 -0.00000000000E+00 -0.17083211550E+04  0.17083211550E+04  0.00000000000E+00 0.  1.
         23    2    1    2    0    0 -0.13129983554E+04  0.25743752937E+03  0.24834578326E+03  0.13639986100E+04  0.92616506342E+02 0.  0.
         13    1    3    3    0    0 -0.24203915217E+03  0.81317294854E+02  0.32419627793E+02  0.25738392703E+03  0.00000000000E+00 0. -1.
        -13    1    3    3    0    0 -0.10709592032E+04  0.17612023452E+03  0.21592615547E+03  0.11066146830E+04  0.00000000000E+00 0.  1.
         22    1    1    2    0    0  0.13129983554E+04 -0.25743752937E+03 -0.76147976004E+03  0.15395097232E+04  0.00000000000E+00 0. -1.
<mgrwt>
<rscale>  0 0.28578058E+04</rscale>
<asrwt>0</asrwt>
<pdfrwt beam="1">  1        2 0.26281864E+00 0.28578058E+04</pdfrwt>
<pdfrwt beam="2">  1       -2 0.18387495E+00 0.28578058E+04</pdfrwt>
<totfact> 0.14332778E+00</totfact>
</mgrwt>
</event>
<event>
 6    1  0.2436515E-005  0.2980976E+04  0.7818608E-02  0.8249184E-01
          2   -1    0    0  501    0  0.00000000000E+00  0.00000000000E+00  0.39755039016E+04  0.39755039016E+04  0.00000000000E+00 0. -1.
         -2   -1    0    0    0  501 -0.00000000000E+00 -0.00000000000E+00 -0.55881089168E+03  0.55881089168E+03  0.00000000000E+00 0.  1.
         23    2    1    2    0    0  0.11457796888E+03  0.76984134840E+03 -0.22089770885E+03  0.81438871203E+03  0.93001956184E+02 0.  0.
         11    1    3    3    0    0  0.98495416719E+02  0.47629145760E+03 -0.10018075534E+03  0.49657938282E+03  0.00000000000E+00 0. -1.
        -11    1    3    3    0    0  0.16082552158E+02  0.29354989079E+03 -0.12071695351E+03  0.31780932921E+03  0.00000000000E+00 0.  1.
         22    1    1    2    0    0 -0.11457796888E+03 -0.76984134840E+03  0.36375907188E+04  0.37199260812E+04  0.00000000000E+00 0. -1.
<mgrwt>
<rscale>  0 0.29809763E+04</rscale>
<asrwt>0</asrwt>
<pdfrwt beam="1">  1        2 0.61161597E+00 0.29809763E+04</pdfrwt>
<pdfrwt beam="2">  1       -2 0.85970909E-01 0.29809763E+04</pdfrwt>
<totfact> 0.36023924E-01</totfact>
</mgrwt>
</event>
<event>
 6    1  0.2436515E-005  0.3540103E+04  0.7818608E-02  0.8104351E-01
          2   -1    0    0  501    0  0.00000000000E+00  0.00000000000E+00  0.27275873941E+04  0.27275873941E+04  0.00000000000E+00 0.  1.
         -2   -1    0    0    0  501 -0.00000000000E+00 -0.00000000000E+00 -0.11486642985E+04  0.11486642985E+04  0.00000000000E+00 0. -1.
         23    2    1    2    0    0  0.17553582666E+04 -0.17412774922E+03  0.64523483650E+03  0.18804117986E+04  0.89540052276E+02 0.  0.
         13    1    3    3    0    0  0.51144876418E+03 -0.27640458601E+02  0.22320255571E+03  0.55871568280E+03  0.00000000000E+00 0.  1.
        -13    1    3    3    0    0  0.12439095024E+04 -0.14648729062E+03  0.42203228079E+03  0.13216961158E+04  0.00000000000E+00 0. -1.
         22    1    1    2    0    0 -0.17553582666E+04  0.17412774922E+03  0.93368825917E+03  0.19958398940E+04  0.00000000000E+00 0.  1.
<mgrwt>
<rscale>  0 0.35401030E+04</rscale>
<asrwt>0</asrwt>
<pdfrwt beam="1">  1        2 0.41962883E+00 0.35401030E+04</pdfrwt>
<pdfrwt beam="2">  1       -2 0.17671758E+00 0.35401030E+04</pdfrwt>
<totfact> 0.40004196E-01</totfact>
</mgrwt>
</event>
<event>
 6    1  0.2436515E-005  0.8119786E+03  0.7818608E-02  0.9542839E-01
         -2   -1    0    0    0  501 -0.00000000000E+00  0.00000000000E+00  0.82432041967E+02  0.82432041967E+02  0.00000000000E+00 0. -1.
          2   -1    0    0  501    0  0.00000000000E+00 -0.00000000000E+00 -0.19995536850E+04  0.19995536850E+04  0.00000000000E+00 0.  1.
         23    2    1    2    0    0  0.25921811604E+03 -0.24334267639E+03 -0.49749047659E+03  0.61850961217E+03  0.92992882612E+02 0.  0.
         13    1    3    3    0    0  0.69969237716E+02 -0.12712438841E+03 -0.20907295024E+03  0.25449519225E+03  0.00000000000E+00 0. -1.
        -13    1    3    3    0    0  0.18924887832E+03 -0.11621828798E+03 -0.28841752635E+03  0.36401441993E+03  0.00000000000E+00 0.  1.
         22    1    1    2    0    0 -0.25921811604E+03  0.24334267639E+03 -0.14196311664E+04  0.14634761148E+04  0.00000000000E+00 0.  1.
<mgrwt>
<rscale>  0 0.81197855E+03</rscale>
<asrwt>0</asrwt>
<pdfrwt beam="1">  1        2 0.30762361E+00 0.81197855E+03</pdfrwt>
<pdfrwt beam="2">  1       -2 0.12681854E-01 0.81197855E+03</pdfrwt>
<totfact> 0.31625809E+02</totfact>
</mgrwt>
</event>
<event>
 6    1  0.2436515E-005  0.3644783E+04  0.7818608E-02  0.8080310E-01
         -2   -1    0    0    0  501 -0.00000000000E+00  0.00000000000E+00  0.14450082223E+04  0.14450082223E+04  0.00000000000E+00 0. -1.
          2   -1    0    0  501    0  0.00000000000E+00 -0.00000000000E+00 -0.22983330382E+04  0.22983330382E+04  0.00000000000E+00 0.  1.
         23    2    1    2    0    0  0.16347407530E+04 -0.33290431564E+03  0.32337483246E+03  0.17018161748E+04  0.91675500853E+02 0.  0.
         11    1    3    3    0    0  0.14758450459E+03 -0.56793292176E+01  0.39036037008E+02  0.15276535262E+03  0.00000000000E+00 0.  1.
        -11    1    3    3    0    0  0.14871562484E+04 -0.32722498642E+03  0.28433879545E+03  0.15490508221E+04  0.00000000000E+00 0. -1.
         22    1    1    2    0    0 -0.16347407530E+04  0.33290431564E+03 -0.11766996483E+04  0.20415250857E+04  0.00000000000E+00 0.  1.
<mgrwt>
<rscale>  0 0.36447826E+04</rscale>
<asrwt>0</asrwt>
<pdfrwt beam="1">  1        2 0.35358970E+00 0.36447826E+04</pdfrwt>
<pdfrwt beam="2">  1       -2 0.22230896E+00 0.36447826E+04</pdfrwt>
<totfact> 0.35260327E-01</totfact>
</mgrwt>
</event>
<event>
 6    1  0.2436515E-005  0.4704788E+04  0.7818608E-02  0.7875733E-01
          2   -1    0    0  501    0  0.00000000000E+00  0.00000000000E+00  0.21431326569E+04  0.21431326569E+04  0.00000000000E+00 0.  1.
         -2   -1    0    0    0  501 -0.00000000000E+00 -0.00000000000E+00 -0.25820884012E+04  0.25820884012E+04  0.00000000000E+00 0. -1.
         23    2    1    2    0    0 -0.14743415926E+04  0.18290093331E+04 -0.32326418235E+03  0.23731277756E+04  0.90980412211E+02 0.  0.
         11    1    3    3    0    0 -0.11792871589E+04  0.14476622221E+04 -0.29259921656E+03  0.18899889984E+04  0.00000000000E+00 0. -1.
        -11    1    3    3    0    0 -0.29505443368E+03  0.38134711101E+03 -0.30664965792E+02  0.48313877720E+03  0.00000000000E+00 0.  1.
         22    1    1    2    0    0  0.14743415926E+04 -0.18290093331E+04 -0.11569156200E+03  0.23520932825E+04  0.00000000000E+00 0.  1.
<mgrwt>
<rscale>  0 0.47047882E+04</rscale>
<asrwt>0</asrwt>
<pdfrwt beam="1">  1        2 0.32971272E+00 0.47047882E+04</pdfrwt>
<pdfrwt beam="2">  1       -2 0.39724437E+00 0.47047882E+04</pdfrwt>
<totfact> 0.32059008E-02</totfact>
</mgrwt>
</event>
<event>
 6    1  0.3225177E-005  0.2629517E+04  0.7818608E-02  0.8358244E-01
          2   -1    0    0  501    0  0.00000000000E+00  0.00000000000E+00  0.11197850960E+04  0.11197850960E+04  0.00000000000E+00 0.  1.
         -2   -1    0    0    0  501 -0.00000000000E+00 -0.00000000000E+00 -0.15436798920E+04  0.15436798920E+04  0.00000000000E+00 0. -1.
         23    2    1    2    0    0 -0.12137259946E+04 -0.36386453601E+03 -0.56176465923E+03  0.13888920047E+04  0.88956607238E+02 0.  0.
         11    1    3    3    0    0 -0.59117136050E+03 -0.13526400005E+03 -0.28904451776E+03  0.67180849982E+03  0.00000000000E+00 0.  1.
        -11    1    3    3    0    0 -0.62255463407E+03 -0.22860053596E+03 -0.27272014147E+03  0.71708350490E+03  0.00000000000E+00 0. -1.
         22    1    1    2    0    0  0.12137259946E+04  0.36386453601E+03  0.13786986317E+03  0.12745729832E+04  0.00000000000E+00 0.  1.
<mgrwt>
<rscale>  0 0.26295169E+04</rscale>
<asrwt>0</asrwt>
<pdfrwt beam="1">  1        2 0.17227463E+00 0.26295169E+04</pdfrwt>
<pdfrwt beam="2">  1       -2 0.23748921E+00 0.26295169E+04</pdfrwt>
<totfact> 0.14351160E+00</totfact>
</mgrwt>
</event>
<event>
 6    1  0.2436515E-005  0.1031008E+04  0.7818608E-02  0.9275175E-01
          2   -1    0    0  501    0  0.00000000000E+00  0.00000000000E+00  0.12548353579E+04  0.12548353579E+04  0.00000000000E+00 0. -1.
         -2   -1    0    0    0  501 -0.00000000000E+00 -0.00000000000E+00 -0.21177635275E+03  0.21177635275E+03  0.00000000000E+00 0.  1.
         23    2    1    2    0    0 -0.32951543342E+03  0.38383053962E+03  0.63186048649E+03  0.81469873659E+03  0.92628575541E+02 0.  0.
         11    1    3    3    0    0 -0.32474359309E+03  0.34096159406E+03  0.58606511445E+03  0.75178822035E+03  0.00000000000E+00 0. -1.
        -11    1    3    3    0    0 -0.47718403234E+01  0.42868945555E+02  0.45795372044E+02  0.62910516241E+02  0.00000000000E+00 0.  1.
         22    1    1    2    0    0  0.32951543342E+03 -0.38383053962E+03  0.41119851866E+03  0.65191297406E+03  0.00000000000E+00 0.  1.
<mgrwt>
<rscale>  0 0.10310082E+04</rscale>
<asrwt>0</asrwt>
<pdfrwt beam="1">  1        2 0.19305159E+00 0.10310082E+04</pdfrwt>
<pdfrwt beam="2">  1       -2 0.32580978E-01 0.10310082E+04</pdfrwt>
<totfact> 0.15358903E+02</totfact>
</mgrwt>
</event>
<event>
 6    1  0.2436515E-005  0.1010289E+04  0.7818608E-02  0.9297331E-01
         -2   -1    0    0    0  501 -0.00000000000E+00  0.00000000000E+00  0.22300416533E+03  0.22300416533E+03  0.00000000000E+00 0. -1.
          2   -1    0    0  501    0  0.00000000000E+00 -0.00000000000E+00 -0.11442429697E+04  0.11442429697E+04  0.00000000000E+00 0.  1.
         23    2    1    2    0    0  0.17027552915E+03 -0.35212014880E+03 -0.40497010120E+02  0.40356229902E+03  0.90775361986E+02 0.  0.
         11    1    3    3    0    0  0.15957396293E+03 -0.33195075353E+03 -0.60447784731E+02  0.37324132554E+03  0.00000000000E+00 0.  1.
        -11    1    3    3    0    0  0.10701566225E+02 -0.20169395273E+02  0.19950774610E+02  0.30320973482E+02  0.00000000000E+00 0. -1.
         22    1    1    2    0    0 -0.17027552915E+03  0.35212014880E+03 -0.88074179423E+03  0.96368483600E+03  0.00000000000E+00 0.  1.
<mgrwt>
<rscale>  0 0.10102890E+04</rscale>
<asrwt>0</asrwt>
<pdfrwt beam="1">  1        2 0.17603738E+00 0.10102890E+04</pdfrwt>
<pdfrwt beam="2">  1       -2 0.34308333E-01 0.10102890E+04</pdfrwt>
<totfact> 0.16233318E+02</totfact>
</mgrwt>
</event>
<event>
 6    1  0.2436515E-005  0.3631681E+04  0.7818608E-02  0.8083273E-01
          2   -1    0    0  501    0  0.00000000000E+00  0.00000000000E+00  0.33437849774E+04  0.33437849774E+04  0.00000000000E+00 0.  1.
         -2   -1    0    0    0  501 -0.00000000000E+00 -0.00000000000E+00 -0.98609108308E+03  0.98609108308E+03  0.00000000000E+00 0. -1.
         23    2    1    2    0    0  0.12308591044E+02 -0.12358079427E+04  0.27638965710E+04  0.30289635396E+04  0.90128222953E+02 0.  0.
         11    1    3    3    0    0  0.45082768299E+02 -0.76828326270E+03  0.16621418191E+04  0.18316678341E+04  0.00000000000E+00 0.  1.
        -11    1    3    3    0    0 -0.32774177255E+02 -0.46752467997E+03  0.11017547519E+04  0.11972957055E+04  0.00000000000E+00 0. -1.
         22    1    1    2    0    0 -0.12308591044E+02  0.12358079427E+04 -0.40620267661E+03  0.13009125209E+04  0.00000000000E+00 0. -1.
<mgrwt>
<rscale>  0 0.36316809E+04</rscale>
<asrwt>0</asrwt>
<pdfrwt beam="1">  1        2 0.51442845E+00 0.36316809E+04</pdfrwt>
<pdfrwt beam="2">  1       -2 0.15170632E+00 0.36316809E+04</pdfrwt>
<totfact> 0.24570853E-01</totfact>
</mgrwt>
</event>
<event>
 6    1  0.2436515E-005  0.3308820E+04  0.7818608E-02  0.8160655E-01
          2   -1    0    0  501    0  0.00000000000E+00  0.00000000000E+00  0.29290196903E+04  0.29290196903E+04  0.00000000000E+00 0.  1.
         -2   -1    0    0    0  501 -0.00000000000E+00 -0.00000000000E+00 -0.93446717447E+03  0.93446717447E+03  0.00000000000E+00 0. -1.
         23    2    1    2    0    0 -0.40139284530E+03  0.82603313081E+03 -0.60725935584E+03  0.11043435258E+04  0.85812284893E+02 0.  0.
         13    1    3    3    0    0 -0.19854033445E+03  0.36048158581E+03 -0.22757987455E+03  0.47027421513E+03  0.00000000000E+00 0. -1.
        -13    1    3    3    0    0 -0.20285251085E+03  0.46555154500E+03 -0.37967948129E+03  0.63406931066E+03  0.00000000000E+00 0.  1.
         22    1    1    2    0    0  0.40139284530E+03 -0.82603313081E+03  0.26018118717E+04  0.27591433390E+04  0.00000000000E+00 0.  1.
<mgrwt>
<rscale>  0 0.33088202E+04</rscale>
<asrwt>0</asrwt>
<pdfrwt beam="1">  1        2 0.45061841E+00 0.33088202E+04</pdfrwt>
<pdfrwt beam="2">  1       -2 0.14376418E+00 0.33088202E+04</pdfrwt>
<totfact> 0.53886599E-01</totfact>
</mgrwt>
</event>
<event>
 6    1  0.2436515E-005  0.1783612E+04  0.7818608E-02  0.8715063E-01
         -2   -1    0    0    0  501 -0.00000000000E+00  0.00000000000E+00  0.31296552256E+03  0.31296552256E+03  0.00000000000E+00 0. -1.
          2   -1    0    0  501    0  0.00000000000E+00 -0.00000000000E+00 -0.25412330415E+04  0.25412330415E+04  0.00000000000E+00 0.  1.
         23    2    1    2    0    0  0.59844819121E+02  0.15505464075E+03 -0.25152270072E+04  0.25225826840E+04  0.97124435972E+02 0.  0.
         11    1    3    3    0    0  0.69270918757E+02  0.63966501881E+02 -0.94638639141E+03  0.95107169834E+03  0.00000000000E+00 0.  1.
        -11    1    3    3    0    0 -0.94260996358E+01  0.91088138873E+02 -0.15688406158E+04  0.15715109857E+04  0.00000000000E+00 0. -1.
         22    1    1    2    0    0 -0.59844819121E+02 -0.15505464075E+03  0.28695948824E+03  0.33161588003E+03  0.00000000000E+00 0. -1.
<mgrwt>
<rscale>  0 0.17836124E+04</rscale>
<asrwt>0</asrwt>
<pdfrwt beam="1">  1        2 0.39095893E+00 0.17836124E+04</pdfrwt>
<pdfrwt beam="2">  1       -2 0.48148542E-01 0.17836124E+04</pdfrwt>
<totfact> 0.12742770E+01</totfact>
</mgrwt>
</event>
<event>
 6    1  0.2436515E-005  0.3134109E+04  0.7818608E-02  0.8206439E-01
         -2   -1    0    0    0  501 -0.00000000000E+00  0.00000000000E+00  0.76396286341E+03  0.76396286341E+03  0.00000000000E+00 0.  1.
          2   -1    0    0  501    0  0.00000000000E+00 -0.00000000000E+00 -0.32143702224E+04  0.32143702224E+04  0.00000000000E+00 0. -1.
         23    2    1    2    0    0  0.47651829750E+03 -0.44417828468E+03  0.58185454035E+03  0.87688563944E+03  0.77522139418E+02 0.  0.
         11    1    3    3    0    0  0.17046217428E+03 -0.20533681460E+03  0.21418259572E+03  0.34219109369E+03  0.00000000000E+00 0. -1.
        -11    1    3    3    0    0  0.30605612322E+03 -0.23884147008E+03  0.36767194463E+03  0.53469454575E+03  0.00000000000E+00 0.  1.
         22    1    1    2    0    0 -0.47651829750E+03  0.44417828468E+03 -0.30322618993E+04  0.31014474464E+04  0.00000000000E+00 0. -1.
<mgrwt>
<rscale>  0 0.31341088E+04</rscale>
<asrwt>0</asrwt>
<pdfrwt beam="1">  1        2 0.49451850E+00 0.31341088E+04</pdfrwt>
<pdfrwt beam="2">  1       -2 0.11753275E+00 0.31341088E+04</pdfrwt>
<totfact> 0.60006110E-01</totfact>
</mgrwt>
</event>
<event>
 6    1  0.2436515E-005  0.1183134E+04  0.7818608E-02  0.9127749E-01
          2   -1    0    0  501    0  0.00000000000E+00  0.00000000000E+00  0.11989802154E+04  0.11989802154E+04  0.00000000000E+00 0.  1.
         -2   -1    0    0    0  501 -0.00000000000E+00 -0.00000000000E+00 -0.29187411787E+03  0.29187411787E+03  0.00000000000E+00 0. -1.
         23    2    1    2    0    0 -0.22022825709E+03 -0.50204928009E+03  0.72445458501E+03  0.91300007835E+03  0.90447401656E+02 0.  0.
         13    1    3    3    0    0 -0.14363665404E+03 -0.34667966218E+03  0.42419541069E+03  0.56635679832E+03  0.00000000000E+00 0.  1.
        -13    1    3    3    0    0 -0.76591603051E+02 -0.15536961791E+03  0.30025917432E+03  0.34664328003E+03  0.00000000000E+00 0. -1.
         22    1    1    2    0    0  0.22022825709E+03  0.50204928009E+03  0.18265151248E+03  0.57785425487E+03  0.00000000000E+00 0. -1.
<mgrwt>
<rscale>  0 0.11831336E+04</rscale>
<asrwt>0</asrwt>
<pdfrwt beam="1">  1        2 0.18445849E+00 0.11831336E+04</pdfrwt>
<pdfrwt beam="2">  1       -2 0.44903711E-01 0.11831336E+04</pdfrwt>
<totfact> 0.88080311E+01</totfact>
</mgrwt>
</event>
<event>
 6    1  0.2436515E-005  0.1278369E+04  0.7818608E-02  0.9046896E-01
          2   -1    0    0  501    0  0.00000000000E+00  0.00000000000E+00  0.58385356272E+03  0.58385356272E+03  0.00000000000E+00 0.  1.
         -2   -1    0    0    0  501 -0.00000000000E+00 -0.00000000000E+00 -0.69975953665E+03  0.69975953665E+03  0.00000000000E+00 0. -1.
         23    2    1    2    0    0  0.12860717716E+03  0.12266308031E+03 -0.67156204329E+03  0.70022668823E+03  0.87953394680E+02 0.  0.
         13    1    3    3    0    0 -0.12537874695E+02  0.67773733067E+01 -0.30614279413E+02  0.33769293668E+02  0.00000000000E+00 0.  1.
        -13    1    3    3    0    0  0.14114505185E+03  0.11588570701E+03 -0.64094776388E+03  0.66645739456E+03  0.00000000000E+00 0. -1.
         22    1    1    2    0    0 -0.12860717716E+03 -0.12266308031E+03  0.55565606936E+03  0.58338641114E+03  0.00000000000E+00 0.  1.
<mgrwt>
<rscale>  0 0.12783694E+04</rscale>
<asrwt>0</asrwt>
<pdfrwt beam="1">  1        2 0.89823626E-01 0.12783694E+04</pdfrwt>
<pdfrwt beam="2">  1       -2 0.10765531E+00 0.12783694E+04</pdfrwt>
<totfact> 0.34829951E+01</totfact>
</mgrwt>
</event>
<event>
 6    1  0.2436515E-005  0.3351850E+04  0.7818608E-02  0.8149826E-01
         -2   -1    0    0    0  501 -0.00000000000E+00  0.00000000000E+00  0.13453400778E+04  0.13453400778E+04  0.00000000000E+00 0. -1.
          2   -1    0    0  501    0  0.00000000000E+00 -0.00000000000E+00 -0.20877437980E+04  0.20877437980E+04  0.00000000000E+00 0.  1.
         23    2    1    2    0    0  0.10567906808E+04 -0.64708896684E+02  0.95751400794E+03  0.14304071504E+04  0.90762085855E+02 0.  0.
         11    1    3    3    0    0  0.60491422658E+03  0.10476161178E+01  0.51324533821E+03  0.79331147490E+03  0.00000000000E+00 0.  1.
        -11    1    3    3    0    0  0.45187645418E+03 -0.65756512802E+02  0.44426866973E+03  0.63709567548E+03  0.00000000000E+00 0. -1.
         22    1    1    2    0    0 -0.10567906808E+04  0.64708896684E+02 -0.16999177281E+04  0.20026767254E+04  0.00000000000E+00 0.  1.
<mgrwt>
<rscale>  0 0.33518505E+04</rscale>
<asrwt>0</asrwt>
<pdfrwt beam="1">  1        2 0.32119135E+00 0.33518505E+04</pdfrwt>
<pdfrwt beam="2">  1       -2 0.20697540E+00 0.33518505E+04</pdfrwt>
<totfact> 0.59466212E-01</totfact>
</mgrwt>
</event>
<event>
 6    1  0.2436515E-005  0.3006101E+04  0.7818608E-02  0.8241991E-01
          2   -1    0    0  501    0  0.00000000000E+00  0.00000000000E+00  0.15630418204E+04  0.15630418204E+04  0.00000000000E+00 0.  1.
         -2   -1    0    0    0  501 -0.00000000000E+00 -0.00000000000E+00 -0.14453617584E+04  0.14453617584E+04  0.00000000000E+00 0. -1.
         23    2    1    2    0    0 -0.78767027090E+02  0.88617093521E+03 -0.11520841889E+04  0.14579828540E+04  0.83143570527E+02 0.  0.
         11    1    3    3    0    0 -0.24500601934E+01  0.49411964593E+03 -0.63961811960E+03  0.80825216747E+03  0.00000000000E+00 0.  1.
        -11    1    3    3    0    0 -0.76316966897E+02  0.39205128928E+03 -0.51246606928E+03  0.64973068654E+03  0.00000000000E+00 0. -1.
         22    1    1    2    0    0  0.78767027090E+02 -0.88617093521E+03  0.12697642509E+04  0.15504207248E+04  0.00000000000E+00 0.  1.
<mgrwt>
<rscale>  0 0.30061010E+04</rscale>
<asrwt>0</asrwt>
<pdfrwt beam="1">  1        2 0.24046797E+00 0.30061010E+04</pdfrwt>
<pdfrwt beam="2">  1       -2 0.22236335E+00 0.30061010E+04</pdfrwt>
<totfact> 0.95571606E-01</totfact>
</mgrwt>
</event>
<event>
 6    1  0.2436515E-005  0.1261285E+04  0.7818608E-02  0.9060843E-01
         -2   -1    0    0    0  501 -0.00000000000E+00  0.00000000000E+00  0.12352391218E+03  0.12352391218E+03  0.00000000000E+00 0.  1.
          2   -1    0    0  501    0  0.00000000000E+00 -0.00000000000E+00 -0.32196985506E+04  0.32196985506E+04  0.00000000000E+00 0. -1.
         23    2    1    2    0    0  0.53966109055E+03 -0.25461397818E+03 -0.10436706641E+04  0.12057391447E+04  0.92174071099E+02 0.  0.
         13    1    3    3    0    0  0.26101741945E+03 -0.13929634862E+03 -0.60424573442E+03  0.67279006648E+03  0.00000000000E+00 0.  1.
        -13    1    3    3    0    0  0.27864367110E+03 -0.11531762957E+03 -0.43942492970E+03  0.53294907821E+03  0.00000000000E+00 0. -1.
         22    1    1    2    0    0 -0.53966109055E+03  0.25461397818E+03 -0.20525039743E+04  0.21374833181E+04  0.00000000000E+00 0.  1.
<mgrwt>
<rscale>  0 0.12612847E+04</rscale>
<asrwt>0</asrwt>
<pdfrwt beam="1">  1        2 0.49533820E+00 0.12612847E+04</pdfrwt>
<pdfrwt beam="2">  1       -2 0.19003680E-01 0.12612847E+04</pdfrwt>
<totfact> 0.29404132E+01</totfact>
</mgrwt>
</event>
<event>
 6    1  0.2436515E-005  0.2022332E+03  0.7818608E-02  0.1147868E+00
          2   -1    0    0  501    0  0.00000000000E+00  0.00000000000E+00  0.46052343108E+03  0.46052343108E+03  0.00000000000E+00 0.  1.
         -2   -1    0    0    0  501 -0.00000000000E+00 -0.00000000000E+00 -0.22202053665E+02  0.22202053665E+02  0.00000000000E+00 0. -1.
         23    2    1    2    0    0 -0.91762031667E+01  0.57393969220E+02  0.12496915456E+03  0.16402831505E+03  0.88936652386E+02 0.  0.
         13    1    3    3    0    0 -0.38396664100E+02  0.47977703813E+02  0.11724275274E+03  0.13237079341E+03  0.00000000000E+00 0. -1.
        -13    1    3    3    0    0  0.29220460933E+02  0.94162654062E+01  0.77264018264E+01  0.31657521643E+02  0.00000000000E+00 0.  1.
         22    1    1    2    0    0  0.91762031667E+01 -0.57393969220E+02  0.31335222285E+03  0.31869716970E+03  0.00000000000E+00 0.  1.
<mgrwt>
<rscale>  0 0.20223319E+03</rscale>
<asrwt>0</asrwt>
<pdfrwt beam="1">  1        2 0.70849752E-01 0.20223319E+03</pdfrwt>
<pdfrwt beam="2">  1       -2 0.34157009E-02 0.20223319E+03</pdfrwt>
<totfact> 0.23100712E+04</totfact>
</mgrwt>
</event>
<event>
 6    1  0.2436515E-005  0.3524123E+04  0.7818608E-02  0.8108097E-01
         -2   -1    0    0    0  501 -0.00000000000E+00  0.00000000000E+00  0.11307521209E+04  0.11307521209E+04  0.00000000000E+00 0. -1.
          2   -1    0    0  501    0  0.00000000000E+00 -0.00000000000E+00 -0.27458361140E+04  0.27458361140E+04  0.00000000000E+00 0.  1.
         23    2    1    2    0    0 -0.37319189288E+03 -0.15081712711E+04 -0.17197162758E+04  0.23194110818E+04  0.91601993300E+02 0.  0.
         11    1    3    3    0    0 -0.56405932598E+02 -0.37695422027E+03 -0.44602704840E+03  0.58669944717E+03  0.00000000000E+00 0. -1.
        -11    1    3    3    0    0 -0.31678596028E+03 -0.11312170508E+04 -0.12736892274E+04  0.17327116346E+04  0.00000000000E+00 0.  1.
         22    1    1    2    0    0  0.37319189288E+03  0.15081712711E+04  0.10463228276E+03  0.15571771532E+04  0.00000000000E+00 0. -1.
<mgrwt>
<rscale>  0 0.35241226E+04</rscale>
<asrwt>0</asrwt>
<pdfrwt beam="1">  1        2 0.42243632E+00 0.35241226E+04</pdfrwt>
<pdfrwt beam="2">  1       -2 0.17396187E+00 0.35241226E+04</pdfrwt>
<totfact> 0.40837660E-01</totfact>
</mgrwt>
</event>
<event>
 6    1  0.2436515E-005  0.2190837E+04  0.7818608E-02  0.8522252E-01
         -2   -1    0    0    0  501 -0.00000000000E+00  0.00000000000E+00  0.90027714592E+03  0.90027714592E+03  0.00000000000E+00 0. -1.
          2   -1    0    0  501    0  0.00000000000E+00 -0.00000000000E+00 -0.13328582404E+04  0.13328582404E+04  0.00000000000E+00 0.  1.
         23    2    1    2    0    0  0.35778505143E+03 -0.77670804781E+03  0.47787524502E+03  0.98404920805E+03  0.93287509958E+02 0.  0.
         13    1    3    3    0    0  0.80234230252E+02 -0.22480624781E+03  0.92812288384E+02  0.25610447406E+03  0.00000000000E+00 0. -1.
        -13    1    3    3    0    0  0.27755082118E+03 -0.55190180000E+03  0.38506295664E+03  0.72794473399E+03  0.00000000000E+00 0.  1.
         22    1    1    2    0    0 -0.35778505143E+03  0.77670804781E+03 -0.91045633945E+03  0.12490861782E+04  0.00000000000E+00 0.  1.
<mgrwt>
<rscale>  0 0.21908371E+04</rscale>
<asrwt>0</asrwt>
<pdfrwt beam="1">  1        2 0.20505511E+00 0.21908371E+04</pdfrwt>
<pdfrwt beam="2">  1       -2 0.13850418E+00 0.21908371E+04</pdfrwt>
<totfact> 0.53451246E+00</totfact>
</mgrwt>
</event>
<event>
 6    1  0.2436515E-005  0.4038255E+04  0.7818608E-02  0.7996874E-01
         -2   -1    0    0    0  501 -0.00000000000E+00  0.00000000000E+00  0.16534963009E+04  0.16534963009E+04  0.00000000000E+00 0. -1.
          2   -1    0    0  501    0  0.00000000000E+00 -0.00000000000E+00 -0.24656090231E+04  0.24656090231E+04  0.00000000000E+00 0.  1.
         23    2    1    2    0    0  0.73463101262E+03  0.14682635108E+04 -0.16032778861E+04  0.22966282244E+04  0.92307959176E+02 0.  0.
         13    1    3    3    0    0  0.60176833857E+03  0.12733199128E+04 -0.13636923626E+04  0.19603891434E+04  0.00000000000E+00 0. -1.
        -13    1    3    3    0    0  0.13286267405E+03  0.19494359798E+03 -0.23958552348E+03  0.33623908103E+03  0.00000000000E+00 0.  1.
         22    1    1    2    0    0 -0.73463101262E+03 -0.14682635108E+04  0.79116516388E+03  0.18224770995E+04  0.00000000000E+00 0. -1.
<mgrwt>
<rscale>  0 0.40382548E+04</rscale>
<asrwt>0</asrwt>
<pdfrwt beam="1">  1        2 0.37932446E+00 0.40382548E+04</pdfrwt>
<pdfrwt beam="2">  1       -2 0.25438405E+00 0.40382548E+04</pdfrwt>
<totfact> 0.17310646E-01</totfact>
</mgrwt>
</event>
<event>
 6    1  0.2436515E-005  0.1788631E+04  0.7818608E-02  0.8712369E-01
         -2   -1    0    0    0  501 -0.00000000000E+00  0.00000000000E+00  0.42992874321E+03  0.42992874321E+03  0.00000000000E+00 0.  1.
          2   -1    0    0  501    0  0.00000000000E+00 -0.00000000000E+00 -0.18603097490E+04  0.18603097490E+04  0.00000000000E+00 0. -1.
         23    2    1    2    0    0  0.81563737199E+03  0.25218114028E+02 -0.11786614976E+04  0.14362695310E+04  0.87903150839E+02 0.  0.
         11    1    3    3    0    0  0.60120697493E+03  0.34522764259E+02 -0.92807294006E+03  0.11063277227E+04  0.00000000000E+00 0.  1.
        -11    1    3    3    0    0  0.21443039706E+03 -0.93046502316E+01 -0.25058855757E+03  0.32994180833E+03  0.00000000000E+00 0. -1.
         22    1    1    2    0    0 -0.81563737199E+03 -0.25218114028E+02 -0.25171950817E+03  0.85396896118E+03  0.00000000000E+00 0.  1.
<mgrwt>
<rscale>  0 0.17886315E+04</rscale>
<asrwt>0</asrwt>
<pdfrwt beam="1">  1        2 0.28620150E+00 0.17886315E+04</pdfrwt>
<pdfrwt beam="2">  1       -2 0.66142884E-01 0.17886315E+04</pdfrwt>
<totfact> 0.15870469E+01</totfact>
</mgrwt>
</event>
<event>
 6    1  0.2436515E-005  0.2245544E+04  0.7818608E-02  0.8499707E-01
         -2   -1    0    0    0  501 -0.00000000000E+00  0.00000000000E+00  0.94226392785E+03  0.94226392785E+03  0.00000000000E+00 0. -1.
          2   -1    0    0  501    0  0.00000000000E+00 -0.00000000000E+00 -0.13378598321E+04  0.13378598321E+04  0.00000000000E+00 0.  1.
         23    2    1    2    0    0 -0.35798420901E+03 -0.22684453733E+03  0.85549397735E+03  0.95920096513E+03  0.92657477877E+02 0.  0.
         13    1    3    3    0    0 -0.13325070914E+03 -0.10569385075E+03  0.25309793306E+03  0.30493524771E+03  0.00000000000E+00 0.  1.
        -13    1    3    3    0    0 -0.22473349987E+03 -0.12115068658E+03  0.60239604429E+03  0.65426571742E+03  0.00000000000E+00 0. -1.
         22    1    1    2    0    0  0.35798420901E+03  0.22684453733E+03 -0.12510898816E+04  0.13209227948E+04  0.00000000000E+00 0.  1.
<mgrwt>
<rscale>  0 0.22455441E+04</rscale>
<asrwt>0</asrwt>
<pdfrwt beam="1">  1        2 0.20582459E+00 0.22455441E+04</pdfrwt>
<pdfrwt beam="2">  1       -2 0.14496368E+00 0.22455441E+04</pdfrwt>
<totfact> 0.46928709E+00</totfact>
</mgrwt>
</event>
<event>
 6    1  0.2436515E-005  0.5335099E+04  0.7818608E-02  0.7778796E-01
          2   -1    0    0  501    0  0.00000000000E+00  0.00000000000E+00  0.16436427210E+04  0.16436427210E+04  0.00000000000E+00 0.  1.
         -2   -1    0    0    0  501 -0.00000000000E+00 -0.00000000000E+00 -0.43292986386E+04  0.43292986386E+04  0.00000000000E+00 0. -1.
         23    2    1    2    0    0 -0.25455006480E+04  0.26630958620E+03 -0.21818941535E+04  0.33644417411E+04  0.91169003998E+02 0.  0.
         13    1    3    3    0    0 -0.11988325694E+04  0.14511413246E+03 -0.97544292082E+03  0.15523358311E+04  0.00000000000E+00 0.  1.
        -13    1    3    3    0    0 -0.13466680786E+04  0.12119545374E+03 -0.12064512327E+04  0.18121059099E+04  0.00000000000E+00 0. -1.
         22    1    1    2    0    0  0.25455006480E+04 -0.26630958620E+03 -0.50376176411E+03  0.26084996185E+04  0.00000000000E+00 0.  1.
<mgrwt>
<rscale>  0 0.53350989E+04</rscale>
<asrwt>0</asrwt>
<pdfrwt beam="1">  1        2 0.25286811E+00 0.53350989E+04</pdfrwt>
<pdfrwt beam="2">  1       -2 0.66604594E+00 0.53350989E+04</pdfrwt>
<totfact> 0.22509092E-03</totfact>
</mgrwt>
</event>
<event>
 6    1  0.2436515E-005  0.3290706E+04  0.7818608E-02  0.8165264E-01
         -2   -1    0    0    0  501 -0.00000000000E+00  0.00000000000E+00  0.83994983053E+03  0.83994983053E+03  0.00000000000E+00 0. -1.
          2   -1    0    0  501    0  0.00000000000E+00 -0.00000000000E+00 -0.32230335411E+04  0.32230335411E+04  0.00000000000E+00 0.  1.
         23    2    1    2    0    0 -0.49168450544E+03  0.11611641979E+04 -0.24950139821E+04  0.27970511724E+04  0.91348470077E+02 0.  0.
         11    1    3    3    0    0 -0.13605823614E+03  0.26627173388E+03 -0.66521933866E+03  0.72933479857E+03  0.00000000000E+00 0.  1.
        -11    1    3    3    0    0 -0.35562626930E+03  0.89489246403E+03 -0.18297946434E+04  0.20677163738E+04  0.00000000000E+00 0. -1.
         22    1    1    2    0    0  0.49168450544E+03 -0.11611641979E+04  0.11193027149E+03  0.12659321992E+04  0.00000000000E+00 0. -1.
<mgrwt>
<rscale>  0 0.32907060E+04</rscale>
<asrwt>0</asrwt>
<pdfrwt beam="1">  1        2 0.49585132E+00 0.32907060E+04</pdfrwt>
<pdfrwt beam="2">  1       -2 0.12922305E+00 0.32907060E+04</pdfrwt>
<totfact> 0.46114762E-01</totfact>
</mgrwt>
</event>
<event>
 6    1  0.2436515E-005  0.4543624E+04  0.7818608E-02  0.7903044E-01
          2   -1    0    0  501    0  0.00000000000E+00  0.00000000000E+00  0.33735995471E+04  0.33735995471E+04  0.00000000000E+00 0.  1.
         -2   -1    0    0    0  501 -0.00000000000E+00 -0.00000000000E+00 -0.15298587109E+04  0.15298587109E+04  0.00000000000E+00 0. -1.
         23    2    1    2    0    0 -0.61844343504E+03  0.34166296647E+03  0.32513344388E+04  0.33284898090E+04  0.91994081670E+02 0.  0.
         11    1    3    3    0    0 -0.36835291599E+03  0.15466234881E+03  0.18992720680E+04  0.19408345372E+04  0.00000000000E+00 0. -1.
        -11    1    3    3    0    0 -0.25009051905E+03  0.18700061766E+03  0.13520623708E+04  0.13876552718E+04  0.00000000000E+00 0.  1.
         22    1    1    2    0    0  0.61844343504E+03 -0.34166296647E+03 -0.14075936027E+04  0.15749684490E+04  0.00000000000E+00 0. -1.
<mgrwt>
<rscale>  0 0.45436244E+04</rscale>
<asrwt>0</asrwt>
<pdfrwt beam="1">  1        2 0.51901531E+00 0.45436244E+04</pdfrwt>
<pdfrwt beam="2">  1       -2 0.23536288E+00 0.45436244E+04</pdfrwt>
<totfact> 0.59301671E-02</totfact>
</mgrwt>
</event>
<event>
 6    1  0.2436515E-005  0.2335645E+04  0.7818608E-02  0.8463998E-01
          2   -1    0    0  501    0  0.00000000000E+00  0.00000000000E+00  0.99368723610E+03  0.99368723610E+03  0.00000000000E+00 0.  1.
         -2   -1    0    0    0  501 -0.00000000000E+00 -0.00000000000E+00 -0.13724735073E+04  0.13724735073E+04  0.00000000000E+00 0. -1.
         23    2    1    2    0    0 -0.19703231157E+03  0.10698586406E+04  0.23550444649E+03  0.11168520031E+04  0.92069591930E+02 0.  0.
         11    1    3    3    0    0 -0.47979098361E+02  0.33190902359E+03  0.31415579126E+02  0.33682715513E+03  0.00000000000E+00 0. -1.
        -11    1    3    3    0    0 -0.14905321321E+03  0.73794961705E+03  0.20408886736E+03  0.78002484797E+03  0.00000000000E+00 0.  1.
         22    1    1    2    0    0  0.19703231157E+03 -0.10698586406E+04 -0.61429071767E+03  0.12493087403E+04  0.00000000000E+00 0. -1.
<mgrwt>
<rscale>  0 0.23356450E+04</rscale>
<asrwt>0</asrwt>
<pdfrwt beam="1">  1        2 0.15287496E+00 0.23356450E+04</pdfrwt>
<pdfrwt beam="2">  1       -2 0.21114977E+00 0.23356450E+04</pdfrwt>
<totfact> 0.25868280E+00</totfact>
</mgrwt>
</event>
<event>
 6    1  0.2436515E-005  0.3952985E+04  0.7818608E-02  0.8014099E-01
         -2   -1    0    0    0  501 -0.00000000000E+00  0.00000000000E+00  0.12354265736E+04  0.12354265736E+04  0.00000000000E+00 0. -1.
          2   -1    0    0  501    0  0.00000000000E+00 -0.00000000000E+00 -0.31620846545E+04  0.31620846545E+04  0.00000000000E+00 0.  1.
         23    2    1    2    0    0  0.21503767010E+03  0.39307340201E+03 -0.31041886784E+04  0.31376198808E+04  0.89012730939E+02 0.  0.
         13    1    3    3    0    0  0.90854652199E+02  0.22173704565E+03 -0.14023689680E+04  0.14226948399E+04  0.00000000000E+00 0. -1.
        -13    1    3    3    0    0  0.12418301790E+03  0.17133635636E+03 -0.17018197105E+04  0.17149250409E+04  0.00000000000E+00 0.  1.
         22    1    1    2    0    0 -0.21503767010E+03 -0.39307340201E+03  0.11775305975E+04  0.12598913473E+04  0.00000000000E+00 0. -1.
<mgrwt>
<rscale>  0 0.39529854E+04</rscale>
<asrwt>0</asrwt>
<pdfrwt beam="1">  1        2 0.48647456E+00 0.39529854E+04</pdfrwt>
<pdfrwt beam="2">  1       -2 0.19006563E+00 0.39529854E+04</pdfrwt>
<totfact> 0.16813966E-01</totfact>
</mgrwt>
</event>
<event>
 6    1  0.2436515E-005  0.3036488E+04  0.7818608E-02  0.8233388E-01
         -2   -1    0    0    0  501 -0.00000000000E+00  0.00000000000E+00  0.11654007782E+04  0.11654007782E+04  0.00000000000E+00 0. -1.
          2   -1    0    0  501    0  0.00000000000E+00 -0.00000000000E+00 -0.19779157990E+04  0.19779157990E+04  0.00000000000E+00 0.  1.
         23    2    1    2    0    0 -0.58557326737E+03  0.41207718597E+03 -0.17908945167E+04  0.19309098399E+04  0.91684137648E+02 0.  0.
         13    1    3    3    0    0 -0.41133815216E+03  0.24332060794E+03 -0.11300024746E+04  0.12269105861E+04  0.00000000000E+00 0. -1.
        -13    1    3    3    0    0 -0.17423511522E+03  0.16875657803E+03 -0.66089204215E+03  0.70399925382E+03  0.00000000000E+00 0.  1.
         22    1    1    2    0    0  0.58557326737E+03 -0.41207718597E+03  0.97837949590E+03  0.12124067373E+04  0.00000000000E+00 0. -1.
<mgrwt>
<rscale>  0 0.30364878E+04</rscale>
<asrwt>0</asrwt>
<pdfrwt beam="1">  1        2 0.30429474E+00 0.30364878E+04</pdfrwt>
<pdfrwt beam="2">  1       -2 0.17929243E+00 0.30364878E+04</pdfrwt>
<totfact> 0.10757887E+00</totfact>
</mgrwt>
</event>
<event>
 6    1  0.2436515E-005  0.2232994E+04  0.7818608E-02  0.8504819E-01
         -2   -1    0    0    0  501 -0.00000000000E+00  0.00000000000E+00  0.58814160186E+03  0.58814160186E+03  0.00000000000E+00 0. -1.
          2   -1    0    0  501    0  0.00000000000E+00 -0.00000000000E+00 -0.21194991627E+04  0.21194991627E+04  0.00000000000E+00 0.  1.
         23    2    1    2    0    0 -0.12193960712E+03  0.62693722850E+03  0.34088080814E+03  0.72946077616E+03  0.89407730802E+02 0.  0.
         13    1    3    3    0    0 -0.12492713774E+03  0.45639990930E+03  0.23095729817E+03  0.52654433861E+03  0.00000000000E+00 0.  1.
        -13    1    3    3    0    0  0.29875306151E+01  0.17053731920E+03  0.10992350997E+03  0.20291643754E+03  0.00000000000E+00 0. -1.
         22    1    1    2    0    0  0.12193960712E+03 -0.62693722850E+03 -0.18722383689E+04  0.19781799884E+04  0.00000000000E+00 0.  1.
<mgrwt>
<rscale>  0 0.22329941E+04</rscale>
<asrwt>0</asrwt>
<pdfrwt beam="1">  1        2 0.32607679E+00 0.22329941E+04</pdfrwt>
<pdfrwt beam="2">  1       -2 0.90483324E-01 0.22329941E+04</pdfrwt>
<totfact> 0.54515795E+00</totfact>
</mgrwt>
</event>
<event>
 6    1  0.2436515E-005  0.1171073E+04  0.7818608E-02  0.9138560E-01
         -2   -1    0    0    0  501 -0.00000000000E+00  0.00000000000E+00  0.13842956803E+04  0.13842956803E+04  0.00000000000E+00 0. -1.
          2   -1    0    0  501    0  0.00000000000E+00 -0.00000000000E+00 -0.24767323532E+03  0.24767323532E+03  0.00000000000E+00 0.  1.
         23    2    1    2    0    0 -0.12491986061E+03 -0.13243904584E+03  0.13411844653E+04  0.13581246304E+04  0.11216804027E+03 0.  0.
         11    1    3    3    0    0 -0.45369552324E+02 -0.12385065373E+03  0.74361490335E+03  0.75522215619E+03  0.00000000000E+00 0.  1.
        -11    1    3    3    0    0 -0.79550308290E+02 -0.85883921094E+01  0.59756956194E+03  0.60290247419E+03  0.00000000000E+00 0. -1.
         22    1    1    2    0    0  0.12491986061E+03  0.13243904584E+03 -0.20456202028E+03  0.27384428528E+03  0.00000000000E+00 0.  1.
<mgrwt>
<rscale>  0 0.11710730E+04</rscale>
<asrwt>0</asrwt>
<pdfrwt beam="1">  1        2 0.38103576E-01 0.11710730E+04</pdfrwt>
<pdfrwt beam="2">  1       -2 0.21296856E+00 0.11710730E+04</pdfrwt>
<totfact> 0.14737525E+01</totfact>
</mgrwt>
</event>
<event>
 6    1  0.2436515E-005  0.4380751E+04  0.7818608E-02  0.7931853E-01
          2   -1    0    0  501    0  0.00000000000E+00  0.00000000000E+00  0.25702966554E+04  0.25702966554E+04  0.00000000000E+00 0.  1.
         -2   -1    0    0    0  501 -0.00000000000E+00 -0.00000000000E+00 -0.18666112618E+04  0.18666112618E+04  0.00000000000E+00 0. -1.
         23    2    1    2    0    0  0.37921353274E+03 -0.18996100746E+04 -0.68202426881E+03  0.20552041977E+04  0.79911526723E+02 0.  0.
         11    1    3    3    0    0  0.85534001368E+02 -0.59677864215E+03 -0.22998552709E+03  0.64525510908E+03  0.00000000000E+00 0. -1.
        -11    1    3    3    0    0  0.29367953138E+03 -0.13028314325E+04 -0.45203874173E+03  0.14099490886E+04  0.00000000000E+00 0.  1.
         22    1    1    2    0    0 -0.37921353274E+03  0.18996100746E+04  0.13857096624E+04  0.23817037195E+04  0.00000000000E+00 0.  1.
<mgrwt>
<rscale>  0 0.43807509E+04</rscale>
<asrwt>0</asrwt>
<pdfrwt beam="1">  1        2 0.39543025E+00 0.43807509E+04</pdfrwt>
<pdfrwt beam="2">  1       -2 0.28717096E+00 0.43807509E+04</pdfrwt>
<totfact> 0.92272011E-02</totfact>
</mgrwt>
</event>
<event>
 6    1  0.2436515E-005  0.3134652E+04  0.7818608E-02  0.8206292E-01
         -2   -1    0    0    0  501 -0.00000000000E+00  0.00000000000E+00  0.79222942935E+03  0.79222942935E+03  0.00000000000E+00 0. -1.
          2   -1    0    0  501    0  0.00000000000E+00 -0.00000000000E+00 -0.31007558486E+04  0.31007558486E+04  0.00000000000E+00 0.  1.
         23    2    1    2    0    0  0.64979825166E+03  0.14099941835E+04 -0.14095609630E+04  0.20989785174E+04  0.92343611387E+02 0.  0.
         11    1    3    3    0    0  0.50300742828E+03  0.11717392628E+04 -0.11404956269E+04  0.17107658074E+04  0.00000000000E+00 0.  1.
        -11    1    3    3    0    0  0.14679082338E+03  0.23825492078E+03 -0.26906533605E+03  0.38821270995E+03  0.00000000000E+00 0. -1.
         22    1    1    2    0    0 -0.64979825166E+03 -0.14099941835E+04 -0.89896545629E+03  0.17940067606E+04  0.00000000000E+00 0.  1.
<mgrwt>
<rscale>  0 0.31346515E+04</rscale>
<asrwt>0</asrwt>
<pdfrwt beam="1">  1        2 0.47703937E+00 0.31346515E+04</pdfrwt>
<pdfrwt beam="2">  1       -2 0.12188145E+00 0.31346515E+04</pdfrwt>
<totfact> 0.64953792E-01</totfact>
</mgrwt>
</event>
<event>
 6    1  0.2436515E-005  0.1352829E+04  0.7818608E-02  0.8988690E-01
          2   -1    0    0  501    0  0.00000000000E+00  0.00000000000E+00  0.15544080210E+04  0.15544080210E+04  0.00000000000E+00 0.  1.
         -2   -1    0    0    0  501 -0.00000000000E+00 -0.00000000000E+00 -0.29434767844E+03  0.29434767844E+03  0.00000000000E+00 0. -1.
         23    2    1    2    0    0  0.22189539400E+03  0.11145436133E+03 -0.22229187584E+03  0.34574946528E+03  0.92029202620E+02 0.  0.
         11    1    3    3    0    0  0.16413673406E+03  0.97313839780E+02 -0.21230112148E+03  0.28545160196E+03  0.00000000000E+00 0. -1.
        -11    1    3    3    0    0  0.57758659941E+02  0.14140521548E+02 -0.99907543666E+01  0.60297863318E+02  0.00000000000E+00 0.  1.
         22    1    1    2    0    0 -0.22189539400E+03 -0.11145436133E+03  0.14823522184E+04  0.15030062342E+04  0.00000000000E+00 0.  1.
<mgrwt>
<rscale>  0 0.13528287E+04</rscale>
<asrwt>0</asrwt>
<pdfrwt beam="1">  1        2 0.23913969E+00 0.13528287E+04</pdfrwt>
<pdfrwt beam="2">  1       -2 0.45284259E-01 0.13528287E+04</pdfrwt>
<totfact> 0.53404175E+01</totfact>
</mgrwt>
</event>
<event>
 6    1  0.2436515E-005  0.6223604E+03  0.7818608E-02  0.9860071E-01
         -2   -1    0    0    0  501 -0.00000000000E+00  0.00000000000E+00  0.61151607372E+02  0.61151607372E+02  0.00000000000E+00 0. -1.
          2   -1    0    0  501    0  0.00000000000E+00 -0.00000000000E+00 -0.15834923849E+04  0.15834923849E+04  0.00000000000E+00 0.  1.
         23    2    1    2    0    0  0.22162620620E+03  0.12214284664E+03 -0.33022931254E+03  0.42596979659E+03  0.91442979429E+02 0.  0.
         11    1    3    3    0    0  0.19675020158E+03  0.10883476400E+03 -0.32800271722E+03  0.39767000161E+03  0.00000000000E+00 0. -1.
        -11    1    3    3    0    0  0.24876004623E+02  0.13308082638E+02 -0.22265953252E+01  0.28299794986E+02  0.00000000000E+00 0.  1.
         22    1    1    2    0    0 -0.22162620620E+03 -0.12214284664E+03 -0.11921114650E+04  0.12186741957E+04  0.00000000000E+00 0.  1.
<mgrwt>
<rscale>  0 0.62236036E+03</rscale>
<asrwt>0</asrwt>
<pdfrwt beam="1">  1        2 0.24361422E+00 0.62236036E+03</pdfrwt>
<pdfrwt beam="2">  1       -2 0.94079395E-02 0.62236036E+03</pdfrwt>
<totfact> 0.88082333E+02</totfact>
</mgrwt>
</event>
<event>
 6    1  0.2436515E-005  0.2086233E+04  0.7818608E-02  0.8567332E-01
         -2   -1    0    0    0  501 -0.00000000000E+00  0.00000000000E+00  0.31711919437E+03  0.31711919437E+03  0.00000000000E+00 0. -1.
          2   -1    0    0  501    0  0.00000000000E+00 -0.00000000000E+00 -0.34311762777E+04  0.34311762777E+04  0.00000000000E+00 0.  1.
         23    2    1    2    0    0 -0.89380732404E+03  0.44802628653E+03 -0.20817183471E+04  0.23111655711E+04  0.91191745812E+02 0.  0.
         13    1    3    3    0    0 -0.76141324939E+03  0.41634287026E+03 -0.18042570898E+04  0.20021076815E+04  0.00000000000E+00 0. -1.
        -13    1    3    3    0    0 -0.13239407464E+03  0.31683416270E+02 -0.27746125725E+03  0.30905788963E+03  0.00000000000E+00 0.  1.
         22    1    1    2    0    0  0.89380732404E+03 -0.44802628653E+03 -0.10323387362E+04  0.14371299010E+04  0.00000000000E+00 0. -1.
<mgrwt>
<rscale>  0 0.20862328E+04</rscale>
<asrwt>0</asrwt>
<pdfrwt beam="1">  1        2 0.52787330E+00 0.20862328E+04</pdfrwt>
<pdfrwt beam="2">  1       -2 0.48787566E-01 0.20862328E+04</pdfrwt>
<totfact> 0.33452735E+00</totfact>
</mgrwt>
</event>
<event>
 6    1  0.2436515E-005  0.1742632E+04  0.7818608E-02  0.8737416E-01
          2   -1    0    0  501    0  0.00000000000E+00  0.00000000000E+00  0.38833502001E+03  0.38833502001E+03  0.00000000000E+00 0.  1.
         -2   -1    0    0    0  501 -0.00000000000E+00 -0.00000000000E+00 -0.19549917222E+04  0.19549917222E+04  0.00000000000E+00 0. -1.
         23    2    1    2    0    0  0.51801451898E+02 -0.23050451709E+03 -0.19102960282E+04  0.19263091057E+04  0.74967543521E+02 0.  0.
         13    1    3    3    0    0  0.67264790628E+02 -0.14969070271E+03 -0.13675874739E+04  0.13773987648E+04  0.00000000000E+00 0.  1.
        -13    1    3    3    0    0 -0.15463338729E+02 -0.80813814376E+02 -0.54270855430E+03  0.54891034090E+03  0.00000000000E+00 0. -1.
         22    1    1    2    0    0 -0.51801451898E+02  0.23050451709E+03  0.34363932598E+03  0.41701763653E+03  0.00000000000E+00 0.  1.
<mgrwt>
<rscale>  0 0.17426322E+04</rscale>
<asrwt>0</asrwt>
<pdfrwt beam="1">  1        2 0.59743850E-01 0.17426322E+04</pdfrwt>
<pdfrwt beam="2">  1       -2 0.30076795E+00 0.17426322E+04</pdfrwt>
<totfact> 0.24566716E+00</totfact>
</mgrwt>
</event>
<event>
 6    1  0.2436515E-005  0.3162366E+04  0.7818608E-02  0.8198827E-01
         -2   -1    0    0    0  501 -0.00000000000E+00  0.00000000000E+00  0.14164757185E+04  0.14164757185E+04  0.00000000000E+00 0. -1.
          2   -1    0    0  501    0  0.00000000000E+00 -0.00000000000E+00 -0.17650427434E+04  0.17650427434E+04  0.00000000000E+00 0.  1.
         23    2    1    2    0    0  0.10067615718E+04  0.81441875503E+03 -0.10851633729E+04  0.16917463482E+04  0.87059689871E+02 0.  0.
         13    1    3    3    0    0  0.54921621465E+03  0.44176542871E+03 -0.53397985804E+03  0.88426785152E+03  0.00000000000E+00 0.  1.
        -13    1    3    3    0    0  0.45754535713E+03  0.37265332632E+03 -0.55118351488E+03  0.80747849664E+03  0.00000000000E+00 0. -1.
         22    1    1    2    0    0 -0.10067615718E+04 -0.81441875503E+03  0.73659634802E+03  0.14897721137E+04  0.00000000000E+00 0. -1.
<mgrwt>
<rscale>  0 0.31623663E+04</rscale>
<asrwt>0</asrwt>
<pdfrwt beam="1">  1        2 0.27154504E+00 0.31623663E+04</pdfrwt>
<pdfrwt beam="2">  1       -2 0.21791934E+00 0.31623663E+04</pdfrwt>
<totfact> 0.77663381E-01</totfact>
</mgrwt>
</event>
<event>
 6    1  0.2436515E-005  0.9417083E+03  0.7818608E-02  0.9374895E-01
         -2   -1    0    0    0  501 -0.00000000000E+00  0.00000000000E+00  0.84385545024E+02  0.84385545024E+02  0.00000000000E+00 0. -1.
          2   -1    0    0  501    0  0.00000000000E+00 -0.00000000000E+00 -0.26272703212E+04  0.26272703212E+04  0.00000000000E+00 0.  1.
         23    2    1    2    0    0  0.27872862597E+03  0.29352283285E+03 -0.19501764177E+04  0.19939174051E+04  0.93130327825E+02 0.  0.
         11    1    3    3    0    0  0.77966706285E+02  0.90666489900E+02 -0.39254651893E+03  0.41035592990E+03  0.00000000000E+00 0.  1.
        -11    1    3    3    0    0  0.20076191968E+03  0.20285634295E+03 -0.15576298987E+04  0.15835614752E+04  0.00000000000E+00 0. -1.
         22    1    1    2    0    0 -0.27872862597E+03 -0.29352283285E+03 -0.59270835847E+03  0.71773846110E+03  0.00000000000E+00 0. -1.
<mgrwt>
<rscale>  0 0.94170832E+03</rscale>
<asrwt>0</asrwt>
<pdfrwt beam="1">  1        2 0.40419548E+00 0.94170832E+03</pdfrwt>
<pdfrwt beam="2">  1       -2 0.12982390E-01 0.94170832E+03</pdfrwt>
<totfact> 0.13386218E+02</totfact>
</mgrwt>
</event>
<event>
 6    1  0.2436515E-005  0.2726992E+04  0.7818608E-02  0.8326300E-01
         -2   -1    0    0    0  501 -0.00000000000E+00  0.00000000000E+00  0.90126876444E+03  0.90126876444E+03  0.00000000000E+00 0. -1.
          2   -1    0    0  501    0  0.00000000000E+00 -0.00000000000E+00 -0.20627830102E+04  0.20627830102E+04  0.00000000000E+00 0.  1.
         23    2    1    2    0    0 -0.44839463727E+03 -0.91723504239E+02 -0.19756052065E+04  0.20301272357E+04  0.94497138588E+02 0.  0.
         13    1    3    3    0    0 -0.20224347539E+03 -0.69304205684E+02 -0.10848703914E+04  0.11057347161E+04  0.00000000000E+00 0. -1.
        -13    1    3    3    0    0 -0.24615116188E+03 -0.22419298555E+02 -0.89073481505E+03  0.92439251954E+03  0.00000000000E+00 0.  1.
         22    1    1    2    0    0  0.44839463727E+03  0.91723504239E+02  0.81409096078E+03  0.93392453891E+03  0.00000000000E+00 0. -1.
<mgrwt>
<rscale>  0 0.27269924E+04</rscale>
<asrwt>0</asrwt>
<pdfrwt beam="1">  1        2 0.31735122E+00 0.27269924E+04</pdfrwt>
<pdfrwt beam="2">  1       -2 0.13865674E+00 0.27269924E+04</pdfrwt>
<totfact> 0.19871391E+00</totfact>
</mgrwt>
</event>
<event>
 6    1  0.2436515E-005  0.4463076E+03  0.7818608E-02  0.1028829E+00
         -2   -1    0    0    0  501 -0.00000000000E+00  0.00000000000E+00  0.18139720182E+03  0.18139720182E+03  0.00000000000E+00 0. -1.
          2   -1    0    0  501    0  0.00000000000E+00 -0.00000000000E+00 -0.27452252574E+03  0.27452252574E+03  0.00000000000E+00 0.  1.
         23    2    1    2    0    0 -0.41994466398E+02 -0.67516370142E+02  0.15423118591E+03  0.19609817650E+03  0.91352288838E+02 0.  0.
         13    1    3    3    0    0 -0.43907514369E+02  0.55833108320E+01  0.82729453467E+02  0.93825399806E+02  0.00000000000E+00 0. -1.
        -13    1    3    3    0    0  0.19130479717E+01 -0.73099680974E+02  0.71501732440E+02  0.10227277670E+03  0.00000000000E+00 0.  1.
         22    1    1    2    0    0  0.41994466398E+02  0.67516370142E+02 -0.24735650982E+03  0.25982155106E+03  0.00000000000E+00 0.  1.
<mgrwt>
<rscale>  0 0.44630760E+03</rscale>
<asrwt>0</asrwt>
<pdfrwt beam="1">  1        2 0.42234235E-01 0.44630760E+03</pdfrwt>
<pdfrwt beam="2">  1       -2 0.27907262E-01 0.44630760E+03</pdfrwt>
<totfact> 0.14150617E+03</totfact>
</mgrwt>
</event>
<event>
 6    1  0.2436515E-005  0.1419588E+04  0.7818608E-02  0.8939760E-01
          2   -1    0    0  501    0  0.00000000000E+00  0.00000000000E+00  0.41203937318E+04  0.41203937318E+04  0.00000000000E+00 0.  1.
         -2   -1    0    0    0  501 -0.00000000000E+00 -0.00000000000E+00 -0.12227175925E+03  0.12227175925E+03  0.00000000000E+00 0. -1.
         23    2    1    2    0    0 -0.30943012379E+03 -0.46174778256E+03  0.33118778226E+04  0.33595522199E+04  0.95385484763E+02 0.  0.
         13    1    3    3    0    0 -0.56866125884E+02 -0.15122368421E+03  0.10900125420E+04  0.11019209140E+04  0.00000000000E+00 0. -1.
        -13    1    3    3    0    0 -0.25256399790E+03 -0.31052409835E+03  0.22218652805E+04  0.22576313059E+04  0.00000000000E+00 0.  1.
         22    1    1    2    0    0  0.30943012379E+03  0.46174778256E+03  0.68624414998E+03  0.88311327110E+03  0.00000000000E+00 0. -1.
<mgrwt>
<rscale>  0 0.14195884E+04</rscale>
<asrwt>0</asrwt>
<pdfrwt beam="1">  1        2 0.63390662E+00 0.14195884E+04</pdfrwt>
<pdfrwt beam="2">  1       -2 0.18811043E-01 0.14195884E+04</pdfrwt>
<totfact> 0.64854062E+00</totfact>
</mgrwt>
</event>
<event>
 6    1  0.2436515E-005  0.3244391E+04  0.7818608E-02  0.8177191E-01
         -2   -1    0    0    0  501 -0.00000000000E+00  0.00000000000E+00  0.87708233385E+03  0.87708233385E+03  0.00000000000E+00 0. -1.
          2   -1    0    0  501    0  0.00000000000E+00 -0.00000000000E+00 -0.30003094372E+04  0.30003094372E+04  0.00000000000E+00 0.  1.
         23    2    1    2    0    0  0.14909202096E+04 -0.63496666438E+03 -0.10203144524E+04  0.19171769736E+04  0.92196692329E+02 0.  0.
         11    1    3    3    0    0  0.11521891206E+04 -0.44924924577E+03 -0.78831804351E+03  0.14665640089E+04  0.00000000000E+00 0. -1.
        -11    1    3    3    0    0  0.33873108904E+03 -0.18571741861E+03 -0.23199640890E+03  0.45061296475E+03  0.00000000000E+00 0.  1.
         22    1    1    2    0    0 -0.14909202096E+04  0.63496666438E+03 -0.11029126509E+04  0.19602147974E+04  0.00000000000E+00 0.  1.
<mgrwt>
<rscale>  0 0.32443911E+04</rscale>
<asrwt>0</asrwt>
<pdfrwt beam="1">  1        2 0.46158606E+00 0.32443911E+04</pdfrwt>
<pdfrwt beam="2">  1       -2 0.13493575E+00 0.32443911E+04</pdfrwt>
<totfact> 0.57633808E-01</totfact>
</mgrwt>
</event>
<event>
 6    1  0.2436515E-005  0.5783517E+04  0.7818608E-02  0.7717838E-01
          2   -1    0    0  501    0  0.00000000000E+00  0.00000000000E+00  0.32620724712E+04  0.32620724712E+04  0.00000000000E+00 0.  1.
         -2   -1    0    0    0  501 -0.00000000000E+00 -0.00000000000E+00 -0.25634829387E+04  0.25634829387E+04  0.00000000000E+00 0. -1.
         23    2    1    2    0    0 -0.29850013954E+03 -0.22767926863E+04 -0.14199773022E+04  0.27012614571E+04  0.87124344146E+02 0.  0.
         11    1    3    3    0    0 -0.12941691771E+03 -0.10175353561E+04 -0.68510318218E+03  0.12334882690E+04  0.00000000000E+00 0. -1.
        -11    1    3    3    0    0 -0.16908322183E+03 -0.12592573301E+04 -0.73487412004E+03  0.14677731881E+04  0.00000000000E+00 0.  1.
         22    1    1    2    0    0  0.29850013954E+03  0.22767926863E+04  0.21185668347E+04  0.31242939527E+04  0.00000000000E+00 0.  1.
<mgrwt>
<rscale>  0 0.57835170E+04</rscale>
<asrwt>0</asrwt>
<pdfrwt beam="1">  1        2 0.50185730E+00 0.57835170E+04</pdfrwt>
<pdfrwt beam="2">  1       -2 0.39438199E+00 0.57835170E+04</pdfrwt>
<totfact> 0.65245685E-03</totfact>
</mgrwt>
</event>
<event>
 6    1  0.2436515E-005  0.2651304E+04  0.7818608E-02  0.8350980E-01
         -1   -1    0    0    0  501 -0.00000000000E+00  0.00000000000E+00  0.89469847920E+03  0.89469847920E+03  0.00000000000E+00 0. -1.
          1   -1    0    0  501    0  0.00000000000E+00 -0.00000000000E+00 -0.19641845773E+04  0.19641845773E+04  0.00000000000E+00 0.  1.
         23    2    1    2    0    0 -0.11613425311E+03 -0.99516218843E+03 -0.14688848897E+04  0.17802940056E+04  0.89381100471E+02 0.  0.
         13    1    3    3    0    0 -0.13378990638E+02 -0.49216831217E+03 -0.70311344533E+03  0.85835724608E+03  0.00000000000E+00 0.  1.
        -13    1    3    3    0    0 -0.10275526248E+03 -0.50299387626E+03 -0.76577144437E+03  0.92193675951E+03  0.00000000000E+00 0. -1.
         22    1    1    2    0    0  0.11613425311E+03  0.99516218843E+03  0.39939879160E+03  0.10785890509E+04  0.00000000000E+00 0. -1.
<mgrwt>
<rscale>  0 0.26513038E+04</rscale>
<asrwt>0</asrwt>
<pdfrwt beam="1">  1        1 0.30218224E+00 0.26513038E+04</pdfrwt>
<pdfrwt beam="2">  1       -1 0.13764592E+00 0.26513038E+04</pdfrwt>
<totfact> 0.12105698E+00</totfact>
</mgrwt>
</event>
<event>
 6    1  0.2436515E-005  0.2363863E+04  0.7818608E-02  0.8453158E-01
          2   -1    0    0  501    0  0.00000000000E+00  0.00000000000E+00  0.39107289673E+04  0.39107289673E+04  0.00000000000E+00 0.  1.
         -2   -1    0    0    0  501 -0.00000000000E+00 -0.00000000000E+00 -0.35721268357E+03  0.35721268357E+03  0.00000000000E+00 0. -1.
         23    2    1    2    0    0 -0.10586465961E+04  0.51703186056E+03  0.16609690484E+04  0.20386391594E+04  0.95796046037E+02 0.  0.
         13    1    3    3    0    0 -0.31393035629E+03  0.13585452849E+03  0.55399888718E+03  0.65109407040E+03  0.00000000000E+00 0.  1.
        -13    1    3    3    0    0 -0.74471623982E+03  0.38117733207E+03  0.11069701612E+04  0.13875450890E+04  0.00000000000E+00 0. -1.
         22    1    1    2    0    0  0.10586465961E+04 -0.51703186056E+03  0.18925472354E+04  0.22293024915E+04  0.00000000000E+00 0. -1.
<mgrwt>
<rscale>  0 0.23638629E+04</rscale>
<asrwt>0</asrwt>
<pdfrwt beam="1">  1        2 0.60165058E+00 0.23638629E+04</pdfrwt>
<pdfrwt beam="2">  1       -2 0.54955800E-01 0.23638629E+04</pdfrwt>
<totfact> 0.11373973E+00</totfact>
</mgrwt>
</event>
<event>
 6    1  0.2436515E-005  0.1519226E+04  0.7818608E-02  0.8871768E-01
          2   -1    0    0  501    0  0.00000000000E+00  0.00000000000E+00  0.93881398541E+03  0.93881398541E+03  0.00000000000E+00 0.  1.
         -2   -1    0    0    0  501 -0.00000000000E+00 -0.00000000000E+00 -0.61461784012E+03  0.61461784012E+03  0.00000000000E+00 0. -1.
         23    2    1    2    0    0 -0.58745823030E+03  0.33834262149E+03  0.50680137757E+03  0.85134381629E+03  0.91409821016E+02 0.  0.
         13    1    3    3    0    0 -0.12350992801E+03  0.94135819109E+02  0.76687257083E+02  0.17319696925E+03  0.00000000000E+00 0.  1.
        -13    1    3    3    0    0 -0.46394830229E+03  0.24420680238E+03  0.43011412048E+03  0.67814684705E+03  0.00000000000E+00 0. -1.
         22    1    1    2    0    0  0.58745823030E+03 -0.33834262149E+03 -0.18260523227E+03  0.70208800924E+03  0.00000000000E+00 0. -1.
<mgrwt>
<rscale>  0 0.15192259E+04</rscale>
<asrwt>0</asrwt>
<pdfrwt beam="1">  1        2 0.14443292E+00 0.15192259E+04</pdfrwt>
<pdfrwt beam="2">  1       -2 0.94556591E-01 0.15192259E+04</pdfrwt>
<totfact> 0.25111829E+01</totfact>
</mgrwt>
</event>
<event>
 6    1  0.2436515E-005  0.1805075E+04  0.7818608E-02  0.8703605E-01
         -2   -1    0    0    0  501 -0.00000000000E+00  0.00000000000E+00  0.42993177989E+03  0.42993177989E+03  0.00000000000E+00 0. -1.
          2   -1    0    0  501    0  0.00000000000E+00 -0.00000000000E+00 -0.18946588724E+04  0.18946588724E+04  0.00000000000E+00 0.  1.
         23    2    1    2    0    0 -0.55784971332E+02 -0.68638235471E+03 -0.14809728212E+04  0.16357534992E+04  0.90422967053E+02 0.  0.
         13    1    3    3    0    0 -0.10784148946E+02 -0.55054096145E+03 -0.12064300020E+04  0.13261542134E+04  0.00000000000E+00 0.  1.
        -13    1    3    3    0    0 -0.45000822385E+02 -0.13584139326E+03 -0.27454281921E+03  0.30959928572E+03  0.00000000000E+00 0. -1.
         22    1    1    2    0    0  0.55784971332E+02  0.68638235471E+03  0.16245728662E+02  0.68883715317E+03  0.00000000000E+00 0. -1.
<mgrwt>
<rscale>  0 0.18050751E+04</rscale>
<asrwt>0</asrwt>
<pdfrwt beam="1">  1        2 0.29148598E+00 0.18050751E+04</pdfrwt>
<pdfrwt beam="2">  1       -2 0.66143351E-01 0.18050751E+04</pdfrwt>
<totfact> 0.15168771E+01</totfact>
</mgrwt>
</event>
<event>
 6    1  0.2436515E-005  0.7654343E+03  0.7818608E-02  0.9611443E-01
         -2   -1    0    0    0  501 -0.00000000000E+00  0.00000000000E+00  0.19374230319E+03  0.19374230319E+03  0.00000000000E+00 0. -1.
          2   -1    0    0  501    0  0.00000000000E+00 -0.00000000000E+00 -0.75601679151E+03  0.75601679151E+03  0.00000000000E+00 0.  1.
         23    2    1    2    0    0  0.25288029623E+03  0.24701832240E+03 -0.44927834378E+03  0.57863293758E+03  0.89434615447E+02 0.  0.
         11    1    3    3    0    0  0.52027928201E+02  0.10898754970E+03 -0.15713844591E+03  0.19818597954E+03  0.00000000000E+00 0. -1.
        -11    1    3    3    0    0  0.20085236803E+03  0.13803077269E+03 -0.29213989787E+03  0.38044695804E+03  0.00000000000E+00 0.  1.
         22    1    1    2    0    0 -0.25288029623E+03 -0.24701832240E+03 -0.11299614454E+03  0.37112615713E+03  0.00000000000E+00 0.  1.
<mgrwt>
<rscale>  0 0.76543435E+03</rscale>
<asrwt>0</asrwt>
<pdfrwt beam="1">  1        2 0.11631028E+00 0.76543435E+03</pdfrwt>
<pdfrwt beam="2">  1       -2 0.29806508E-01 0.76543435E+03</pdfrwt>
<totfact> 0.38713398E+02</totfact>
</mgrwt>
</event>
<event>
 6    1  0.2904728E-005  0.3578016E+04  0.7818608E-02  0.8095546E-01
         -2   -1    0    0    0  501 -0.00000000000E+00  0.00000000000E+00  0.14021179474E+04  0.14021179474E+04  0.00000000000E+00 0. -1.
          2   -1    0    0  501    0  0.00000000000E+00 -0.00000000000E+00 -0.22826537729E+04  0.22826537729E+04  0.00000000000E+00 0.  1.
         23    2    1    2    0    0 -0.40168147272E+03 -0.10227480476E+04  0.10119096749E+04  0.14964592321E+04  0.89819088239E+02 0.  0.
         11    1    3    3    0    0 -0.28256357090E+03 -0.65015828927E+03  0.69862096429E+03  0.99529856046E+03  0.00000000000E+00 0. -1.
        -11    1    3    3    0    0 -0.11911790183E+03 -0.37258975834E+03  0.31328871062E+03  0.50116067160E+03  0.00000000000E+00 0.  1.
         22    1    1    2    0    0  0.40168147272E+03  0.10227480476E+04 -0.18924455003E+04  0.21883124882E+04  0.00000000000E+00 0.  1.
<mgrwt>
<rscale>  0 0.35780161E+04</rscale>
<asrwt>0</asrwt>
<pdfrwt beam="1">  1        2 0.35117750E+00 0.35780161E+04</pdfrwt>
<pdfrwt beam="2">  1       -2 0.21571046E+00 0.35780161E+04</pdfrwt>
<totfact> 0.39851835E-01</totfact>
</mgrwt>
</event>
<event>
 6    1  0.2436515E-005  0.5937252E+04  0.7818608E-02  0.7698231E-01
          2   -1    0    0  501    0  0.00000000000E+00  0.00000000000E+00  0.35836570748E+04  0.35836570748E+04  0.00000000000E+00 0.  1.
         -2   -1    0    0    0  501 -0.00000000000E+00 -0.00000000000E+00 -0.24591473320E+04  0.24591473320E+04  0.00000000000E+00 0. -1.
         23    2    1    2    0    0 -0.79791076381E+03 -0.10860116323E+04  0.32537464656E+04  0.35229369749E+04  0.90199857275E+02 0.  0.
         11    1    3    3    0    0 -0.32303147614E+03 -0.50652306764E+03  0.15030160456E+04  0.16186328138E+04  0.00000000000E+00 0. -1.
        -11    1    3    3    0    0 -0.47487928767E+03 -0.57948856464E+03  0.17507304200E+04  0.19043041611E+04  0.00000000000E+00 0.  1.
         22    1    1    2    0    0  0.79791076381E+03  0.10860116323E+04 -0.21292367229E+04  0.25198674319E+04  0.00000000000E+00 0. -1.
<mgrwt>
<rscale>  0 0.59372521E+04</rscale>
<asrwt>0</asrwt>
<pdfrwt beam="1">  1        2 0.55133185E+00 0.59372521E+04</pdfrwt>
<pdfrwt beam="2">  1       -2 0.37833036E+00 0.59372521E+04</pdfrwt>
<totfact> 0.49142778E-03</totfact>
</mgrwt>
</event>
<event>
 6    1  0.3601169E-005  0.4461163E+04  0.7818608E-02  0.7917471E-01
         -2   -1    0    0    0  501 -0.00000000000E+00  0.00000000000E+00  0.26848559202E+04  0.26848559202E+04  0.00000000000E+00 0.  1.
          2   -1    0    0  501    0  0.00000000000E+00 -0.00000000000E+00 -0.18531699937E+04  0.18531699937E+04  0.00000000000E+00 0. -1.
         23    2    1    2    0    0 -0.20266442752E+04 -0.92175363448E+03  0.53894578514E+03  0.22924494688E+04  0.89136001391E+02 0.  0.
         13    1    3    3    0    0 -0.58179451502E+03 -0.29136060266E+03  0.19092055300E+03  0.67810509219E+03  0.00000000000E+00 0. -1.
        -13    1    3    3    0    0 -0.14448497602E+04 -0.63039303181E+03  0.34802523214E+03  0.16143443766E+04  0.00000000000E+00 0.  1.
         22    1    1    2    0    0  0.20266442752E+04  0.92175363448E+03  0.29274014137E+03  0.22455764452E+04  0.00000000000E+00 0.  1.
<mgrwt>
<rscale>  0 0.44611633E+04</rscale>
<asrwt>0</asrwt>
<pdfrwt beam="1">  1        2 0.28510307E+00 0.44611633E+04</pdfrwt>
<pdfrwt beam="2">  1       -2 0.41305476E+00 0.44611633E+04</pdfrwt>
<totfact> 0.37345657E-02</totfact>
</mgrwt>
</event>
<event>
 6    1  0.2436515E-005  0.1472606E+04  0.7818608E-02  0.8902877E-01
         -2   -1    0    0    0  501 -0.00000000000E+00  0.00000000000E+00  0.24976905045E+03  0.24976905045E+03  0.00000000000E+00 0. -1.
          2   -1    0    0  501    0  0.00000000000E+00 -0.00000000000E+00 -0.21705729106E+04  0.21705729106E+04  0.00000000000E+00 0.  1.
         23    2    1    2    0    0  0.67573263096E+03  0.17202014609E+03 -0.58959265977E+03  0.91756826576E+03  0.90036096544E+02 0.  0.
         11    1    3    3    0    0  0.37729167821E+03  0.59784246434E+02 -0.28485530236E+03  0.47651412345E+03  0.00000000000E+00 0. -1.
        -11    1    3    3    0    0  0.29844095275E+03  0.11223589966E+03 -0.30473735740E+03  0.44105414231E+03  0.00000000000E+00 0.  1.
         22    1    1    2    0    0 -0.67573263096E+03 -0.17202014609E+03 -0.13312112004E+04  0.15027736953E+04  0.00000000000E+00 0.  1.
<mgrwt>
<rscale>  0 0.14726058E+04</rscale>
<asrwt>0</asrwt>
<pdfrwt beam="1">  1        2 0.33393429E+00 0.14726058E+04</pdfrwt>
<pdfrwt beam="2">  1       -2 0.38426009E-01 0.14726058E+04</pdfrwt>
<totfact> 0.33257702E+01</totfact>
</mgrwt>
</event>
<event>
 6    1  0.2436515E-005  0.2609976E+04  0.7818608E-02  0.8364820E-01
          2   -1    0    0  501    0  0.00000000000E+00  0.00000000000E+00  0.23162043387E+04  0.23162043387E+04  0.00000000000E+00 0.  1.
         -2   -1    0    0    0  501 -0.00000000000E+00 -0.00000000000E+00 -0.73525197203E+03  0.73525197203E+03  0.00000000000E+00 0. -1.
         23    2    1    2    0    0 -0.72964994482E+03 -0.10727635577E+04  0.64512552750E+03  0.14517742906E+04  0.90834750128E+02 0.  0.
         11    1    3    3    0    0 -0.52251302033E+03 -0.69321851372E+03  0.42265738310E+03  0.96551075999E+03  0.00000000000E+00 0.  1.
        -11    1    3    3    0    0 -0.20713692449E+03 -0.37954504397E+03  0.22246814440E+03  0.48626353057E+03  0.00000000000E+00 0. -1.
         22    1    1    2    0    0  0.72964994482E+03  0.10727635577E+04  0.93582683915E+03  0.15996820201E+04  0.00000000000E+00 0.  1.
<mgrwt>
<rscale>  0 0.26099761E+04</rscale>
<asrwt>0</asrwt>
<pdfrwt beam="1">  1        2 0.35633913E+00 0.26099761E+04</pdfrwt>
<pdfrwt beam="2">  1       -2 0.11311569E+00 0.26099761E+04</pdfrwt>
<totfact> 0.24078997E+00</totfact>
</mgrwt>
</event>
<event>
 6    1  0.2436515E-005  0.3286406E+04  0.7818608E-02  0.8166363E-01
          2   -1    0    0  501    0  0.00000000000E+00  0.00000000000E+00  0.22865177659E+04  0.22865177659E+04  0.00000000000E+00 0.  1.
         -2   -1    0    0    0  501 -0.00000000000E+00 -0.00000000000E+00 -0.11808858171E+04  0.11808858171E+04  0.00000000000E+00 0. -1.
         23    2    1    2    0    0 -0.57870641784E+03  0.15159859452E+04  0.28875015303E+03  0.16507004227E+04  0.91218039130E+02 0.  0.
         13    1    3    3    0    0 -0.43860303326E+03  0.12388667907E+04  0.24978853659E+03  0.13377435700E+04  0.00000000000E+00 0. -1.
        -13    1    3    3    0    0 -0.14010338459E+03  0.27711915447E+03  0.38961616438E+02  0.31295685278E+03  0.00000000000E+00 0.  1.
         22    1    1    2    0    0  0.57870641784E+03 -0.15159859452E+04  0.81688179581E+03  0.18167031602E+04  0.00000000000E+00 0. -1.
<mgrwt>
<rscale>  0 0.32864062E+04</rscale>
<asrwt>0</asrwt>
<pdfrwt beam="1">  1        2 0.35177196E+00 0.32864062E+04</pdfrwt>
<pdfrwt beam="2">  1       -2 0.18167474E+00 0.32864062E+04</pdfrwt>
<totfact> 0.68118884E-01</totfact>
</mgrwt>
</event>
<event>
 6    1  0.2436515E-005  0.2325477E+04  0.7818608E-02  0.8467943E-01
         -2   -1    0    0    0  501 -0.00000000000E+00  0.00000000000E+00  0.58010838281E+03  0.58010838281E+03  0.00000000000E+00 0. -1.
          2   -1    0    0  501    0  0.00000000000E+00 -0.00000000000E+00 -0.23305310933E+04  0.23305310933E+04  0.00000000000E+00 0.  1.
         23    2    1    2    0    0  0.11641360963E+03  0.53986103183E+03 -0.21548465573E+04  0.22261245310E+04  0.85233089140E+02 0.  0.
         13    1    3    3    0    0  0.32613841902E+02  0.34228709898E+03 -0.12875550909E+04  0.13326748414E+04  0.00000000000E+00 0.  1.
        -13    1    3    3    0    0  0.83799767732E+02  0.19757393285E+03 -0.86729146643E+03  0.89344968955E+03  0.00000000000E+00 0. -1.
         22    1    1    2    0    0 -0.11641360963E+03 -0.53986103183E+03  0.40442384686E+03  0.68451494513E+03  0.00000000000E+00 0. -1.
<mgrwt>
<rscale>  0 0.23254768E+04</rscale>
<asrwt>0</asrwt>
<pdfrwt beam="1">  1        2 0.35854324E+00 0.23254768E+04</pdfrwt>
<pdfrwt beam="2">  1       -2 0.89247446E-01 0.23254768E+04</pdfrwt>
<totfact> 0.42457985E+00</totfact>
</mgrwt>
</event>
<event>
 6    1  0.2436515E-005  0.1192364E+04  0.7818608E-02  0.9119566E-01
         -2   -1    0    0    0  501 -0.00000000000E+00  0.00000000000E+00  0.12565138708E+03  0.12565138708E+03  0.00000000000E+00 0. -1.
          2   -1    0    0  501    0  0.00000000000E+00 -0.00000000000E+00 -0.28287253074E+04  0.28287253074E+04  0.00000000000E+00 0.  1.
         23    2    1    2    0    0 -0.21470338813E+03 -0.89897269234E+02 -0.27105145238E+04  0.27214938345E+04  0.73896166529E+02 0.  0.
         11    1    3    3    0    0 -0.92806108888E+02 -0.21192270413E+01 -0.11676055089E+04  0.11712899254E+04  0.00000000000E+00 0. -1.
        -11    1    3    3    0    0 -0.12189727924E+03 -0.87778042192E+02 -0.15429090150E+04  0.15502039091E+04  0.00000000000E+00 0.  1.
         22    1    1    2    0    0  0.21470338813E+03  0.89897269234E+02  0.74406035257E+01  0.23288285998E+03  0.00000000000E+00 0. -1.
<mgrwt>
<rscale>  0 0.11923645E+04</rscale>
<asrwt>0</asrwt>
<pdfrwt beam="1">  1        2 0.43518851E+00 0.11923645E+04</pdfrwt>
<pdfrwt beam="2">  1       -2 0.19330983E-01 0.11923645E+04</pdfrwt>
<totfact> 0.50343821E+01</totfact>
</mgrwt>
</event>
<event>
 6    1  0.2436515E-005  0.3408909E+04  0.7818608E-02  0.8135723E-01
         -2   -1    0    0    0  501 -0.00000000000E+00  0.00000000000E+00  0.80462458366E+03  0.80462458366E+03  0.00000000000E+00 0. -1.
          2   -1    0    0  501    0  0.00000000000E+00 -0.00000000000E+00 -0.36105846642E+04  0.36105846642E+04  0.00000000000E+00 0.  1.
         23    2    1    2    0    0 -0.86580629607E+03  0.44175205928E+03  0.40771216657E+03  0.10577615958E+04  0.88684602309E+02 0.  0.
         13    1    3    3    0    0 -0.14274370641E+03  0.81883140063E+02  0.10512795364E+03  0.19527544900E+03  0.00000000000E+00 0. -1.
        -13    1    3    3    0    0 -0.72306258966E+03  0.35986891921E+03  0.30258421293E+03  0.86248614684E+03  0.00000000000E+00 0.  1.
         22    1    1    2    0    0  0.86580629607E+03 -0.44175205928E+03 -0.32136722471E+04  0.33574476520E+04  0.00000000000E+00 0.  1.
<mgrwt>
<rscale>  0 0.34089090E+04</rscale>
<asrwt>0</asrwt>
<pdfrwt beam="1">  1        2 0.55547457E+00 0.34089090E+04</pdfrwt>
<pdfrwt beam="2">  1       -2 0.12378840E+00 0.34089090E+04</pdfrwt>
<totfact> 0.27545902E-01</totfact>
</mgrwt>
</event>
<event>
 6    1  0.2436515E-005  0.4014206E+04  0.7818608E-02  0.8001687E-01
         -2   -1    0    0    0  501 -0.00000000000E+00  0.00000000000E+00  0.21640907058E+04  0.21640907058E+04  0.00000000000E+00 0. -1.
          2   -1    0    0  501    0  0.00000000000E+00 -0.00000000000E+00 -0.18615034389E+04  0.18615034389E+04  0.00000000000E+00 0.  1.
         23    2    1    2    0    0  0.83904449420E+03 -0.75213562864E+03  0.18158958975E+04  0.21388491490E+04  0.86568496612E+02 0.  0.
         13    1    3    3    0    0  0.29747592207E+03 -0.31809997598E+03  0.73358294418E+03  0.85312569702E+03  0.00000000000E+00 0. -1.
        -13    1    3    3    0    0  0.54156857213E+03 -0.43403565266E+03  0.10823129533E+04  0.12857234520E+04  0.00000000000E+00 0.  1.
         22    1    1    2    0    0 -0.83904449420E+03  0.75213562864E+03 -0.15133086306E+04  0.18867449957E+04  0.00000000000E+00 0.  1.
<mgrwt>
<rscale>  0 0.40142059E+04</rscale>
<asrwt>0</asrwt>
<pdfrwt beam="1">  1        2 0.28638514E+00 0.40142059E+04</pdfrwt>
<pdfrwt beam="2">  1       -2 0.33293703E+00 0.40142059E+04</pdfrwt>
<totfact> 0.12507870E-01</totfact>
</mgrwt>
</event>
<event>
 6    1  0.2436515E-005  0.1968949E+04  0.7818608E-02  0.8621277E-01
         -2   -1    0    0    0  501 -0.00000000000E+00  0.00000000000E+00  0.44824419712E+03  0.44824419712E+03  0.00000000000E+00 0. -1.
          2   -1    0    0  501    0  0.00000000000E+00 -0.00000000000E+00 -0.21621911771E+04  0.21621911771E+04  0.00000000000E+00 0.  1.
         23    2    1    2    0    0 -0.28394843425E+02  0.84008437452E+03 -0.15327222307E+04  0.17505572240E+04  0.93086704767E+02 0.  0.
         11    1    3    3    0    0 -0.55139756663E+02  0.32079576509E+03 -0.60985884958E+03  0.69128730068E+03  0.00000000000E+00 0.  1.
        -11    1    3    3    0    0  0.26744913238E+02  0.51928860943E+03 -0.92286338115E+03  0.10592699234E+04  0.00000000000E+00 0. -1.
         22    1    1    2    0    0  0.28394843425E+02 -0.84008437452E+03 -0.18122474925E+03  0.85987815020E+03  0.00000000000E+00 0. -1.
<mgrwt>
<rscale>  0 0.19689486E+04</rscale>
<asrwt>0</asrwt>
<pdfrwt beam="1">  1        2 0.33264479E+00 0.19689486E+04</pdfrwt>
<pdfrwt beam="2">  1       -2 0.68960647E-01 0.19689486E+04</pdfrwt>
<totfact> 0.97008832E+00</totfact>
</mgrwt>
</event>
<event>
 6    1  0.2436515E-005  0.1448769E+04  0.7818608E-02  0.8919255E-01
         -2   -1    0    0    0  501 -0.00000000000E+00  0.00000000000E+00  0.13109979026E+03  0.13109979026E+03  0.00000000000E+00 0. -1.
          2   -1    0    0  501    0  0.00000000000E+00 -0.00000000000E+00 -0.40025433298E+04  0.40025433298E+04  0.00000000000E+00 0.  1.
         23    2    1    2    0    0 -0.68273741626E+03  0.13131860099E+03 -0.13916169644E+04  0.15581985376E+04  0.89498337924E+02 0.  0.
         11    1    3    3    0    0 -0.18822692479E+03  0.77035349777E+02 -0.41737454733E+03  0.46429013891E+03  0.00000000000E+00 0. -1.
        -11    1    3    3    0    0 -0.49451049147E+03  0.54283251213E+02 -0.97424241709E+03  0.10939083987E+04  0.00000000000E+00 0.  1.
         22    1    1    2    0    0  0.68273741626E+03 -0.13131860099E+03 -0.24798265751E+04  0.25754445824E+04  0.00000000000E+00 0. -1.
<mgrwt>
<rscale>  0 0.14487686E+04</rscale>
<asrwt>0</asrwt>
<pdfrwt beam="1">  1        2 0.61577595E+00 0.14487686E+04</pdfrwt>
<pdfrwt beam="2">  1       -2 0.20169197E-01 0.14487686E+04</pdfrwt>
<totfact> 0.71382924E+00</totfact>
</mgrwt>
</event>
<event>
 6    1  0.2436515E-005  0.2030768E+04  0.7818608E-02  0.8592369E-01
         -2   -1    0    0    0  501 -0.00000000000E+00  0.00000000000E+00  0.15770799310E+04  0.15770799310E+04  0.00000000000E+00 0. -1.
          2   -1    0    0  501    0  0.00000000000E+00 -0.00000000000E+00 -0.65374283052E+03  0.65374283052E+03  0.00000000000E+00 0.  1.
         23    2    1    2    0    0 -0.55447840274E+03 -0.66224017104E+03  0.10448420611E+04  0.13586004282E+04  0.89954697570E+02 0.  0.
         13    1    3    3    0    0 -0.70356466536E+02 -0.94612836924E+02  0.99073636536E+02  0.15400391797E+03  0.00000000000E+00 0. -1.
        -13    1    3    3    0    0 -0.48412193620E+03 -0.56762733412E+03  0.94576842455E+03  0.12045965102E+04  0.00000000000E+00 0.  1.
         22    1    1    2    0    0  0.55447840274E+03  0.66224017104E+03 -0.12150496063E+03  0.87222233330E+03  0.00000000000E+00 0.  1.
<mgrwt>
<rscale>  0 0.20307680E+04</rscale>
<asrwt>0</asrwt>
<pdfrwt beam="1">  1        2 0.10057582E+00 0.20307680E+04</pdfrwt>
<pdfrwt beam="2">  1       -2 0.24262768E+00 0.20307680E+04</pdfrwt>
<totfact> 0.29512187E+00</totfact>
</mgrwt>
</event>
<event>
 6    1  0.2436515E-005  0.4077531E+04  0.7818608E-02  0.7989086E-01
          2   -1    0    0  501    0  0.00000000000E+00  0.00000000000E+00  0.14363325055E+04  0.14363325055E+04  0.00000000000E+00 0.  1.
         -2   -1    0    0    0  501 -0.00000000000E+00 -0.00000000000E+00 -0.28938741669E+04  0.28938741669E+04  0.00000000000E+00 0. -1.
         23    2    1    2    0    0 -0.15004442013E+04 -0.11080249761E+04  0.14182694092E+03  0.18731694169E+04  0.97962412879E+02 0.  0.
         11    1    3    3    0    0 -0.88455850189E+03 -0.61560428740E+03  0.11975617535E+03  0.10843218726E+04  0.00000000000E+00 0.  1.
        -11    1    3    3    0    0 -0.61588569939E+03 -0.49242068865E+03  0.22070765567E+02  0.78884754422E+03  0.00000000000E+00 0. -1.
         22    1    1    2    0    0  0.15004442013E+04  0.11080249761E+04 -0.15993686023E+04  0.24570372555E+04  0.00000000000E+00 0. -1.
<mgrwt>
<rscale>  0 0.40775314E+04</rscale>
<asrwt>0</asrwt>
<pdfrwt beam="1">  1        2 0.22097424E+00 0.40775314E+04</pdfrwt>
<pdfrwt beam="2">  1       -2 0.44521140E+00 0.40775314E+04</pdfrwt>
<totfact> 0.40380500E-02</totfact>
</mgrwt>
</event>
<event>
 6    1  0.2436515E-005  0.4596919E+04  0.7818608E-02  0.7893886E-01
          2   -1    0    0  501    0  0.00000000000E+00  0.00000000000E+00  0.26152332712E+04  0.26152332712E+04  0.00000000000E+00 0.  1.
         -2   -1    0    0    0  501 -0.00000000000E+00 -0.00000000000E+00 -0.20200549788E+04  0.20200549788E+04  0.00000000000E+00 0. -1.
         23    2    1    2    0    0 -0.82854170768E+03 -0.17316255708E+04 -0.97482181377E+03  0.21553872818E+04  0.10202101265E+03 0.  0.
         11    1    3    3    0    0 -0.51035833515E+03 -0.95014754805E+03 -0.55360890111E+03  0.12123237227E+04  0.00000000000E+00 0. -1.
        -11    1    3    3    0    0 -0.31818337253E+03 -0.78147802271E+03 -0.42121291266E+03  0.94306355901E+03  0.00000000000E+00 0.  1.
         22    1    1    2    0    0  0.82854170768E+03  0.17316255708E+04  0.15700001062E+04  0.24799009682E+04  0.00000000000E+00 0.  1.
<mgrwt>
<rscale>  0 0.45969185E+04</rscale>
<asrwt>0</asrwt>
<pdfrwt beam="1">  1        2 0.40234358E+00 0.45969185E+04</pdfrwt>
<pdfrwt beam="2">  1       -2 0.31077769E+00 0.45969185E+04</pdfrwt>
<totfact> 0.61165817E-02</totfact>
</mgrwt>
</event>
<event>
 6    1  0.2436515E-005  0.2451770E+04  0.7818608E-02  0.8420372E-01
          2   -1    0    0  501    0  0.00000000000E+00  0.00000000000E+00  0.19636161442E+04  0.19636161442E+04  0.00000000000E+00 0.  1.
         -2   -1    0    0    0  501 -0.00000000000E+00 -0.00000000000E+00 -0.76531943635E+03  0.76531943635E+03  0.00000000000E+00 0. -1.
         23    2    1    2    0    0  0.10702985874E+04  0.53617264918E+03  0.88533288880E+03  0.14916132588E+04  0.89864420642E+02 0.  0.
         11    1    3    3    0    0  0.20770925456E+03  0.14490256277E+03  0.18359264729E+03  0.31280368807E+03  0.00000000000E+00 0. -1.
        -11    1    3    3    0    0  0.86258933280E+03  0.39127008641E+03  0.70174024151E+03  0.11788095708E+04  0.00000000000E+00 0.  1.
         22    1    1    2    0    0 -0.10702985874E+04 -0.53617264918E+03  0.31296381907E+03  0.12373223217E+04  0.00000000000E+00 0. -1.
<mgrwt>
<rscale>  0 0.24517696E+04</rscale>
<asrwt>0</asrwt>
<pdfrwt beam="1">  1        2 0.30209479E+00 0.24517696E+04</pdfrwt>
<pdfrwt beam="2">  1       -2 0.11774145E+00 0.24517696E+04</pdfrwt>
<totfact> 0.34886498E+00</totfact>
</mgrwt>
</event>
<event>
 6    1  0.2436515E-005  0.3500590E+04  0.7818608E-02  0.8113650E-01
         -2   -1    0    0    0  501 -0.00000000000E+00  0.00000000000E+00  0.11483610215E+04  0.11483610215E+04  0.00000000000E+00 0. -1.
          2   -1    0    0  501    0  0.00000000000E+00 -0.00000000000E+00 -0.26677428584E+04  0.26677428584E+04  0.00000000000E+00 0.  1.
         23    2    1    2    0    0  0.28437746210E+03 -0.28241491472E+03 -0.26162503105E+04  0.26483071624E+04  0.90202074995E+02 0.  0.
         11    1    3    3    0    0  0.21581991058E+03 -0.15433593332E+03 -0.16496175309E+04  0.16708189047E+04  0.00000000000E+00 0. -1.
        -11    1    3    3    0    0  0.68557551521E+02 -0.12807898140E+03 -0.96663277959E+03  0.97748825769E+03  0.00000000000E+00 0.  1.
         22    1    1    2    0    0 -0.28437746210E+03  0.28241491472E+03  0.10968684736E+04  0.11677967175E+04  0.00000000000E+00 0. -1.
<mgrwt>
<rscale>  0 0.35005896E+04</rscale>
<asrwt>0</asrwt>
<pdfrwt beam="1">  1        2 0.41042197E+00 0.35005896E+04</pdfrwt>
<pdfrwt beam="2">  1       -2 0.17667093E+00 0.35005896E+04</pdfrwt>
<totfact> 0.43603599E-01</totfact>
</mgrwt>
</event>
<event>
 6    1  0.2436515E-005  0.4149381E+04  0.7818608E-02  0.7975071E-01
         -2   -1    0    0    0  501 -0.00000000000E+00  0.00000000000E+00  0.97650124611E+03  0.97650124611E+03  0.00000000000E+00 0. -1.
          2   -1    0    0  501    0  0.00000000000E+00 -0.00000000000E+00 -0.44079212565E+04  0.44079212565E+04  0.00000000000E+00 0.  1.
         23    2    1    2    0    0 -0.18741947803E+04  0.38533356899E+03 -0.27543203607E+04  0.33547545570E+04  0.83722483969E+02 0.  0.
         11    1    3    3    0    0 -0.12820705412E+04  0.25637808520E+03 -0.18139795061E+04  0.22360581932E+04  0.00000000000E+00 0. -1.
        -11    1    3    3    0    0 -0.59212423914E+03  0.12895548379E+03 -0.94034085462E+03  0.11186963637E+04  0.00000000000E+00 0.  1.
         22    1    1    2    0    0  0.18741947803E+04 -0.38533356899E+03 -0.67709964973E+03  0.20296679456E+04  0.00000000000E+00 0. -1.
<mgrwt>
<rscale>  0 0.41493810E+04</rscale>
<asrwt>0</asrwt>
<pdfrwt beam="1">  1        2 0.67814172E+00 0.41493810E+04</pdfrwt>
<pdfrwt beam="2">  1       -2 0.15023096E+00 0.41493810E+04</pdfrwt>
<totfact> 0.34851768E-02</totfact>
</mgrwt>
</event>
<event>
 6    1  0.2436515E-005  0.2195486E+04  0.7818608E-02  0.8520309E-01
          2   -1    0    0  501    0  0.00000000000E+00  0.00000000000E+00  0.13909234874E+04  0.13909234874E+04  0.00000000000E+00 0.  1.
         -2   -1    0    0    0  501 -0.00000000000E+00 -0.00000000000E+00 -0.86635911169E+03  0.86635911169E+03  0.00000000000E+00 0. -1.
         23    2    1    2    0    0 -0.22929311739E+03 -0.25734172716E+03 -0.80673216591E+03  0.88209149239E+03  0.92024536013E+02 0.  0.
         11    1    3    3    0    0 -0.22854314142E+03 -0.23331742711E+03 -0.69655508580E+03  0.76932306402E+03  0.00000000000E+00 0. -1.
        -11    1    3    3    0    0 -0.74997596749E+00 -0.24024300051E+02 -0.11017708010E+03  0.11276842837E+03  0.00000000000E+00 0.  1.
         22    1    1    2    0    0  0.22929311739E+03  0.25734172716E+03  0.13312965416E+04  0.13751911067E+04  0.00000000000E+00 0.  1.
<mgrwt>
<rscale>  0 0.21954856E+04</rscale>
<asrwt>0</asrwt>
<pdfrwt beam="1">  1        2 0.21398823E+00 0.21954856E+04</pdfrwt>
<pdfrwt beam="2">  1       -2 0.13328602E+00 0.21954856E+04</pdfrwt>
<totfact> 0.54592227E+00</totfact>
</mgrwt>
</event>
<event>
 6    1  0.2436515E-005  0.1597699E+04  0.7818608E-02  0.8821963E-01
          4   -1    0    0  501    0  0.00000000000E+00  0.00000000000E+00  0.58289893146E+03  0.58289893146E+03  0.00000000000E+00 0.  1.
         -4   -1    0    0    0  501 -0.00000000000E+00 -0.00000000000E+00 -0.10948051198E+04  0.10948051198E+04  0.00000000000E+00 0. -1.
         23    2    1    2    0    0  0.49036196648E+03  0.57753495240E+03  0.29573151899E+00  0.76318106845E+03  0.91890023257E+02 0.  0.
         13    1    3    3    0    0  0.20124536240E+03  0.17408529659E+03  0.16136747546E+02  0.26658165916E+03  0.00000000000E+00 0. -1.
        -13    1    3    3    0    0  0.28911660409E+03  0.40344965580E+03 -0.15841016027E+02  0.49659940930E+03  0.00000000000E+00 0.  1.
         22    1    1    2    0    0 -0.49036196648E+03 -0.57753495240E+03 -0.51220191989E+03  0.91452298285E+03  0.00000000000E+00 0. -1.
<mgrwt>
<rscale>  0 0.15976993E+04</rscale>
<asrwt>0</asrwt>
<pdfrwt beam="1">  1        4 0.89676759E-01 0.15976993E+04</pdfrwt>
<pdfrwt beam="2">  1       -4 0.16843156E+00 0.15976993E+04</pdfrwt>
<totfact> 0.44435898E-01</totfact>
</mgrwt>
</event>
<event>
 6    1  0.2436515E-005  0.1541168E+04  0.7818608E-02  0.8857529E-01
          2   -1    0    0  501    0  0.00000000000E+00  0.00000000000E+00  0.11350863868E+04  0.11350863868E+04  0.00000000000E+00 0.  1.
         -2   -1    0    0    0  501 -0.00000000000E+00 -0.00000000000E+00 -0.52313151912E+03  0.52313151912E+03  0.00000000000E+00 0. -1.
         23    2    1    2    0    0  0.63670426193E+03  0.24685580874E+03  0.68490862760E+03  0.97144839687E+03  0.91005780967E+02 0.  0.
         11    1    3    3    0    0  0.25210893972E+03  0.75227884496E+02  0.20943619679E+03  0.33627618503E+03  0.00000000000E+00 0. -1.
        -11    1    3    3    0    0  0.38459532221E+03  0.17162792425E+03  0.47547243080E+03  0.63517221184E+03  0.00000000000E+00 0.  1.
         22    1    1    2    0    0 -0.63670426193E+03 -0.24685580874E+03 -0.72953759919E+02  0.68676950904E+03  0.00000000000E+00 0. -1.
<mgrwt>
<rscale>  0 0.15411677E+04</rscale>
<asrwt>0</asrwt>
<pdfrwt beam="1">  1        2 0.17462867E+00 0.15411677E+04</pdfrwt>
<pdfrwt beam="2">  1       -2 0.80481772E-01 0.15411677E+04</pdfrwt>
<totfact> 0.27236734E+01</totfact>
</mgrwt>
</event>
<event>
 6    1  0.2436515E-005  0.4786825E+04  0.7818608E-02  0.7862260E-01
          2   -1    0    0  501    0  0.00000000000E+00  0.00000000000E+00  0.22603102071E+04  0.22603102071E+04  0.00000000000E+00 0.  1.
         -2   -1    0    0    0  501 -0.00000000000E+00 -0.00000000000E+00 -0.25343525029E+04  0.25343525029E+04  0.00000000000E+00 0. -1.
         23    2    1    2    0    0 -0.41813788794E+03  0.23536827648E+04 -0.39061065901E+02  0.23926056688E+04  0.91511031233E+02 0.  0.
         11    1    3    3    0    0 -0.29246529284E+03  0.17850817534E+04  0.13424049963E+01  0.18088821454E+04  0.00000000000E+00 0. -1.
        -11    1    3    3    0    0 -0.12567259511E+03  0.56860101145E+03 -0.40403470898E+02  0.58372352346E+03  0.00000000000E+00 0.  1.
         22    1    1    2    0    0  0.41813788794E+03 -0.23536827648E+04 -0.23498122983E+03  0.24020570412E+04  0.00000000000E+00 0.  1.
<mgrwt>
<rscale>  0 0.47868248E+04</rscale>
<asrwt>0</asrwt>
<pdfrwt beam="1">  1        2 0.34774003E+00 0.47868248E+04</pdfrwt>
<pdfrwt beam="2">  1       -2 0.38990039E+00 0.47868248E+04</pdfrwt>
<totfact> 0.30547641E-02</totfact>
</mgrwt>
</event>
<event>
 6    1  0.2436515E-005  0.1637105E+04  0.7818608E-02  0.8798072E-01
         -1   -1    0    0    0  501 -0.00000000000E+00  0.00000000000E+00  0.26420797895E+03  0.26420797895E+03  0.00000000000E+00 0. -1.
          1   -1    0    0  501    0  0.00000000000E+00 -0.00000000000E+00 -0.25359889667E+04  0.25359889667E+04  0.00000000000E+00 0.  1.
         23    2    1    2    0    0 -0.26444273401E+03 -0.32785309578E+03 -0.23348793014E+04  0.23742873200E+04  0.90339990322E+02 0.  0.
         13    1    3    3    0    0 -0.10890012976E+03 -0.86237454559E+02 -0.93049699337E+03  0.94080858388E+03  0.00000000000E+00 0. -1.
        -13    1    3    3    0    0 -0.15554260425E+03 -0.24161564122E+03 -0.14043823081E+04  0.14334787362E+04  0.00000000000E+00 0.  1.
         22    1    1    2    0    0  0.26444273401E+03  0.32785309578E+03  0.63098313705E+02  0.42590962560E+03  0.00000000000E+00 0. -1.
<mgrwt>
<rscale>  0 0.16371054E+04</rscale>
<asrwt>0</asrwt>
<pdfrwt beam="1">  1        1 0.39015214E+00 0.16371054E+04</pdfrwt>
<pdfrwt beam="2">  1       -1 0.40647383E-01 0.16371054E+04</pdfrwt>
<totfact> 0.72495546E+00</totfact>
</mgrwt>
</event>
<event>
 6    1  0.2436515E-005  0.1002381E+04  0.7818608E-02  0.9305937E-01
          2   -1    0    0  501    0  0.00000000000E+00  0.00000000000E+00  0.30539533088E+04  0.30539533088E+04  0.00000000000E+00 0.  1.
         -2   -1    0    0    0  501 -0.00000000000E+00 -0.00000000000E+00 -0.82251383368E+02  0.82251383368E+02  0.00000000000E+00 0. -1.
         23    2    1    2    0    0 -0.86827012901E+02  0.34803419018E+02  0.30254852837E+04  0.30283026172E+04  0.91133591632E+02 0.  0.
         13    1    3    3    0    0 -0.49091246212E+02 -0.27798158905E+02  0.15144124803E+04  0.15154629156E+04  0.00000000000E+00 0.  1.
        -13    1    3    3    0    0 -0.37735766689E+02  0.62601577923E+02  0.15110728034E+04  0.15128397017E+04  0.00000000000E+00 0. -1.
         22    1    1    2    0    0  0.86827012901E+02 -0.34803419018E+02 -0.53783358279E+02  0.10790207492E+03  0.00000000000E+00 0. -1.
<mgrwt>
<rscale>  0 0.10023809E+04</rscale>
<asrwt>0</asrwt>
<pdfrwt beam="1">  1        2 0.46983888E+00 0.10023809E+04</pdfrwt>
<pdfrwt beam="2">  1       -2 0.12654061E-01 0.10023809E+04</pdfrwt>
<totfact> 0.77032247E+01</totfact>
</mgrwt>
</event>
<event>
 6    1  0.2436515E-005  0.1904510E+04  0.7818608E-02  0.8652615E-01
         -2   -1    0    0    0  501 -0.00000000000E+00  0.00000000000E+00  0.80538280794E+03  0.80538280794E+03  0.00000000000E+00 0. -1.
          2   -1    0    0  501    0  0.00000000000E+00 -0.00000000000E+00 -0.11259114184E+04  0.11259114184E+04  0.00000000000E+00 0.  1.
         23    2    1    2    0    0  0.23221688876E+03 -0.48698633876E+02 -0.10934473515E+04  0.11227772998E+04  0.93303344147E+02 0.  0.
         13    1    3    3    0    0  0.22855885109E+03 -0.63265617809E+02 -0.97727839401E+03  0.10056414601E+04  0.00000000000E+00 0. -1.
        -13    1    3    3    0    0  0.36580376683E+01  0.14566983932E+02 -0.11616895747E+03  0.11713583969E+03  0.00000000000E+00 0.  1.
         22    1    1    2    0    0 -0.23221688876E+03  0.48698633876E+02  0.77291874101E+03  0.80851692658E+03  0.00000000000E+00 0. -1.
<mgrwt>
<rscale>  0 0.19045101E+04</rscale>
<asrwt>0</asrwt>
<pdfrwt beam="1">  1        2 0.17321714E+00 0.19045101E+04</pdfrwt>
<pdfrwt beam="2">  1       -2 0.12390505E+00 0.19045101E+04</pdfrwt>
<totfact> 0.96390557E+00</totfact>
</mgrwt>
</event>
<event>
 6    1  0.2436515E-005  0.2637786E+04  0.7818608E-02  0.8355478E-01
         -2   -1    0    0    0  501 -0.00000000000E+00  0.00000000000E+00  0.10989545901E+04  0.10989545901E+04  0.00000000000E+00 0. -1.
          2   -1    0    0  501    0  0.00000000000E+00 -0.00000000000E+00 -0.15828491947E+04  0.15828491947E+04  0.00000000000E+00 0.  1.
         23    2    1    2    0    0  0.12827507875E+04  0.27254357472E+03 -0.36799508405E+03  0.13653075706E+04  0.94418206208E+02 0.  0.
         11    1    3    3    0    0  0.46747184799E+03  0.92742313717E+02 -0.87291816707E+02  0.48451101812E+03  0.00000000000E+00 0.  1.
        -11    1    3    3    0    0  0.81527893948E+03  0.17980126100E+03 -0.28070326734E+03  0.88079655251E+03  0.00000000000E+00 0. -1.
         22    1    1    2    0    0 -0.12827507875E+04 -0.27254357472E+03 -0.11589952054E+03  0.13164962141E+04  0.00000000000E+00 0. -1.
<mgrwt>
<rscale>  0 0.26377865E+04</rscale>
<asrwt>0</asrwt>
<pdfrwt beam="1">  1        2 0.24351526E+00 0.26377865E+04</pdfrwt>
<pdfrwt beam="2">  1       -2 0.16906994E+00 0.26377865E+04</pdfrwt>
<totfact> 0.21761483E+00</totfact>
</mgrwt>
</event>
<event>
 6    1  0.2436515E-005  0.2286200E+04  0.7818608E-02  0.8483382E-01
         -1   -1    0    0    0  501 -0.00000000000E+00  0.00000000000E+00  0.45246163862E+03  0.45246163862E+03  0.00000000000E+00 0.  1.
          1   -1    0    0  501    0  0.00000000000E+00 -0.00000000000E+00 -0.28879314006E+04  0.28879314006E+04  0.00000000000E+00 0. -1.
         23    2    1    2    0    0 -0.11174370174E+04  0.23007336260E+03 -0.11721206517E+04  0.16381444632E+04  0.89728592633E+02 0.  0.
         13    1    3    3    0    0 -0.91833668871E+03  0.19848240461E+03 -0.91562036936E+03  0.13119063227E+04  0.00000000000E+00 0. -1.
        -13    1    3    3    0    0 -0.19910032866E+03  0.31590957989E+02 -0.25650028232E+03  0.32623814052E+03  0.00000000000E+00 0.  1.
         22    1    1    2    0    0  0.11174370174E+04 -0.23007336260E+03 -0.12633491103E+04  0.17022485760E+04  0.00000000000E+00 0. -1.
<mgrwt>
<rscale>  0 0.22862005E+04</rscale>
<asrwt>0</asrwt>
<pdfrwt beam="1">  1        1 0.44429714E+00 0.22862005E+04</pdfrwt>
<pdfrwt beam="2">  1       -1 0.69609482E-01 0.22862005E+04</pdfrwt>
<totfact> 0.13618929E+00</totfact>
</mgrwt>
</event>
<event>
 6    1  0.2436515E-005  0.1684626E+04  0.7818608E-02  0.8770182E-01
          2   -1    0    0  501    0  0.00000000000E+00  0.00000000000E+00  0.13080870088E+04  0.13080870088E+04  0.00000000000E+00 0.  1.
         -2   -1    0    0    0  501 -0.00000000000E+00 -0.00000000000E+00 -0.54238828428E+03  0.54238828428E+03  0.00000000000E+00 0. -1.
         23    2    1    2    0    0 -0.37903448941E+03 -0.57575374616E+03 -0.14271095145E+03  0.71013864991E+03  0.93653435882E+02 0.  0.
         11    1    3    3    0    0 -0.19940756157E+03 -0.23990257303E+03 -0.32504946398E+02  0.31364500904E+03  0.00000000000E+00 0.  1.
        -11    1    3    3    0    0 -0.17962692784E+03 -0.33585117313E+03 -0.11020600505E+03  0.39649364086E+03  0.00000000000E+00 0. -1.
         22    1    1    2    0    0  0.37903448941E+03  0.57575374616E+03  0.90840967600E+03  0.11403366432E+04  0.00000000000E+00 0.  1.
<mgrwt>
<rscale>  0 0.16846259E+04</rscale>
<asrwt>0</asrwt>
<pdfrwt beam="1">  1        2 0.20124415E+00 0.16846259E+04</pdfrwt>
<pdfrwt beam="2">  1       -2 0.83444352E-01 0.16846259E+04</pdfrwt>
<totfact> 0.19578821E+01</totfact>
</mgrwt>
</event>
<event>
 6    1  0.2436515E-005  0.2993032E+04  0.7818608E-02  0.8245723E-01
         -2   -1    0    0    0  501 -0.00000000000E+00  0.00000000000E+00  0.88259193867E+03  0.88259193867E+03  0.00000000000E+00 0. -1.
          2   -1    0    0  501    0  0.00000000000E+00 -0.00000000000E+00 -0.25374806855E+04  0.25374806855E+04  0.00000000000E+00 0.  1.
         23    2    1    2    0    0 -0.12121033922E+04  0.40573397270E+03 -0.17145497886E+04  0.21404734174E+04  0.90170854299E+02 0.  0.
         11    1    3    3    0    0 -0.76311734198E+03  0.30093252673E+03 -0.10920103593E+04  0.13657946727E+04  0.00000000000E+00 0.  1.
        -11    1    3    3    0    0 -0.44898605024E+03  0.10480144598E+03 -0.62253942936E+03  0.77467874470E+03  0.00000000000E+00 0. -1.
         22    1    1    2    0    0  0.12121033922E+04 -0.40573397270E+03  0.59661041791E+02  0.12795992068E+04  0.00000000000E+00 0. -1.
<mgrwt>
<rscale>  0 0.29930319E+04</rscale>
<asrwt>0</asrwt>
<pdfrwt beam="1">  1        2 0.39038163E+00 0.29930319E+04</pdfrwt>
<pdfrwt beam="2">  1       -2 0.13578338E+00 0.29930319E+04</pdfrwt>
<totfact> 0.11020000E+00</totfact>
</mgrwt>
</event>
<event>
 6    1  0.2436515E-005  0.1817783E+04  0.7818608E-02  0.8696899E-01
         -2   -1    0    0    0  501 -0.00000000000E+00  0.00000000000E+00  0.46513740420E+03  0.46513740420E+03  0.00000000000E+00 0. -1.
          2   -1    0    0  501    0  0.00000000000E+00 -0.00000000000E+00 -0.17760003018E+04  0.17760003018E+04  0.00000000000E+00 0.  1.
         23    2    1    2    0    0 -0.17601877765E+03  0.12709795237E+03 -0.17422931800E+04  0.17581588369E+04  0.91654083951E+02 0.  0.
         13    1    3    3    0    0 -0.49418866687E+02 -0.72638432786E+01 -0.44543389802E+03  0.44822577493E+03  0.00000000000E+00 0. -1.
        -13    1    3    3    0    0 -0.12659991096E+03  0.13436179565E+03 -0.12968592819E+04  0.13099330619E+04  0.00000000000E+00 0.  1.
         22    1    1    2    0    0  0.17601877765E+03 -0.12709795237E+03  0.43143028232E+03  0.48297886919E+03  0.00000000000E+00 0. -1.
<mgrwt>
<rscale>  0 0.18177835E+04</rscale>
<asrwt>0</asrwt>
<pdfrwt beam="1">  1        2 0.27323082E+00 0.18177835E+04</pdfrwt>
<pdfrwt beam="2">  1       -2 0.71559601E-01 0.18177835E+04</pdfrwt>
<totfact> 0.14856072E+01</totfact>
</mgrwt>
</event>
<event>
 6    1  0.2436515E-005  0.2104554E+04  0.7818608E-02  0.8559240E-01
         -2   -1    0    0    0  501 -0.00000000000E+00  0.00000000000E+00  0.21670598866E+04  0.21670598866E+04  0.00000000000E+00 0. -1.
          2   -1    0    0  501    0  0.00000000000E+00 -0.00000000000E+00 -0.51096287616E+03  0.51096287616E+03  0.00000000000E+00 0.  1.
         23    2    1    2    0    0 -0.26669458746E+03 -0.89609637411E+03  0.22058068326E+03  0.96489059032E+03  0.90792614220E+02 0.  0.
         13    1    3    3    0    0 -0.22226037343E+03 -0.83154735453E+03  0.20811651713E+03  0.88554116851E+03  0.00000000000E+00 0.  1.
        -13    1    3    3    0    0 -0.44434214029E+02 -0.64549019578E+02  0.12464166134E+02  0.79349421814E+02  0.00000000000E+00 0. -1.
         22    1    1    2    0    0  0.26669458746E+03  0.89609637411E+03  0.14355163272E+04  0.17131321725E+04  0.00000000000E+00 0. -1.
<mgrwt>
<rscale>  0 0.21045543E+04</rscale>
<asrwt>0</asrwt>
<pdfrwt beam="1">  1        2 0.78609675E-01 0.21045543E+04</pdfrwt>
<pdfrwt beam="2">  1       -2 0.33339382E+00 0.21045543E+04</pdfrwt>
<totfact> 0.10953048E+00</totfact>
</mgrwt>
</event>
<event>
 6    1  0.2436515E-005  0.1364884E+04  0.7818608E-02  0.8979637E-01
          2   -1    0    0  501    0  0.00000000000E+00  0.00000000000E+00  0.48703803701E+03  0.48703803701E+03  0.00000000000E+00 0.  1.
         -2   -1    0    0    0  501 -0.00000000000E+00 -0.00000000000E+00 -0.95624410430E+03  0.95624410430E+03  0.00000000000E+00 0. -1.
         23    2    1    2    0    0  0.43848364937E+03 -0.43083445173E+03  0.70514295924E+02  0.62524528026E+03  0.89850759562E+02 0.  0.
         11    1    3    3    0    0  0.19770719062E+03 -0.13311827878E+03  0.29249973441E+02  0.24013365094E+03  0.00000000000E+00 0.  1.
        -11    1    3    3    0    0  0.24077645875E+03 -0.29771617296E+03  0.41264322483E+02  0.38511162932E+03  0.00000000000E+00 0. -1.
         22    1    1    2    0    0 -0.43848364937E+03  0.43083445173E+03 -0.53972036321E+03  0.81803686105E+03  0.00000000000E+00 0. -1.
<mgrwt>
<rscale>  0 0.13648842E+04</rscale>
<asrwt>0</asrwt>
<pdfrwt beam="1">  1        2 0.74928929E-01 0.13648842E+04</pdfrwt>
<pdfrwt beam="2">  1       -2 0.14711448E+00 0.13648842E+04</pdfrwt>
<totfact> 0.19523089E+01</totfact>
</mgrwt>
</event>
<event>
 6    1  0.2436515E-005  0.2510596E+04  0.7818608E-02  0.8399220E-01
         -2   -1    0    0    0  501 -0.00000000000E+00  0.00000000000E+00  0.74352276902E+03  0.74352276902E+03  0.00000000000E+00 0. -1.
          2   -1    0    0  501    0  0.00000000000E+00 -0.00000000000E+00 -0.21193341968E+04  0.21193341968E+04  0.00000000000E+00 0.  1.
         23    2    1    2    0    0  0.10739814856E+03  0.51415338338E+03  0.60919082265E+03  0.80953721523E+03  0.91372755679E+02 0.  0.
         13    1    3    3    0    0  0.53467163409E+02  0.34067747896E+03  0.45722826833E+03  0.57269326135E+03  0.00000000000E+00 0.  1.
        -13    1    3    3    0    0  0.53930985154E+02  0.17347590442E+03  0.15196255433E+03  0.23684395388E+03  0.00000000000E+00 0. -1.
         22    1    1    2    0    0 -0.10739814856E+03 -0.51415338338E+03 -0.19850022504E+04  0.20533197506E+04  0.00000000000E+00 0.  1.
<mgrwt>
<rscale>  0 0.25105961E+04</rscale>
<asrwt>0</asrwt>
<pdfrwt beam="1">  1        2 0.32605142E+00 0.25105961E+04</pdfrwt>
<pdfrwt beam="2">  1       -2 0.11438812E+00 0.25105961E+04</pdfrwt>
<totfact> 0.30507264E+00</totfact>
</mgrwt>
</event>
<event>
 6    1  0.2436515E-005  0.3290787E+04  0.7818608E-02  0.8165244E-01
          2   -1    0    0  501    0  0.00000000000E+00  0.00000000000E+00  0.26649314244E+04  0.26649314244E+04  0.00000000000E+00 0.  1.
         -2   -1    0    0    0  501 -0.00000000000E+00 -0.00000000000E+00 -0.10159060510E+04  0.10159060510E+04  0.00000000000E+00 0. -1.
         23    2    1    2    0    0  0.21134894502E+03  0.62497390666E+03  0.25095793047E+04  0.25964879794E+04  0.92199673747E+02 0.  0.
         13    1    3    3    0    0  0.13752254016E+03  0.39455910578E+03  0.14102825082E+04  0.14708793594E+04  0.00000000000E+00 0. -1.
        -13    1    3    3    0    0  0.73826404862E+02  0.23041480088E+03  0.10992967965E+04  0.11256086200E+04  0.00000000000E+00 0.  1.
         22    1    1    2    0    0 -0.21134894502E+03 -0.62497390666E+03 -0.86055393133E+03  0.10843494959E+04  0.00000000000E+00 0. -1.
<mgrwt>
<rscale>  0 0.32907871E+04</rscale>
<asrwt>0</asrwt>
<pdfrwt beam="1">  1        2 0.40998945E+00 0.32907871E+04</pdfrwt>
<pdfrwt beam="2">  1       -2 0.15629324E+00 0.32907871E+04</pdfrwt>
<totfact> 0.62492211E-01</totfact>
</mgrwt>
</event>
<event>
 6    1  0.2436515E-005  0.3209368E+04  0.7818608E-02  0.8186347E-01
          2   -1    0    0  501    0  0.00000000000E+00  0.00000000000E+00  0.92032575771E+03  0.92032575771E+03  0.00000000000E+00 0.  1.
         -2   -1    0    0    0  501 -0.00000000000E+00 -0.00000000000E+00 -0.27979341804E+04  0.27979341804E+04  0.00000000000E+00 0. -1.
         23    2    1    2    0    0  0.16732954121E+03  0.37172031036E+03 -0.27361645566E+04  0.27678422407E+04  0.90437958457E+02 0.  0.
         11    1    3    3    0    0  0.96376426783E+02  0.18372902139E+03 -0.16771172312E+04  0.16899014694E+04  0.00000000000E+00 0. -1.
        -11    1    3    3    0    0  0.70953114430E+02  0.18799128896E+03 -0.10590473254E+04  0.10779407713E+04  0.00000000000E+00 0.  1.
         22    1    1    2    0    0 -0.16732954121E+03 -0.37172031036E+03  0.85855613388E+03  0.95041769740E+03  0.00000000000E+00 0.  1.
<mgrwt>
<rscale>  0 0.32093681E+04</rscale>
<asrwt>0</asrwt>
<pdfrwt beam="1">  1        2 0.14158858E+00 0.32093681E+04</pdfrwt>
<pdfrwt beam="2">  1       -2 0.43045141E+00 0.32093681E+04</pdfrwt>
<totfact> 0.11165072E-01</totfact>
</mgrwt>
</event>
<event>
 6    1  0.2436515E-005  0.5833334E+04  0.7818608E-02  0.7711417E-01
         -2   -1    0    0    0  501 -0.00000000000E+00  0.00000000000E+00  0.19059231988E+04  0.19059231988E+04  0.00000000000E+00 0. -1.
          2   -1    0    0  501    0  0.00000000000E+00 -0.00000000000E+00 -0.44634262217E+04  0.44634262217E+04  0.00000000000E+00 0.  1.
         23    2    1    2    0    0  0.15583246645E+03  0.19621870880E+04  0.10700190852E+04  0.22421980336E+04  0.89717630574E+02 0.  0.
         11    1    3    3    0    0  0.79774268202E+02  0.71320204860E+03  0.34867584942E+03  0.79786962843E+03  0.00000000000E+00 0. -1.
        -11    1    3    3    0    0  0.76058198246E+02  0.12489850394E+04  0.72134323577E+03  0.14443284052E+04  0.00000000000E+00 0.  1.
         22    1    1    2    0    0 -0.15583246645E+03 -0.19621870880E+04 -0.36275221081E+04  0.41271513869E+04  0.00000000000E+00 0.  1.
<mgrwt>
<rscale>  0 0.58333344E+04</rscale>
<asrwt>0</asrwt>
<pdfrwt beam="1">  1        2 0.68668095E+00 0.58333344E+04</pdfrwt>
<pdfrwt beam="2">  1       -2 0.29321896E+00 0.58333344E+04</pdfrwt>
<totfact> 0.31499978E-03</totfact>
</mgrwt>
</event>
<event>
 6    1  0.2436515E-005  0.8512980E+03  0.7818608E-02  0.9488596E-01
          2   -1    0    0  501    0  0.00000000000E+00  0.00000000000E+00  0.12890869281E+04  0.12890869281E+04  0.00000000000E+00 0.  1.
         -2   -1    0    0    0  501 -0.00000000000E+00 -0.00000000000E+00 -0.14054683685E+03  0.14054683685E+03  0.00000000000E+00 0. -1.
         23    2    1    2    0    0  0.26434686768E+03 -0.26630153487E+02  0.32392192048E+02  0.28230008880E+03  0.89753298028E+02 0.  0.
         11    1    3    3    0    0  0.18077500741E+03 -0.33749683438E+02 -0.17465275611E+02  0.18472595997E+03  0.00000000000E+00 0.  1.
        -11    1    3    3    0    0  0.83571860269E+02  0.71195299504E+01  0.49857467659E+02  0.97574128830E+02  0.00000000000E+00 0. -1.
         22    1    1    2    0    0 -0.26434686768E+03  0.26630153487E+02  0.11161478992E+04  0.11473336762E+04  0.00000000000E+00 0.  1.
<mgrwt>
<rscale>  0 0.85129804E+03</rscale>
<asrwt>0</asrwt>
<pdfrwt beam="1">  1        2 0.19832106E+00 0.85129804E+03</pdfrwt>
<pdfrwt beam="2">  1       -2 0.21622591E-01 0.85129804E+03</pdfrwt>
<totfact> 0.31337957E+02</totfact>
</mgrwt>
</event>
<event>
 6    1  0.2436515E-005  0.3794320E+04  0.7818608E-02  0.8047375E-01
         -2   -1    0    0    0  501 -0.00000000000E+00  0.00000000000E+00  0.29435124173E+04  0.29435124173E+04  0.00000000000E+00 0. -1.
          2   -1    0    0  501    0  0.00000000000E+00 -0.00000000000E+00 -0.12227625167E+04  0.12227625167E+04  0.00000000000E+00 0.  1.
         23    2    1    2    0    0 -0.78191293482E+03 -0.17267134625E+04  0.81158275211E+03  0.20640113627E+04  0.92461465986E+02 0.  0.
         11    1    3    3    0    0 -0.27252330738E+03 -0.49919062271E+03  0.24440588817E+03  0.61902703417E+03  0.00000000000E+00 0.  1.
        -11    1    3    3    0    0 -0.50938962745E+03 -0.12275228398E+04  0.56717686395E+03  0.14449843286E+04  0.00000000000E+00 0. -1.
         22    1    1    2    0    0  0.78191293482E+03  0.17267134625E+04  0.90916714849E+03  0.21022635713E+04  0.00000000000E+00 0. -1.
<mgrwt>
<rscale>  0 0.37943203E+04</rscale>
<asrwt>0</asrwt>
<pdfrwt beam="1">  1        2 0.18811731E+00 0.37943203E+04</pdfrwt>
<pdfrwt beam="2">  1       -2 0.45284806E+00 0.37943203E+04</pdfrwt>
<totfact> 0.48921106E-02</totfact>
</mgrwt>
</event>
<event>
 6    1  0.2436515E-005  0.1655345E+04  0.7818608E-02  0.8787251E-01
          2   -1    0    0  501    0  0.00000000000E+00  0.00000000000E+00  0.23409599624E+04  0.23409599624E+04  0.00000000000E+00 0.  1.
         -2   -1    0    0    0  501 -0.00000000000E+00 -0.00000000000E+00 -0.29263294974E+03  0.29263294974E+03  0.00000000000E+00 0. -1.
         23    2    1    2    0    0 -0.35394936627E+03 -0.17844793360E+03 -0.12396245864E+03  0.42543409402E+03  0.92215282443E+02 0.  0.
         13    1    3    3    0    0 -0.57687036317E+02  0.55808547148E+01 -0.22942775918E+02  0.62332263437E+02  0.00000000000E+00 0.  1.
        -13    1    3    3    0    0 -0.29626232995E+03 -0.18402878831E+03 -0.10101968273E+03  0.36310183058E+03  0.00000000000E+00 0. -1.
         22    1    1    2    0    0  0.35394936627E+03  0.17844793360E+03  0.21722894713E+04  0.22081588182E+04  0.00000000000E+00 0.  1.
<mgrwt>
<rscale>  0 0.16553453E+04</rscale>
<asrwt>0</asrwt>
<pdfrwt beam="1">  1        2 0.36014768E+00 0.16553453E+04</pdfrwt>
<pdfrwt beam="2">  1       -2 0.45020455E-01 0.16553453E+04</pdfrwt>
<totfact> 0.19218429E+01</totfact>
</mgrwt>
</event>
<event>
 6    1  0.2436515E-005  0.2776759E+04  0.7818608E-02  0.8310520E-01
          2   -1    0    0  501    0  0.00000000000E+00  0.00000000000E+00  0.31715810029E+04  0.31715810029E+04  0.00000000000E+00 0.  1.
         -2   -1    0    0    0  501 -0.00000000000E+00 -0.00000000000E+00 -0.60777201812E+03  0.60777201812E+03  0.00000000000E+00 0. -1.
         23    2    1    2    0    0  0.12464830244E+04 -0.57995296153E+02  0.46008766362E+03  0.13333917005E+04  0.95756901019E+02 0.  0.
         13    1    3    3    0    0  0.28105460798E+03 -0.53190068264E+02  0.10230083136E+03  0.30378666219E+03  0.00000000000E+00 0.  1.
        -13    1    3    3    0    0  0.96542841644E+03 -0.48052278883E+01  0.35778683226E+03  0.10296050383E+04  0.00000000000E+00 0. -1.
         22    1    1    2    0    0 -0.12464830244E+04  0.57995296153E+02  0.21037213211E+04  0.24459613205E+04  0.00000000000E+00 0.  1.
<mgrwt>
<rscale>  0 0.27767594E+04</rscale>
<asrwt>0</asrwt>
<pdfrwt beam="1">  1        2 0.48793553E+00 0.27767594E+04</pdfrwt>
<pdfrwt beam="2">  1       -2 0.93503390E-01 0.27767594E+04</pdfrwt>
<totfact> 0.11406707E+00</totfact>
</mgrwt>
</event>
<event>
 6    1  0.2436515E-005  0.4211764E+04  0.7818608E-02  0.7963138E-01
         -2   -1    0    0    0  501 -0.00000000000E+00  0.00000000000E+00  0.25251742926E+04  0.25251742926E+04  0.00000000000E+00 0. -1.
          2   -1    0    0  501    0  0.00000000000E+00 -0.00000000000E+00 -0.17562107822E+04  0.17562107822E+04  0.00000000000E+00 0.  1.
         23    2    1    2    0    0 -0.67663082766E+03 -0.55504267886E+02  0.24099919197E+04  0.25054672161E+04  0.91623779693E+02 0.  0.
         13    1    3    3    0    0 -0.30125504250E+03 -0.46453397618E+02  0.12281558516E+04  0.12654166565E+04  0.00000000000E+00 0. -1.
        -13    1    3    3    0    0 -0.37537578515E+03 -0.90508702686E+01  0.11818360682E+04  0.12400505596E+04  0.00000000000E+00 0.  1.
         22    1    1    2    0    0  0.67663082766E+03  0.55504267886E+02 -0.16410284093E+04  0.17759178587E+04  0.00000000000E+00 0.  1.
<mgrwt>
<rscale>  0 0.42117637E+04</rscale>
<asrwt>0</asrwt>
<pdfrwt beam="1">  1        2 0.27018627E+00 0.42117637E+04</pdfrwt>
<pdfrwt beam="2">  1       -2 0.38848835E+00 0.42117637E+04</pdfrwt>
<totfact> 0.62421500E-02</totfact>
</mgrwt>
</event>
<event>
 6    1  0.2436515E-005  0.5840659E+04  0.7818608E-02  0.7710478E-01
         -2   -1    0    0    0  501 -0.00000000000E+00  0.00000000000E+00  0.17363272355E+04  0.17363272355E+04  0.00000000000E+00 0. -1.
          2   -1    0    0  501    0  0.00000000000E+00 -0.00000000000E+00 -0.49117041493E+04  0.49117041493E+04  0.00000000000E+00 0.  1.
         23    2    1    2    0    0 -0.90979472917E+03  0.18185548123E+04 -0.39727194685E+04  0.44638557499E+04  0.92952275899E+02 0.  0.
         11    1    3    3    0    0 -0.35713716539E+03  0.62418465294E+03 -0.14458292411E+04  0.16147989443E+04  0.00000000000E+00 0.  1.
        -11    1    3    3    0    0 -0.55265756378E+03  0.11943701593E+04 -0.25268902274E+04  0.28490568056E+04  0.00000000000E+00 0. -1.
         22    1    1    2    0    0  0.90979472917E+03 -0.18185548123E+04  0.79734255476E+03  0.21841756349E+04  0.00000000000E+00 0. -1.
<mgrwt>
<rscale>  0 0.58406594E+04</rscale>
<asrwt>0</asrwt>
<pdfrwt beam="1">  1        2 0.75564680E+00 0.58406594E+04</pdfrwt>
<pdfrwt beam="2">  1       -2 0.26712726E+00 0.58406594E+04</pdfrwt>
<totfact> 0.14883734E-03</totfact>
</mgrwt>
</event>
<event>
 6    1  0.2436515E-005  0.2333752E+04  0.7818608E-02  0.8464731E-01
         -2   -1    0    0    0  501 -0.00000000000E+00  0.00000000000E+00  0.38148522304E+03  0.38148522304E+03  0.00000000000E+00 0. -1.
          2   -1    0    0  501    0  0.00000000000E+00 -0.00000000000E+00 -0.35692054833E+04  0.35692054833E+04  0.00000000000E+00 0.  1.
         23    2    1    2    0    0  0.27335342058E+03 -0.99399345473E+03 -0.25152273353E+04  0.27198406689E+04  0.91758570968E+02 0.  0.
         11    1    3    3    0    0  0.20735486087E+03 -0.61326706154E+03 -0.15111927341E+04  0.16440182501E+04  0.00000000000E+00 0. -1.
        -11    1    3    3    0    0  0.65998559704E+02 -0.38072639319E+03 -0.10040346012E+04  0.10758224187E+04  0.00000000000E+00 0.  1.
         22    1    1    2    0    0 -0.27335342058E+03  0.99399345473E+03 -0.67249292499E+03  0.12308500375E+04  0.00000000000E+00 0. -1.
<mgrwt>
<rscale>  0 0.23337516E+04</rscale>
<asrwt>0</asrwt>
<pdfrwt beam="1">  1        2 0.54910856E+00 0.23337516E+04</pdfrwt>
<pdfrwt beam="2">  1       -2 0.58690032E-01 0.23337516E+04</pdfrwt>
<totfact> 0.17870036E+00</totfact>
</mgrwt>
</event>
<event>
 6    1  0.2436515E-005  0.2164483E+04  0.7818608E-02  0.8533358E-01
          2   -1    0    0  501    0  0.00000000000E+00  0.00000000000E+00  0.12714604756E+04  0.12714604756E+04  0.00000000000E+00 0.  1.
         -2   -1    0    0    0  501 -0.00000000000E+00 -0.00000000000E+00 -0.92118236475E+03  0.92118236475E+03  0.00000000000E+00 0. -1.
         23    2    1    2    0    0 -0.70332123762E+03 -0.78406606850E+03  0.41875713693E+03  0.11371288707E+04  0.91017392659E+02 0.  0.
         13    1    3    3    0    0 -0.85011013483E+02 -0.83985068668E+02  0.78840777708E+02  0.14316505301E+03  0.00000000000E+00 0.  1.
        -13    1    3    3    0    0 -0.61831022414E+03 -0.70008099984E+03  0.33991635922E+03  0.99396381769E+03  0.00000000000E+00 0. -1.
         22    1    1    2    0    0  0.70332123762E+03  0.78406606850E+03 -0.68479026107E+02  0.10555139696E+04  0.00000000000E+00 0.  1.
<mgrwt>
<rscale>  0 0.21644833E+04</rscale>
<asrwt>0</asrwt>
<pdfrwt beam="1">  1        2 0.19560930E+00 0.21644833E+04</pdfrwt>
<pdfrwt beam="2">  1       -2 0.14172036E+00 0.21644833E+04</pdfrwt>
<totfact> 0.54800789E+00</totfact>
</mgrwt>
</event>
<event>
 6    1  0.2436515E-005  0.2247226E+04  0.7818608E-02  0.8499025E-01
         -2   -1    0    0    0  501 -0.00000000000E+00  0.00000000000E+00  0.53757899805E+03  0.53757899805E+03  0.00000000000E+00 0. -1.
          2   -1    0    0  501    0  0.00000000000E+00 -0.00000000000E+00 -0.23485037589E+04  0.23485037589E+04  0.00000000000E+00 0.  1.
         23    2    1    2    0    0  0.51886800107E+03 -0.11129307258E+03 -0.21765992572E+04  0.22416233029E+04  0.75369459628E+02 0.  0.
         11    1    3    3    0    0  0.37439325164E+03 -0.90316072265E+02 -0.17043929118E+04  0.17473644433E+04  0.00000000000E+00 0. -1.
        -11    1    3    3    0    0  0.14447474943E+03 -0.20977000317E+02 -0.47220634537E+03  0.49425885968E+03  0.00000000000E+00 0.  1.
         22    1    1    2    0    0 -0.51886800107E+03  0.11129307258E+03  0.36567449635E+03  0.64445945398E+03  0.00000000000E+00 0. -1.
<mgrwt>
<rscale>  0 0.22472261E+04</rscale>
<asrwt>0</asrwt>
<pdfrwt beam="1">  1        2 0.36130827E+00 0.22472261E+04</pdfrwt>
<pdfrwt beam="2">  1       -2 0.82704461E-01 0.22472261E+04</pdfrwt>
<totfact> 0.49667494E+00</totfact>
</mgrwt>
</event>
<event>
 6    1  0.2436515E-005  0.1548307E+04  0.7818608E-02  0.8852950E-01
          2   -1    0    0  501    0  0.00000000000E+00  0.00000000000E+00  0.46138619764E+03  0.46138619764E+03  0.00000000000E+00 0.  1.
         -2   -1    0    0    0  501 -0.00000000000E+00 -0.00000000000E+00 -0.12989411735E+04  0.12989411735E+04  0.00000000000E+00 0. -1.
         23    2    1    2    0    0  0.34820854165E+02 -0.58668395422E+03  0.14790387995E+03  0.61292172773E+03  0.91580197607E+02 0.  0.
         11    1    3    3    0    0  0.27664661089E+02 -0.42258701616E+03  0.14818360486E+03  0.44866858643E+03  0.00000000000E+00 0. -1.
        -11    1    3    3    0    0  0.71561930754E+01 -0.16409693806E+03 -0.27972491341E+00  0.16425314130E+03  0.00000000000E+00 0.  1.
         22    1    1    2    0    0 -0.34820854165E+02  0.58668395422E+03 -0.98545885584E+03  0.11474056434E+04  0.00000000000E+00 0. -1.
<mgrwt>
<rscale>  0 0.15483069E+04</rscale>
<asrwt>0</asrwt>
<pdfrwt beam="1">  1        2 0.70982493E-01 0.15483069E+04</pdfrwt>
<pdfrwt beam="2">  1       -2 0.19983710E+00 0.15483069E+04</pdfrwt>
<totfact> 0.86656946E+00</totfact>
</mgrwt>
</event>
<event>
 6    1  0.2436515E-005  0.1163312E+04  0.7818608E-02  0.9145590E-01
         -1   -1    0    0    0  501 -0.00000000000E+00  0.00000000000E+00  0.53263844342E+03  0.53263844342E+03  0.00000000000E+00 0. -1.
          1   -1    0    0  501    0  0.00000000000E+00 -0.00000000000E+00 -0.63518411682E+03  0.63518411682E+03  0.00000000000E+00 0.  1.
         23    2    1    2    0    0 -0.36261945996E+03  0.60513904356E+02  0.39607044176E+03  0.54832854441E+03  0.92938648676E+02 0.  0.
         13    1    3    3    0    0 -0.13618127887E+03  0.13821189890E+02  0.21404725386E+03  0.25407202304E+03  0.00000000000E+00 0.  1.
        -13    1    3    3    0    0 -0.22643818108E+03  0.46692714466E+02  0.18202318790E+03  0.29425652137E+03  0.00000000000E+00 0. -1.
         22    1    1    2    0    0  0.36261945996E+03 -0.60513904356E+02 -0.49861611516E+03  0.61949401584E+03  0.00000000000E+00 0.  1.
<mgrwt>
<rscale>  0 0.11633116E+04</rscale>
<asrwt>0</asrwt>
<pdfrwt beam="1">  1        1 0.97720633E-01 0.11633116E+04</pdfrwt>
<pdfrwt beam="2">  1       -1 0.81944376E-01 0.11633116E+04</pdfrwt>
<totfact> 0.46357865E+01</totfact>
</mgrwt>
</event>
<event>
 6    1  0.2436515E-005  0.3535881E+04  0.7818608E-02  0.8105339E-01
          2   -1    0    0  501    0  0.00000000000E+00  0.00000000000E+00  0.13519615025E+04  0.13519615025E+04  0.00000000000E+00 0.  1.
         -2   -1    0    0    0  501 -0.00000000000E+00 -0.00000000000E+00 -0.23119106754E+04  0.23119106754E+04  0.00000000000E+00 0. -1.
         23    2    1    2    0    0  0.15986837873E+04  0.64151653962E+03 -0.73398650749E+02  0.17265273066E+04  0.90420441010E+02 0.  0.
         11    1    3    3    0    0  0.50281652283E+03  0.23799884774E+03 -0.49333779457E+02  0.55848162813E+03  0.00000000000E+00 0. -1.
        -11    1    3    3    0    0  0.10958672644E+04  0.40351769187E+03 -0.24064871292E+02  0.11680456785E+04  0.00000000000E+00 0.  1.
         22    1    1    2    0    0 -0.15986837873E+04 -0.64151653962E+03 -0.88655052215E+03  0.19373448714E+04  0.00000000000E+00 0. -1.
<mgrwt>
<rscale>  0 0.35358814E+04</rscale>
<asrwt>0</asrwt>
<pdfrwt beam="1">  1        2 0.20799408E+00 0.35358814E+04</pdfrwt>
<pdfrwt beam="2">  1       -2 0.35567857E+00 0.35358814E+04</pdfrwt>
<totfact> 0.18090085E-01</totfact>
</mgrwt>
</event>
<event>
 6    1  0.2436515E-005  0.7424684E+03  0.7818608E-02  0.9647241E-01
         -2   -1    0    0    0  501 -0.00000000000E+00  0.00000000000E+00  0.13285594462E+03  0.13285594462E+03  0.00000000000E+00 0. -1.
          2   -1    0    0  501    0  0.00000000000E+00 -0.00000000000E+00 -0.10373253595E+04  0.10373253595E+04  0.00000000000E+00 0.  1.
         23    2    1    2    0    0 -0.22983330538E+02 -0.12668245961E+02 -0.10337122837E+04  0.10383009149E+04  0.93909458265E+02 0.  0.
         13    1    3    3    0    0  0.21450004032E+02  0.29333686787E+02 -0.39671382772E+03  0.39837473434E+03  0.00000000000E+00 0. -1.
        -13    1    3    3    0    0 -0.44433334570E+02 -0.42001932749E+02 -0.63699845601E+03  0.63992618054E+03  0.00000000000E+00 0.  1.
         22    1    1    2    0    0  0.22983330538E+02  0.12668245961E+02  0.12924286881E+03  0.13188038928E+03  0.00000000000E+00 0. -1.
<mgrwt>
<rscale>  0 0.74246842E+03</rscale>
<asrwt>0</asrwt>
<pdfrwt beam="1">  1        2 0.15958852E+00 0.74246842E+03</pdfrwt>
<pdfrwt beam="2">  1       -2 0.20439376E-01 0.74246842E+03</pdfrwt>
<totfact> 0.49289503E+02</totfact>
</mgrwt>
</event>
<event>
 6    1  0.2436515E-005  0.2390799E+04  0.7818608E-02  0.8442956E-01
         -2   -1    0    0    0  501 -0.00000000000E+00  0.00000000000E+00  0.66631351468E+03  0.66631351468E+03  0.00000000000E+00 0. -1.
          2   -1    0    0  501    0  0.00000000000E+00 -0.00000000000E+00 -0.21446059719E+04  0.21446059719E+04  0.00000000000E+00 0.  1.
         23    2    1    2    0    0 -0.15726069605E+03  0.88448848313E+03 -0.16642757357E+04  0.18935097727E+04  0.92275302564E+02 0.  0.
         13    1    3    3    0    0 -0.25052329223E+02  0.38498382041E+03 -0.74526733100E+03  0.83920412048E+03  0.00000000000E+00 0.  1.
        -13    1    3    3    0    0 -0.13220836683E+03  0.49950466272E+03 -0.91900840473E+03  0.10543056522E+04  0.00000000000E+00 0. -1.
         22    1    1    2    0    0  0.15726069605E+03 -0.88448848313E+03  0.18598327848E+03  0.91740971392E+03  0.00000000000E+00 0. -1.
<mgrwt>
<rscale>  0 0.23907990E+04</rscale>
<asrwt>0</asrwt>
<pdfrwt beam="1">  1        2 0.32993938E+00 0.23907990E+04</pdfrwt>
<pdfrwt beam="2">  1       -2 0.10250977E+00 0.23907990E+04</pdfrwt>
<totfact> 0.38865729E+00</totfact>
</mgrwt>
</event>
<event>
 6    1  0.2436515E-005  0.2949602E+04  0.7818608E-02  0.8258271E-01
         -2   -1    0    0    0  501 -0.00000000000E+00  0.00000000000E+00  0.81643555049E+03  0.81643555049E+03  0.00000000000E+00 0. -1.
          2   -1    0    0  501    0  0.00000000000E+00 -0.00000000000E+00 -0.26640649673E+04  0.26640649673E+04  0.00000000000E+00 0.  1.
         23    2    1    2    0    0  0.89051592395E+03  0.72111297840E+03  0.16829867942E+03  0.11616670551E+04  0.90129701125E+02 0.  0.
         11    1    3    3    0    0  0.74834599619E+03  0.61745959183E+03  0.17378972055E+03  0.98563732910E+03  0.00000000000E+00 0.  1.
        -11    1    3    3    0    0  0.14216992776E+03  0.10365338658E+03 -0.54910411389E+01  0.17602972602E+03  0.00000000000E+00 0. -1.
         22    1    1    2    0    0 -0.89051592395E+03 -0.72111297840E+03 -0.20159280963E+04  0.23188334627E+04  0.00000000000E+00 0.  1.
<mgrwt>
<rscale>  0 0.29496016E+04</rscale>
<asrwt>0</asrwt>
<pdfrwt beam="1">  1        2 0.40985614E+00 0.29496016E+04</pdfrwt>
<pdfrwt beam="2">  1       -2 0.12560547E+00 0.29496016E+04</pdfrwt>
<totfact> 0.11353835E+00</totfact>
</mgrwt>
</event>
<event>
 6    1  0.2436515E-005  0.3179614E+04  0.7818608E-02  0.8194222E-01
          2   -1    0    0  501    0  0.00000000000E+00  0.00000000000E+00  0.14227636403E+04  0.14227636403E+04  0.00000000000E+00 0. -1.
         -2   -1    0    0    0  501 -0.00000000000E+00 -0.00000000000E+00 -0.17764623082E+04  0.17764623082E+04  0.00000000000E+00 0.  1.
         23    2    1    2    0    0  0.46869053196E+03 -0.31702588002E+03  0.13164087800E+04  0.14358669065E+04  0.92765693148E+02 0.  0.
         13    1    3    3    0    0  0.23143381969E+03 -0.20535774502E+03  0.76829031255E+03  0.82825323464E+03  0.00000000000E+00 0. -1.
        -13    1    3    3    0    0  0.23725671228E+03 -0.11166813500E+03  0.54811846741E+03  0.60761367185E+03  0.00000000000E+00 0.  1.
         22    1    1    2    0    0 -0.46869053196E+03  0.31702588002E+03 -0.16701074479E+04  0.17633590420E+04  0.00000000000E+00 0.  1.
<mgrwt>
<rscale>  0 0.31796138E+04</rscale>
<asrwt>0</asrwt>
<pdfrwt beam="1">  1        2 0.21888671E+00 0.31796138E+04</pdfrwt>
<pdfrwt beam="2">  1       -2 0.27330189E+00 0.31796138E+04</pdfrwt>
<totfact> 0.54803595E-01</totfact>
</mgrwt>
</event>
<event>
 6    1  0.2436515E-005  0.1297885E+04  0.7818608E-02  0.9031244E-01
          2   -1    0    0  501    0  0.00000000000E+00  0.00000000000E+00  0.23610485936E+04  0.23610485936E+04  0.00000000000E+00 0.  1.
         -2   -1    0    0    0  501 -0.00000000000E+00 -0.00000000000E+00 -0.17836423126E+03  0.17836423126E+03  0.00000000000E+00 0. -1.
         23    2    1    2    0    0 -0.13911941899E+03  0.13637252996E+03  0.23013113245E+04  0.23113250440E+04  0.90763246536E+02 0.  0.
         11    1    3    3    0    0 -0.85395391622E+02  0.13651139916E+03  0.17647818786E+04  0.17721125286E+04  0.00000000000E+00 0. -1.
        -11    1    3    3    0    0 -0.53724027363E+02 -0.13886920269E+00  0.53652944587E+03  0.53921251533E+03  0.00000000000E+00 0.  1.
         22    1    1    2    0    0  0.13911941899E+03 -0.13637252996E+03 -0.11862696213E+03  0.22808778093E+03  0.00000000000E+00 0. -1.
<mgrwt>
<rscale>  0 0.12978854E+04</rscale>
<asrwt>0</asrwt>
<pdfrwt beam="1">  1        2 0.36323822E+00 0.12978854E+04</pdfrwt>
<pdfrwt beam="2">  1       -2 0.27440653E-01 0.12978854E+04</pdfrwt>
<totfact> 0.49808546E+01</totfact>
</mgrwt>
</event>
<event>
 6    1  0.2436515E-005  0.1776158E+04  0.7818608E-02  0.8719082E-01
         -2   -1    0    0    0  501 -0.00000000000E+00  0.00000000000E+00  0.86783901215E+03  0.86783901215E+03  0.00000000000E+00 0. -1.
          2   -1    0    0  501    0  0.00000000000E+00 -0.00000000000E+00 -0.90879151553E+03  0.90879151553E+03  0.00000000000E+00 0.  1.
         23    2    1    2    0    0 -0.55286725531E+03  0.63612556824E+03  0.25211575807E+03  0.88432623742E+03  0.90291739150E+02 0.  0.
         11    1    3    3    0    0 -0.36796886305E+03  0.44402805858E+03  0.13044169899E+03  0.59125040196E+03  0.00000000000E+00 0.  1.
        -11    1    3    3    0    0 -0.18489839226E+03  0.19209750965E+03  0.12167405908E+03  0.29307583545E+03  0.00000000000E+00 0. -1.
         22    1    1    2    0    0  0.55286725531E+03 -0.63612556824E+03 -0.29306826145E+03  0.89230429027E+03  0.00000000000E+00 0.  1.
<mgrwt>
<rscale>  0 0.17761585E+04</rscale>
<asrwt>0</asrwt>
<pdfrwt beam="1">  1        2 0.13981408E+00 0.17761585E+04</pdfrwt>
<pdfrwt beam="2">  1       -2 0.13351369E+00 0.17761585E+04</pdfrwt>
<totfact> 0.11101105E+01</totfact>
</mgrwt>
</event>
<event>
 6    1  0.2436515E-005  0.3822743E+04  0.7818608E-02  0.8041292E-01
         -2   -1    0    0    0  501 -0.00000000000E+00  0.00000000000E+00  0.99809559596E+03  0.99809559596E+03  0.00000000000E+00 0. -1.
          2   -1    0    0  501    0  0.00000000000E+00 -0.00000000000E+00 -0.36603122643E+04  0.36603122643E+04  0.00000000000E+00 0.  1.
         23    2    1    2    0    0 -0.23454798052E+03  0.18087637990E+04 -0.63970377607E+03  0.19349546047E+04  0.90494006060E+02 0.  0.
         11    1    3    3    0    0 -0.22218057486E+03  0.14471217479E+04 -0.52484099108E+03  0.15553082097E+04  0.00000000000E+00 0.  1.
        -11    1    3    3    0    0 -0.12367405655E+02  0.36164205112E+03 -0.11486278499E+03  0.37964639500E+03  0.00000000000E+00 0. -1.
         22    1    1    2    0    0  0.23454798052E+03 -0.18087637990E+04 -0.20225128922E+04  0.27234532556E+04  0.00000000000E+00 0.  1.
<mgrwt>
<rscale>  0 0.38227433E+04</rscale>
<asrwt>0</asrwt>
<pdfrwt beam="1">  1        2 0.56312497E+00 0.38227433E+04</pdfrwt>
<pdfrwt beam="2">  1       -2 0.15355317E+00 0.38227433E+04</pdfrwt>
<totfact> 0.14032728E-01</totfact>
</mgrwt>
</event>
<event>
 6    1  0.2436515E-005  0.1144636E+04  0.7818608E-02  0.9162746E-01
          2   -1    0    0  501    0  0.00000000000E+00  0.00000000000E+00  0.95906395322E+03  0.95906395322E+03  0.00000000000E+00 0.  1.
         -2   -1    0    0    0  501 -0.00000000000E+00 -0.00000000000E+00 -0.34152896319E+03  0.34152896319E+03  0.00000000000E+00 0. -1.
         23    2    1    2    0    0 -0.40015218018E+03 -0.22226404319E+03  0.69416923907E+03  0.83648529923E+03  0.91179225549E+02 0.  0.
         13    1    3    3    0    0 -0.28603036426E+03 -0.18534224265E+03  0.45058766513E+03  0.56497288444E+03  0.00000000000E+00 0. -1.
        -13    1    3    3    0    0 -0.11412181592E+03 -0.36921800537E+02  0.24358157394E+03  0.27151241479E+03  0.00000000000E+00 0.  1.
         22    1    1    2    0    0  0.40015218018E+03  0.22226404319E+03 -0.76634249042E+02  0.46410761718E+03  0.00000000000E+00 0. -1.
<mgrwt>
<rscale>  0 0.11446364E+04</rscale>
<asrwt>0</asrwt>
<pdfrwt beam="1">  1        2 0.14754830E+00 0.11446364E+04</pdfrwt>
<pdfrwt beam="2">  1       -2 0.52542918E-01 0.11446364E+04</pdfrwt>
<totfact> 0.90625722E+01</totfact>
</mgrwt>
</event>
<event>
 6    1  0.2436515E-005  0.1708942E+04  0.7818608E-02  0.8756281E-01
         -2   -1    0    0    0  501 -0.00000000000E+00  0.00000000000E+00  0.54168083732E+03  0.54168083732E+03  0.00000000000E+00 0. -1.
          2   -1    0    0  501    0  0.00000000000E+00 -0.00000000000E+00 -0.13478803121E+04  0.13478803121E+04  0.00000000000E+00 0.  1.
         23    2    1    2    0    0 -0.76485212805E+02 -0.14706247811E+03 -0.13283558860E+04  0.13417247889E+04  0.90656985020E+02 0.  0.
         13    1    3    3    0    0 -0.64663892907E+02 -0.44291860189E+02 -0.39870258996E+03  0.40633353684E+03  0.00000000000E+00 0. -1.
        -13    1    3    3    0    0 -0.11821319898E+02 -0.10277061792E+03 -0.92965329606E+03  0.93539125203E+03  0.00000000000E+00 0.  1.
         22    1    1    2    0    0  0.76485212805E+02  0.14706247811E+03  0.52215641118E+03  0.54783636059E+03  0.00000000000E+00 0. -1.
<mgrwt>
<rscale>  0 0.17089423E+04</rscale>
<asrwt>0</asrwt>
<pdfrwt beam="1">  1        2 0.20736620E+00 0.17089423E+04</pdfrwt>
<pdfrwt beam="2">  1       -2 0.83335514E-01 0.17089423E+04</pdfrwt>
<totfact> 0.18583902E+01</totfact>
</mgrwt>
</event>
<event>
 6    1  0.2436515E-005  0.2094078E+04  0.7818608E-02  0.8563856E-01
         -2   -1    0    0    0  501 -0.00000000000E+00  0.00000000000E+00  0.79420107126E+03  0.79420107126E+03  0.00000000000E+00 0. -1.
          2   -1    0    0  501    0  0.00000000000E+00 -0.00000000000E+00 -0.13803696731E+04  0.13803696731E+04  0.00000000000E+00 0.  1.
         23    2    1    2    0    0  0.10568914052E+03 -0.56401572532E+03 -0.12006738605E+04  0.13337969069E+04  0.90069622037E+02 0.  0.
         13    1    3    3    0    0  0.58741562969E+01 -0.18771570606E+03 -0.32257160581E+03  0.37326148059E+03  0.00000000000E+00 0.  1.
        -13    1    3    3    0    0  0.99814984227E+02 -0.37630001926E+03 -0.87810225468E+03  0.96053542634E+03  0.00000000000E+00 0. -1.
         22    1    1    2    0    0 -0.10568914052E+03  0.56401572532E+03  0.61450525865E+03  0.84077383745E+03  0.00000000000E+00 0. -1.
<mgrwt>
<rscale>  0 0.20940784E+04</rscale>
<asrwt>0</asrwt>
<pdfrwt beam="1">  1        2 0.21236456E+00 0.20940784E+04</pdfrwt>
<pdfrwt beam="2">  1       -2 0.12218478E+00 0.20940784E+04</pdfrwt>
<totfact> 0.69521595E+00</totfact>
</mgrwt>
</event>
<event>
 6    1  0.2436515E-005  0.1911650E+04  0.7818608E-02  0.8649079E-01
          2   -1    0    0  501    0  0.00000000000E+00  0.00000000000E+00  0.15086106941E+04  0.15086106941E+04  0.00000000000E+00 0.  1.
         -2   -1    0    0    0  501 -0.00000000000E+00 -0.00000000000E+00 -0.60559095298E+03  0.60559095298E+03  0.00000000000E+00 0. -1.
         23    2    1    2    0    0  0.17413697732E+03 -0.23166565900E+03  0.14573151331E+04  0.14887130013E+04  0.92229814703E+02 0.  0.
         11    1    3    3    0    0  0.13599956831E+03 -0.21330691512E+03  0.10901849274E+04  0.11191509722E+04  0.00000000000E+00 0. -1.
        -11    1    3    3    0    0  0.38137409013E+02 -0.18358743878E+02  0.36713020564E+03  0.36956202908E+03  0.00000000000E+00 0.  1.
         22    1    1    2    0    0 -0.17413697732E+03  0.23166565900E+03 -0.55429539197E+03  0.62548864577E+03  0.00000000000E+00 0. -1.
<mgrwt>
<rscale>  0 0.19116495E+04</rscale>
<asrwt>0</asrwt>
<pdfrwt beam="1">  1        2 0.23209395E+00 0.19116495E+04</pdfrwt>
<pdfrwt beam="2">  1       -2 0.93167839E-01 0.19116495E+04</pdfrwt>
<totfact> 0.11456370E+01</totfact>
</mgrwt>
</event>
<event>
 6    1  0.2436515E-005  0.3567467E+04  0.7818608E-02  0.8097985E-01
         -2   -1    0    0    0  501 -0.00000000000E+00  0.00000000000E+00  0.12164936206E+04  0.12164936206E+04  0.00000000000E+00 0. -1.
          2   -1    0    0  501    0  0.00000000000E+00 -0.00000000000E+00 -0.26154717928E+04  0.26154717928E+04  0.00000000000E+00 0.  1.
         23    2    1    2    0    0 -0.15869207598E+04  0.35669530964E+03  0.83382469594E+02  0.16312968527E+04  0.92885648446E+02 0.  0.
         11    1    3    3    0    0 -0.41246449473E+03  0.52572991751E+02  0.11022122200E+02  0.41594755204E+03  0.00000000000E+00 0. -1.
        -11    1    3    3    0    0 -0.11744562651E+04  0.30412231789E+03  0.72360347394E+02  0.12153493007E+04  0.00000000000E+00 0.  1.
         22    1    1    2    0    0  0.15869207598E+04 -0.35669530964E+03 -0.14823606417E+04  0.22006685607E+04  0.00000000000E+00 0. -1.
<mgrwt>
<rscale>  0 0.35674667E+04</rscale>
<asrwt>0</asrwt>
<pdfrwt beam="1">  1        2 0.40238027E+00 0.35674667E+04</pdfrwt>
<pdfrwt beam="2">  1       -2 0.18715287E+00 0.35674667E+04</pdfrwt>
<totfact> 0.39446398E-01</totfact>
</mgrwt>
</event>
<event>
 6    1  0.2436515E-005  0.4278433E+04  0.7818608E-02  0.7950618E-01
          2   -1    0    0  501    0  0.00000000000E+00  0.00000000000E+00  0.15391722909E+04  0.15391722909E+04  0.00000000000E+00 0.  1.
         -2   -1    0    0    0  501 -0.00000000000E+00 -0.00000000000E+00 -0.29731869672E+04  0.29731869672E+04  0.00000000000E+00 0. -1.
         23    2    1    2    0    0 -0.12804057391E+04 -0.14577635246E+04 -0.16650952655E+04  0.25584115646E+04  0.91728623778E+02 0.  0.
         13    1    3    3    0    0 -0.60822633556E+03 -0.63033978128E+03 -0.72467503992E+03  0.11368471439E+04  0.00000000000E+00 0.  1.
        -13    1    3    3    0    0 -0.67217940352E+03 -0.82742374329E+03 -0.94042022554E+03  0.14215644207E+04  0.00000000000E+00 0. -1.
         22    1    1    2    0    0  0.12804057391E+04  0.14577635246E+04  0.23108058917E+03  0.19539476935E+04  0.00000000000E+00 0.  1.
<mgrwt>
<rscale>  0 0.42784329E+04</rscale>
<asrwt>0</asrwt>
<pdfrwt beam="1">  1        2 0.23679574E+00 0.42784329E+04</pdfrwt>
<pdfrwt beam="2">  1       -2 0.45741337E+00 0.42784329E+04</pdfrwt>
<totfact> 0.28884168E-02</totfact>
</mgrwt>
</event>
<event>
 6    1  0.2436515E-005  0.1958137E+04  0.7818608E-02  0.8626447E-01
         -2   -1    0    0    0  501 -0.00000000000E+00  0.00000000000E+00  0.33816280189E+04  0.33816280189E+04  0.00000000000E+00 0. -1.
          2   -1    0    0  501    0  0.00000000000E+00 -0.00000000000E+00 -0.28346556435E+03  0.28346556435E+03  0.00000000000E+00 0.  1.
         23    2    1    2    0    0 -0.62065290760E+03  0.72203942779E+02  0.14683657441E+03  0.64834899812E+03  0.91498648727E+02 0.  0.
         13    1    3    3    0    0 -0.29326710881E+03  0.72528888834E+02  0.96336287573E+02  0.31709102341E+03  0.00000000000E+00 0. -1.
        -13    1    3    3    0    0 -0.32738579879E+03 -0.32494605522E+00  0.50500286834E+02  0.33125797471E+03  0.00000000000E+00 0.  1.
         22    1    1    2    0    0  0.62065290760E+03 -0.72203942779E+02  0.29513258801E+04  0.30167445851E+04  0.00000000000E+00 0. -1.
<mgrwt>
<rscale>  0 0.19581370E+04</rscale>
<asrwt>0</asrwt>
<pdfrwt beam="1">  1        2 0.43610089E-01 0.19581370E+04</pdfrwt>
<pdfrwt beam="2">  1       -2 0.52025043E+00 0.19581370E+04</pdfrwt>
<totfact> 0.13486857E-01</totfact>
</mgrwt>
</event>
<event>
 6    1  0.2436515E-005  0.6216326E+04  0.7818608E-02  0.7664144E-01
         -2   -1    0    0    0  501 -0.00000000000E+00  0.00000000000E+00  0.28805858053E+04  0.28805858053E+04  0.00000000000E+00 0. -1.
          2   -1    0    0  501    0  0.00000000000E+00 -0.00000000000E+00 -0.33537194504E+04  0.33537194504E+04  0.00000000000E+00 0.  1.
         23    2    1    2    0    0 -0.22807756728E+04 -0.19457621021E+04  0.58327853977E+03  0.30556365828E+04  0.93665594322E+02 0.  0.
         13    1    3    3    0    0 -0.90842430472E+03 -0.83131326256E+03  0.22222131414E+03  0.12512788540E+04  0.00000000000E+00 0. -1.
        -13    1    3    3    0    0 -0.13723513681E+04 -0.11144488395E+04  0.36105722563E+03  0.18043577289E+04  0.00000000000E+00 0.  1.
         22    1    1    2    0    0  0.22807756728E+04  0.19457621021E+04 -0.10564121849E+04  0.31786686729E+04  0.00000000000E+00 0.  1.
<mgrwt>
<rscale>  0 0.62163258E+04</rscale>
<asrwt>0</asrwt>
<pdfrwt beam="1">  1        2 0.51595683E+00 0.62163258E+04</pdfrwt>
<pdfrwt beam="2">  1       -2 0.44316705E+00 0.62163258E+04</pdfrwt>
<totfact> 0.26212824E-03</totfact>
</mgrwt>
</event>
<event>
 6    1  0.2436515E-005  0.2551913E+04  0.7818608E-02  0.8384721E-01
          2   -1    0    0  501    0  0.00000000000E+00  0.00000000000E+00  0.11083913178E+04  0.11083913178E+04  0.00000000000E+00 0.  1.
         -2   -1    0    0    0  501 -0.00000000000E+00 -0.00000000000E+00 -0.14688541240E+04  0.14688541240E+04  0.00000000000E+00 0. -1.
         23    2    1    2    0    0  0.79592229461E+03 -0.60056442712E+03 -0.98192086730E+03  0.14023496797E+04  0.90808063414E+02 0.  0.
         13    1    3    3    0    0  0.49055224559E+03 -0.32371128204E+03 -0.54194925613E+03  0.79946200410E+03  0.00000000000E+00 0.  1.
        -13    1    3    3    0    0  0.30537004902E+03 -0.27685314508E+03 -0.43997161117E+03  0.60288767562E+03  0.00000000000E+00 0. -1.
         22    1    1    2    0    0 -0.79592229461E+03  0.60056442712E+03  0.62145806111E+03  0.11748957621E+04  0.00000000000E+00 0.  1.
<mgrwt>
<rscale>  0 0.25519131E+04</rscale>
<asrwt>0</asrwt>
<pdfrwt beam="1">  1        2 0.17052174E+00 0.25519131E+04</pdfrwt>
<pdfrwt beam="2">  1       -2 0.22597755E+00 0.25519131E+04</pdfrwt>
<totfact> 0.17322038E+00</totfact>
</mgrwt>
</event>
<event>
 6    1  0.3842315E-005  0.3950758E+04  0.7818608E-02  0.8014554E-01
          2   -1    0    0  501    0  0.00000000000E+00  0.00000000000E+00  0.17081340757E+04  0.17081340757E+04  0.00000000000E+00 0.  1.
         -2   -1    0    0    0  501 -0.00000000000E+00 -0.00000000000E+00 -0.22844357861E+04  0.22844357861E+04  0.00000000000E+00 0. -1.
         23    2    1    2    0    0  0.14440979309E+04 -0.52556843948E+03  0.96427876709E+03  0.18165576315E+04  0.91690070501E+02 0.  0.
         11    1    3    3    0    0  0.72225571893E+03 -0.23155740178E+03  0.43409693315E+03  0.87390634579E+03  0.00000000000E+00 0. -1.
        -11    1    3    3    0    0  0.72184221202E+03 -0.29401103770E+03  0.53018183394E+03  0.94265128567E+03  0.00000000000E+00 0.  1.
         22    1    1    2    0    0 -0.14440979309E+04  0.52556843948E+03 -0.15405804775E+04  0.21760122303E+04  0.00000000000E+00 0. -1.
<mgrwt>
<rscale>  0 0.39507582E+04</rscale>
<asrwt>0</asrwt>
<pdfrwt beam="1">  1        2 0.26278986E+00 0.39507582E+04</pdfrwt>
<pdfrwt beam="2">  1       -2 0.35145166E+00 0.39507582E+04</pdfrwt>
<totfact> 0.11706128E-01</totfact>
</mgrwt>
</event>
<event>
 6    1  0.2436515E-005  0.6095072E+04  0.7818608E-02  0.7678725E-01
          2   -1    0    0  501    0  0.00000000000E+00  0.00000000000E+00  0.29255081746E+04  0.29255081746E+04  0.00000000000E+00 0.  1.
         -2   -1    0    0    0  501 -0.00000000000E+00 -0.00000000000E+00 -0.31746533147E+04  0.31746533147E+04  0.00000000000E+00 0. -1.
         23    2    1    2    0    0 -0.27414168473E+04  0.58712844587E+03  0.10693349009E+04  0.30020207951E+04  0.92550428364E+02 0.  0.
         13    1    3    3    0    0 -0.15355241247E+04  0.37579472849E+03  0.60170647575E+03  0.16914806232E+04  0.00000000000E+00 0. -1.
        -13    1    3    3    0    0 -0.12058927225E+04  0.21133371738E+03  0.46762842514E+03  0.13105401720E+04  0.00000000000E+00 0.  1.
         22    1    1    2    0    0  0.27414168473E+04 -0.58712844587E+03 -0.13184800410E+04  0.30981406942E+04  0.00000000000E+00 0. -1.
<mgrwt>
<rscale>  0 0.60950715E+04</rscale>
<asrwt>0</asrwt>
<pdfrwt beam="1">  1        2 0.45007818E+00 0.60950715E+04</pdfrwt>
<pdfrwt beam="2">  1       -2 0.48840820E+00 0.60950715E+04</pdfrwt>
<totfact> 0.25502223E-03</totfact>
</mgrwt>
</event>
<event>
 6    1  0.2436515E-005  0.2606001E+04  0.7818608E-02  0.8366166E-01
          4   -1    0    0  501    0  0.00000000000E+00  0.00000000000E+00  0.82572771409E+03  0.82572771409E+03  0.00000000000E+00 0.  1.
         -4   -1    0    0    0  501 -0.00000000000E+00 -0.00000000000E+00 -0.20561375893E+04  0.20561375893E+04  0.00000000000E+00 0. -1.
         23    2    1    2    0    0 -0.79119664617E+03  0.87704128129E+03 -0.12203101321E+04  0.17006390140E+04  0.88446002493E+02 0.  0.
         11    1    3    3    0    0 -0.57023550885E+03  0.58534857366E+03 -0.88005231489E+03  0.12009552719E+04  0.00000000000E+00 0. -1.
        -11    1    3    3    0    0 -0.22096113732E+03  0.29169270763E+03 -0.34025781719E+03  0.49968374203E+03  0.00000000000E+00 0.  1.
         22    1    1    2    0    0  0.79119664617E+03 -0.87704128129E+03 -0.10099743120E+02  0.11812262894E+04  0.00000000000E+00 0.  1.
<mgrwt>
<rscale>  0 0.26060006E+04</rscale>
<asrwt>0</asrwt>
<pdfrwt beam="1">  1        4 0.12703503E+00 0.26060006E+04</pdfrwt>
<pdfrwt beam="2">  1       -4 0.31632886E+00 0.26060006E+04</pdfrwt>
<totfact> 0.19716370E-02</totfact>
</mgrwt>
</event>
<event>
 6    1  0.2436515E-005  0.6218886E+04  0.7818608E-02  0.7663840E-01
         -2   -1    0    0    0  501 -0.00000000000E+00  0.00000000000E+00  0.28034479228E+04  0.28034479228E+04  0.00000000000E+00 0. -1.
          2   -1    0    0  501    0  0.00000000000E+00 -0.00000000000E+00 -0.34488367516E+04  0.34488367516E+04  0.00000000000E+00 0.  1.
         23    2    1    2    0    0 -0.30142427961E+04 -0.14093924497E+03  0.42878952978E+03  0.30492575670E+04  0.92670085766E+02 0.  0.
         11    1    3    3    0    0 -0.18772864615E+04 -0.11905908759E+03  0.29978497756E+03  0.19047967235E+04  0.00000000000E+00 0.  1.
        -11    1    3    3    0    0 -0.11369563345E+04 -0.21880157382E+02  0.12900455222E+03  0.11444608436E+04  0.00000000000E+00 0. -1.
         22    1    1    2    0    0  0.30142427961E+04  0.14093924497E+03 -0.10741783586E+04  0.32030271074E+04  0.00000000000E+00 0. -1.
<mgrwt>
<rscale>  0 0.62188855E+04</rscale>
<asrwt>0</asrwt>
<pdfrwt beam="1">  1        2 0.53059027E+00 0.62188855E+04</pdfrwt>
<pdfrwt beam="2">  1       -2 0.43129968E+00 0.62188855E+04</pdfrwt>
<totfact> 0.27000329E-03</totfact>
</mgrwt>
</event>
<event>
 6    1  0.2436515E-005  0.9903839E+03  0.7818608E-02  0.9319155E-01
          2   -1    0    0  501    0  0.00000000000E+00  0.00000000000E+00  0.17530336882E+04  0.17530336882E+04  0.00000000000E+00 0.  1.
         -2   -1    0    0    0  501 -0.00000000000E+00 -0.00000000000E+00 -0.13988041253E+03  0.13988041253E+03  0.00000000000E+00 0. -1.
         23    2    1    2    0    0 -0.47311667449E+03  0.11482150706E+03  0.93695178531E+03  0.10596843475E+04  0.89604140983E+02 0.  0.
         11    1    3    3    0    0 -0.37357034663E+03  0.11020841010E+03  0.67345881691E+03  0.77797652639E+03  0.00000000000E+00 0. -1.
        -11    1    3    3    0    0 -0.99546327863E+02  0.46130969648E+01  0.26349296840E+03  0.28170782107E+03  0.00000000000E+00 0.  1.
         22    1    1    2    0    0  0.47311667449E+03 -0.11482150706E+03  0.67620149034E+03  0.83322975325E+03  0.00000000000E+00 0. -1.
<mgrwt>
<rscale>  0 0.99038392E+03</rscale>
<asrwt>0</asrwt>
<pdfrwt beam="1">  1        2 0.26969747E+00 0.99038392E+03</pdfrwt>
<pdfrwt beam="2">  1       -2 0.21520065E-01 0.99038392E+03</pdfrwt>
<totfact> 0.17204573E+02</totfact>
</mgrwt>
</event>
<event>
 6    1  0.2436515E-005  0.2177923E+04  0.7818608E-02  0.8527673E-01
          2   -1    0    0  501    0  0.00000000000E+00  0.00000000000E+00  0.35908731130E+04  0.35908731130E+04  0.00000000000E+00 0.  1.
         -2   -1    0    0    0  501 -0.00000000000E+00 -0.00000000000E+00 -0.33023655498E+03  0.33023655498E+03  0.00000000000E+00 0. -1.
         23    2    1    2    0    0  0.71630383561E+03 -0.36013031819E+03  0.29544165492E+04  0.30628814204E+04  0.99400295199E+02 0.  0.
         11    1    3    3    0    0  0.38410056920E+03 -0.15009417078E+03  0.13931031579E+04  0.14528585326E+04  0.00000000000E+00 0. -1.
        -11    1    3    3    0    0  0.33220326641E+03 -0.21003614741E+03  0.15613133913E+04  0.16100228878E+04  0.00000000000E+00 0.  1.
         22    1    1    2    0    0 -0.71630383561E+03  0.36013031819E+03  0.30622000881E+03  0.85822824749E+03  0.00000000000E+00 0. -1.
<mgrwt>
<rscale>  0 0.21779234E+04</rscale>
<asrwt>0</asrwt>
<pdfrwt beam="1">  1        2 0.55244199E+00 0.21779234E+04</pdfrwt>
<pdfrwt beam="2">  1       -2 0.50805626E-01 0.21779234E+04</pdfrwt>
<totfact> 0.23607812E+00</totfact>
</mgrwt>
</event>
<event>
 6    1  0.2436515E-005  0.9255748E+03  0.7818608E-02  0.9394164E-01
          2   -1    0    0  501    0  0.00000000000E+00  0.00000000000E+00  0.18344088584E+04  0.18344088584E+04  0.00000000000E+00 0. -1.
         -2   -1    0    0    0  501 -0.00000000000E+00 -0.00000000000E+00 -0.11675270010E+03  0.11675270010E+03  0.00000000000E+00 0.  1.
         23    2    1    2    0    0 -0.20017853914E+03 -0.31680528943E+03  0.14231299190E+04  0.14745246479E+04  0.92125630788E+02 0.  0.
         11    1    3    3    0    0 -0.20104411066E+03 -0.25815155611E+03  0.12147606288E+04  0.12580557800E+04  0.00000000000E+00 0.  1.
        -11    1    3    3    0    0  0.86557151729E+00 -0.58653733319E+02  0.20836929026E+03  0.21646886790E+03  0.00000000000E+00 0. -1.
         22    1    1    2    0    0  0.20017853914E+03  0.31680528943E+03  0.29452623928E+03  0.47663691062E+03  0.00000000000E+00 0.  1.
<mgrwt>
<rscale>  0 0.92557482E+03</rscale>
<asrwt>0</asrwt>
<pdfrwt beam="1">  1        2 0.28221673E+00 0.92557482E+03</pdfrwt>
<pdfrwt beam="2">  1       -2 0.17961955E-01 0.92557482E+03</pdfrwt>
<totfact> 0.21399540E+02</totfact>
</mgrwt>
</event>
<event>
 6    1  0.2436515E-005  0.1787762E+04  0.7818608E-02  0.8712835E-01
          2   -1    0    0  501    0  0.00000000000E+00  0.00000000000E+00  0.21741846151E+04  0.21741846151E+04  0.00000000000E+00 0.  1.
         -2   -1    0    0    0  501 -0.00000000000E+00 -0.00000000000E+00 -0.36750464981E+03  0.36750464981E+03  0.00000000000E+00 0. -1.
         23    2    1    2    0    0  0.46169573854E+03 -0.70151341106E+03  0.48031326296E+03  0.97180625974E+03  0.91774479099E+02 0.  0.
         11    1    3    3    0    0  0.40053792605E+03 -0.55582487610E+03  0.41377193790E+03  0.80036188045E+03  0.00000000000E+00 0.  1.
        -11    1    3    3    0    0  0.61157812487E+02 -0.14568853496E+03  0.66541325066E+02  0.17144437929E+03  0.00000000000E+00 0. -1.
         22    1    1    2    0    0 -0.46169573854E+03  0.70151341106E+03  0.13263667023E+04  0.15698830052E+04  0.00000000000E+00 0.  1.
<mgrwt>
<rscale>  0 0.17877617E+04</rscale>
<asrwt>0</asrwt>
<pdfrwt beam="1">  1        2 0.33448994E+00 0.17877617E+04</pdfrwt>
<pdfrwt beam="2">  1       -2 0.56539178E-01 0.17877617E+04</pdfrwt>
<totfact> 0.14812524E+01</totfact>
</mgrwt>
</event>
<event>
 6    1  0.2436515E-005  0.2143033E+04  0.7818608E-02  0.8542520E-01
         -2   -1    0    0    0  501 -0.00000000000E+00  0.00000000000E+00  0.32108287262E+03  0.32108287262E+03  0.00000000000E+00 0. -1.
          2   -1    0    0  501    0  0.00000000000E+00 -0.00000000000E+00 -0.35758622493E+04  0.35758622493E+04  0.00000000000E+00 0.  1.
         23    2    1    2    0    0 -0.65360060299E+03  0.84438868944E+03 -0.15192653672E+04  0.18592516012E+04  0.91995943887E+02 0.  0.
         13    1    3    3    0    0 -0.15237651401E+03  0.26070297501E+03 -0.40499202506E+03  0.50517638856E+03  0.00000000000E+00 0. -1.
        -13    1    3    3    0    0 -0.50122408898E+03  0.58368571443E+03 -0.11142733421E+04  0.13540752127E+04  0.00000000000E+00 0.  1.
         22    1    1    2    0    0  0.65360060299E+03 -0.84438868944E+03 -0.17355140096E+04  0.20376935207E+04  0.00000000000E+00 0. -1.
<mgrwt>
<rscale>  0 0.21430335E+04</rscale>
<asrwt>0</asrwt>
<pdfrwt beam="1">  1        2 0.55013264E+00 0.21430335E+04</pdfrwt>
<pdfrwt beam="2">  1       -2 0.49397366E-01 0.21430335E+04</pdfrwt>
<totfact> 0.25711026E+00</totfact>
</mgrwt>
</event>
<event>
 6    1  0.2436515E-005  0.1140928E+04  0.7818608E-02  0.9166194E-01
         -2   -1    0    0    0  501 -0.00000000000E+00  0.00000000000E+00  0.79110292395E+03  0.79110292395E+03  0.00000000000E+00 0. -1.
          2   -1    0    0  501    0  0.00000000000E+00 -0.00000000000E+00 -0.41136127359E+03  0.41136127359E+03  0.00000000000E+00 0.  1.
         23    2    1    2    0    0 -0.31207009603E+03  0.35390286171E+03 -0.13878840178E+03  0.50138760021E+03  0.97428562637E+02 0.  0.
         11    1    3    3    0    0 -0.17704395871E+03  0.17730899237E+03 -0.25429196271E+02  0.25185250865E+03  0.00000000000E+00 0. -1.
        -11    1    3    3    0    0 -0.13502613732E+03  0.17659386934E+03 -0.11335920551E+03  0.24953509156E+03  0.00000000000E+00 0.  1.
         22    1    1    2    0    0  0.31207009603E+03 -0.35390286171E+03  0.51853005214E+03  0.70107659733E+03  0.00000000000E+00 0. -1.
<mgrwt>
<rscale>  0 0.11409279E+04</rscale>
<asrwt>0</asrwt>
<pdfrwt beam="1">  1        2 0.63286350E-01 0.11409279E+04</pdfrwt>
<pdfrwt beam="2">  1       -2 0.12170814E+00 0.11409279E+04</pdfrwt>
<totfact> 0.39096476E+01</totfact>
</mgrwt>
</event>
<event>
 6    1  0.2436515E-005  0.3005095E+04  0.7818608E-02  0.8242277E-01
          2   -1    0    0  501    0  0.00000000000E+00  0.00000000000E+00  0.19668830766E+04  0.19668830766E+04  0.00000000000E+00 0.  1.
         -2   -1    0    0    0  501 -0.00000000000E+00 -0.00000000000E+00 -0.11478310445E+04  0.11478310445E+04  0.00000000000E+00 0. -1.
         23    2    1    2    0    0 -0.30965265955E+03 -0.71679411552E+03 -0.91901848994E+03  0.12093092526E+04  0.90306754440E+02 0.  0.
         11    1    3    3    0    0 -0.15373331017E+03 -0.45682274166E+03 -0.53603568189E+03  0.72087113981E+03  0.00000000000E+00 0. -1.
        -11    1    3    3    0    0 -0.15591934937E+03 -0.25997137387E+03 -0.38298280805E+03  0.48843811276E+03  0.00000000000E+00 0.  1.
         22    1    1    2    0    0  0.30965265955E+03  0.71679411552E+03  0.17380705220E+04  0.19054048686E+04  0.00000000000E+00 0.  1.
<mgrwt>
<rscale>  0 0.30050953E+04</rscale>
<asrwt>0</asrwt>
<pdfrwt beam="1">  1        2 0.30259740E+00 0.30050953E+04</pdfrwt>
<pdfrwt beam="2">  1       -2 0.17658939E+00 0.30050953E+04</pdfrwt>
<totfact> 0.11423454E+00</totfact>
</mgrwt>
</event>
<event>
 6    1  0.2436515E-005  0.1026478E+04  0.7818608E-02  0.9279972E-01
          2   -1    0    0  501    0  0.00000000000E+00  0.00000000000E+00  0.81777526264E+03  0.81777526264E+03  0.00000000000E+00 0.  1.
         -2   -1    0    0    0  501 -0.00000000000E+00 -0.00000000000E+00 -0.32211066158E+03  0.32211066158E+03  0.00000000000E+00 0. -1.
         23    2    1    2    0    0  0.13399848280E+03 -0.45566058736E+03  0.45334398271E+03  0.66304926559E+03  0.92365565432E+02 0.  0.
         13    1    3    3    0    0  0.13879830938E+03 -0.41227004018E+03  0.37956556255E+03  0.57732276327E+03  0.00000000000E+00 0. -1.
        -13    1    3    3    0    0 -0.47998265725E+01 -0.43390547188E+02  0.73778420156E+02  0.85726502327E+02  0.00000000000E+00 0.  1.
         22    1    1    2    0    0 -0.13399848280E+03  0.45566058736E+03  0.42320618354E+02  0.47683665862E+03  0.00000000000E+00 0. -1.
<mgrwt>
<rscale>  0 0.10264777E+04</rscale>
<asrwt>0</asrwt>
<pdfrwt beam="1">  1        2 0.12581158E+00 0.10264777E+04</pdfrwt>
<pdfrwt beam="2">  1       -2 0.49555487E-01 0.10264777E+04</pdfrwt>
<totfact> 0.12850630E+02</totfact>
</mgrwt>
</event>
<event>
 6    1  0.2436515E-005  0.2699451E+04  0.7818608E-02  0.8335183E-01
         -2   -1    0    0    0  501 -0.00000000000E+00  0.00000000000E+00  0.98472594335E+03  0.98472594335E+03  0.00000000000E+00 0. -1.
          2   -1    0    0  501    0  0.00000000000E+00 -0.00000000000E+00 -0.18500164377E+04  0.18500164377E+04  0.00000000000E+00 0.  1.
         23    2    1    2    0    0 -0.76672045647E+03  0.79000144823E+03  0.38415862241E+03  0.11694839501E+04  0.90290175062E+02 0.  0.
         11    1    3    3    0    0 -0.28678184691E+03  0.29091227912E+03  0.96806189644E+02  0.41981569791E+03  0.00000000000E+00 0. -1.
        -11    1    3    3    0    0 -0.47993860956E+03  0.49908916910E+03  0.28735243277E+03  0.74966825215E+03  0.00000000000E+00 0.  1.
         22    1    1    2    0    0  0.76672045647E+03 -0.79000144823E+03 -0.12494491167E+04  0.16652584310E+04  0.00000000000E+00 0.  1.
<mgrwt>
<rscale>  0 0.26994512E+04</rscale>
<asrwt>0</asrwt>
<pdfrwt beam="1">  1        2 0.28461791E+00 0.26994512E+04</pdfrwt>
<pdfrwt beam="2">  1       -2 0.15149630E+00 0.26994512E+04</pdfrwt>
<totfact> 0.20726098E+00</totfact>
</mgrwt>
</event>
<event>
 6    1  0.2436515E-005  0.4166051E+04  0.7818608E-02  0.7971862E-01
         -2   -1    0    0    0  501 -0.00000000000E+00  0.00000000000E+00  0.12378610199E+04  0.12378610199E+04  0.00000000000E+00 0. -1.
          2   -1    0    0  501    0  0.00000000000E+00 -0.00000000000E+00 -0.35052358967E+04  0.35052358967E+04  0.00000000000E+00 0.  1.
         23    2    1    2    0    0  0.17952543921E+04 -0.49223392429E+03 -0.72739243728E+02  0.18653098970E+04  0.94114004183E+02 0.  0.
         11    1    3    3    0    0  0.17262665762E+04 -0.45625255217E+03 -0.78686285980E+02  0.17872756404E+04  0.00000000000E+00 0. -1.
        -11    1    3    3    0    0  0.68987815900E+02 -0.35981372120E+02  0.59470422514E+01  0.78034256541E+02  0.00000000000E+00 0.  1.
         22    1    1    2    0    0 -0.17952543921E+04  0.49223392429E+03 -0.21946356331E+04  0.28777870196E+04  0.00000000000E+00 0.  1.
<mgrwt>
<rscale>  0 0.41660508E+04</rscale>
<asrwt>0</asrwt>
<pdfrwt beam="1">  1        2 0.53926706E+00 0.41660508E+04</pdfrwt>
<pdfrwt beam="2">  1       -2 0.19044016E+00 0.41660508E+04</pdfrwt>
<totfact> 0.96422081E-02</totfact>
</mgrwt>
</event>
<event>
 6    1  0.2436515E-005  0.1622458E+04  0.7818608E-02  0.8806869E-01
          2   -1    0    0  501    0  0.00000000000E+00  0.00000000000E+00  0.16766295021E+04  0.16766295021E+04  0.00000000000E+00 0.  1.
         -2   -1    0    0    0  501 -0.00000000000E+00 -0.00000000000E+00 -0.39250898424E+03  0.39250898424E+03  0.00000000000E+00 0. -1.
         23    2    1    2    0    0  0.63225372534E+03  0.47643514263E+03  0.43579918351E+03  0.90880047323E+03  0.96240082376E+02 0.  0.
         13    1    3    3    0    0  0.16580148175E+03  0.15867687182E+03  0.16593391839E+03  0.28320054074E+03  0.00000000000E+00 0.  1.
        -13    1    3    3    0    0  0.46645224359E+03  0.31775827081E+03  0.26986526512E+03  0.62559993249E+03  0.00000000000E+00 0. -1.
         22    1    1    2    0    0 -0.63225372534E+03 -0.47643514263E+03  0.84832133435E+03  0.11603380131E+04  0.00000000000E+00 0.  1.
<mgrwt>
<rscale>  0 0.16224576E+04</rscale>
<asrwt>0</asrwt>
<pdfrwt beam="1">  1        2 0.25794300E+00 0.16224576E+04</pdfrwt>
<pdfrwt beam="2">  1       -2 0.60385998E-01 0.16224576E+04</pdfrwt>
<totfact> 0.24713183E+01</totfact>
</mgrwt>
</event>
<event>
 6    1  0.2436515E-005  0.5579273E+04  0.7818608E-02  0.7744874E-01
          2   -1    0    0  501    0  0.00000000000E+00  0.00000000000E+00  0.30904254344E+04  0.30904254344E+04  0.00000000000E+00 0.  1.
         -2   -1    0    0    0  501 -0.00000000000E+00 -0.00000000000E+00 -0.25181231305E+04  0.25181231305E+04  0.00000000000E+00 0. -1.
         23    2    1    2    0    0 -0.17496332875E+04 -0.21705314379E+04  0.21699748714E+03  0.27980922182E+04  0.99039328922E+02 0.  0.
         11    1    3    3    0    0 -0.11184197560E+04 -0.14556596134E+04  0.16223617211E+03  0.18428587131E+04  0.00000000000E+00 0. -1.
        -11    1    3    3    0    0 -0.63121353151E+03 -0.71487182445E+03  0.54761315029E+02  0.95523350516E+03  0.00000000000E+00 0.  1.
         22    1    1    2    0    0  0.17496332875E+04  0.21705314379E+04  0.35530481673E+03  0.28104563467E+04  0.00000000000E+00 0.  1.
<mgrwt>
<rscale>  0 0.55792730E+04</rscale>
<asrwt>0</asrwt>
<pdfrwt beam="1">  1        2 0.47545007E+00 0.55792730E+04</pdfrwt>
<pdfrwt beam="2">  1       -2 0.38740356E+00 0.55792730E+04</pdfrwt>
<totfact> 0.95173607E-03</totfact>
</mgrwt>
</event>
<event>
 6    1  0.2436515E-005  0.3171308E+04  0.7818608E-02  0.8196436E-01
         -2   -1    0    0    0  501 -0.00000000000E+00  0.00000000000E+00  0.10942353035E+04  0.10942353035E+04  0.00000000000E+00 0.  1.
          2   -1    0    0  501    0  0.00000000000E+00 -0.00000000000E+00 -0.22977673596E+04  0.22977673596E+04  0.00000000000E+00 0. -1.
         23    2    1    2    0    0 -0.30531123992E+03 -0.75193350686E+03  0.85323948424E+03  0.11809105978E+04  0.88956565296E+02 0.  0.
         13    1    3    3    0    0 -0.21343211382E+03 -0.60290203357E+03  0.63684549467E+03  0.90256097488E+03  0.00000000000E+00 0. -1.
        -13    1    3    3    0    0 -0.91879126106E+02 -0.14903147329E+03  0.21639398957E+03  0.27834962290E+03  0.00000000000E+00 0.  1.
         22    1    1    2    0    0  0.30531123992E+03  0.75193350686E+03 -0.20567715403E+04  0.22110920653E+04  0.00000000000E+00 0. -1.
<mgrwt>
<rscale>  0 0.31713077E+04</rscale>
<asrwt>0</asrwt>
<pdfrwt beam="1">  1        2 0.35350267E+00 0.31713077E+04</pdfrwt>
<pdfrwt beam="2">  1       -2 0.16834389E+00 0.31713077E+04</pdfrwt>
<totfact> 0.84049743E-01</totfact>
</mgrwt>
</event>
<event>
 6    1  0.2436515E-005  0.2594016E+04  0.7818608E-02  0.8370237E-01
         -2   -1    0    0    0  501 -0.00000000000E+00  0.00000000000E+00  0.17565548265E+04  0.17565548265E+04  0.00000000000E+00 0. -1.
          2   -1    0    0  501    0  0.00000000000E+00 -0.00000000000E+00 -0.95768732775E+03  0.95768732775E+03  0.00000000000E+00 0.  1.
         23    2    1    2    0    0 -0.15378007691E+02 -0.40856895272E+03 -0.88680461771E+03  0.97969450241E+03  0.78827760416E+02 0.  0.
         11    1    3    3    0    0  0.32381577290E+02 -0.17812530233E+03 -0.38391155685E+03  0.42445880054E+03  0.00000000000E+00 0. -1.
        -11    1    3    3    0    0 -0.47759584981E+02 -0.23044365039E+03 -0.50289306087E+03  0.55523570187E+03  0.00000000000E+00 0.  1.
         22    1    1    2    0    0  0.15378007691E+02  0.40856895272E+03  0.16856721165E+04  0.17345476518E+04  0.00000000000E+00 0. -1.
<mgrwt>
<rscale>  0 0.25940164E+04</rscale>
<asrwt>0</asrwt>
<pdfrwt beam="1">  1        2 0.14733651E+00 0.25940164E+04</pdfrwt>
<pdfrwt beam="2">  1       -2 0.27023920E+00 0.25940164E+04</pdfrwt>
<totfact> 0.11471423E+00</totfact>
</mgrwt>
</event>
<event>
 6    1  0.2436515E-005  0.1918695E+04  0.7818608E-02  0.8645606E-01
          2   -1    0    0  501    0  0.00000000000E+00  0.00000000000E+00  0.20832101446E+04  0.20832101446E+04  0.00000000000E+00 0.  1.
         -2   -1    0    0    0  501 -0.00000000000E+00 -0.00000000000E+00 -0.44179293956E+03  0.44179293956E+03  0.00000000000E+00 0. -1.
         23    2    1    2    0    0  0.86127219233E+03  0.32585736386E+02  0.27436405935E+03  0.90893194631E+03  0.89610414930E+02 0.  0.
         13    1    3    3    0    0  0.56994957097E+03  0.30834664872E+02  0.22460773857E+03  0.61338562604E+03  0.00000000000E+00 0. -1.
        -13    1    3    3    0    0  0.29132262136E+03  0.17510715134E+01  0.49756320775E+02  0.29554632027E+03  0.00000000000E+00 0.  1.
         22    1    1    2    0    0 -0.86127219233E+03 -0.32585736386E+02  0.13670531457E+04  0.16160711379E+04  0.00000000000E+00 0.  1.
<mgrwt>
<rscale>  0 0.19186949E+04</rscale>
<asrwt>0</asrwt>
<pdfrwt beam="1">  1        2 0.32049386E+00 0.19186949E+04</pdfrwt>
<pdfrwt beam="2">  1       -2 0.67968146E-01 0.19186949E+04</pdfrwt>
<totfact> 0.11129682E+01</totfact>
</mgrwt>
</event>
<event>
 6    1  0.2436515E-005  0.2467894E+04  0.7818608E-02  0.8414514E-01
          2   -1    0    0  501    0  0.00000000000E+00  0.00000000000E+00  0.20019090094E+04  0.20019090094E+04  0.00000000000E+00 0.  1.
         -2   -1    0    0    0  501 -0.00000000000E+00 -0.00000000000E+00 -0.76058644445E+03  0.76058644445E+03  0.00000000000E+00 0. -1.
         23    2    1    2    0    0  0.77197887578E+03  0.40880857678E+03  0.15944020427E+04  0.18202953929E+04  0.91003332925E+02 0.  0.
         11    1    3    3    0    0  0.40508764476E+03  0.18002231280E+03  0.87707452592E+03  0.98273280044E+03  0.00000000000E+00 0. -1.
        -11    1    3    3    0    0  0.36689123102E+03  0.22878626397E+03  0.71732751679E+03  0.83756259248E+03  0.00000000000E+00 0.  1.
         22    1    1    2    0    0 -0.77197887578E+03 -0.40880857678E+03 -0.35307947780E+03  0.94220006089E+03  0.00000000000E+00 0. -1.
<mgrwt>
<rscale>  0 0.24678937E+04</rscale>
<asrwt>0</asrwt>
<pdfrwt beam="1">  1        2 0.30798600E+00 0.24678937E+04</pdfrwt>
<pdfrwt beam="2">  1       -2 0.11701330E+00 0.24678937E+04</pdfrwt>
<totfact> 0.33680866E+00</totfact>
</mgrwt>
</event>
<event>
 6    1  0.2436515E-005  0.1237633E+04  0.7818608E-02  0.9080540E-01
         -2   -1    0    0    0  501 -0.00000000000E+00  0.00000000000E+00  0.47762115412E+03  0.47762115412E+03  0.00000000000E+00 0. -1.
          2   -1    0    0  501    0  0.00000000000E+00 -0.00000000000E+00 -0.80175205995E+03  0.80175205995E+03  0.00000000000E+00 0.  1.
         23    2    1    2    0    0  0.42040052225E+03 -0.44614787892E+03 -0.21955311576E+03  0.65750422211E+03  0.91234327318E+02 0.  0.
         13    1    3    3    0    0  0.10333636280E+03 -0.14686542721E+03 -0.29946552035E+02  0.18205673172E+03  0.00000000000E+00 0. -1.
        -13    1    3    3    0    0  0.31706415946E+03 -0.29928245171E+03 -0.18960656373E+03  0.47544749039E+03  0.00000000000E+00 0.  1.
         22    1    1    2    0    0 -0.42040052225E+03  0.44614787892E+03 -0.10457779007E+03  0.62186899195E+03  0.00000000000E+00 0.  1.
<mgrwt>
<rscale>  0 0.12376328E+04</rscale>
<asrwt>0</asrwt>
<pdfrwt beam="1">  1        2 0.12334647E+00 0.12376328E+04</pdfrwt>
<pdfrwt beam="2">  1       -2 0.73480179E-01 0.12376328E+04</pdfrwt>
<totfact> 0.56512105E+01</totfact>
</mgrwt>
</event>
<event>
 6    1  0.2436515E-005  0.4782864E+04  0.7818608E-02  0.7862904E-01
          2   -1    0    0  501    0  0.00000000000E+00  0.00000000000E+00  0.26021723742E+04  0.26021723742E+04  0.00000000000E+00 0.  1.
         -2   -1    0    0    0  501 -0.00000000000E+00 -0.00000000000E+00 -0.21977591314E+04  0.21977591314E+04  0.00000000000E+00 0. -1.
         23    2    1    2    0    0  0.73036591336E+03  0.22762657086E+04  0.21053551790E+03  0.24015135863E+04  0.90124123952E+02 0.  0.
         13    1    3    3    0    0  0.23502607244E+03  0.81157604085E+03  0.38620252197E+02  0.84580402499E+03  0.00000000000E+00 0. -1.
        -13    1    3    3    0    0  0.49533984092E+03  0.14646896677E+04  0.17191526570E+03  0.15557095613E+04  0.00000000000E+00 0.  1.
         22    1    1    2    0    0 -0.73036591336E+03 -0.22762657086E+04  0.19387772496E+03  0.23984179193E+04  0.00000000000E+00 0.  1.
<mgrwt>
<rscale>  0 0.47828645E+04</rscale>
<asrwt>0</asrwt>
<pdfrwt beam="1">  1        2 0.40033421E+00 0.47828645E+04</pdfrwt>
<pdfrwt beam="2">  1       -2 0.33811679E+00 0.47828645E+04</pdfrwt>
<totfact> 0.41521731E-02</totfact>
</mgrwt>
</event>
<event>
 6    1  0.2436515E-005  0.9549299E+03  0.7818608E-02  0.9359407E-01
         -2   -1    0    0    0  501 -0.00000000000E+00  0.00000000000E+00  0.37553833785E+03  0.37553833785E+03  0.00000000000E+00 0. -1.
          2   -1    0    0  501    0  0.00000000000E+00 -0.00000000000E+00 -0.60705595127E+03  0.60705595127E+03  0.00000000000E+00 0.  1.
         23    2    1    2    0    0 -0.68835177174E+02  0.21017562847E+03 -0.54681198004E+03  0.59746753850E+03  0.95142217883E+02 0.  0.
         13    1    3    3    0    0 -0.26529446507E+02  0.10460629942E+03 -0.15072694205E+03  0.18537772377E+03  0.00000000000E+00 0. -1.
        -13    1    3    3    0    0 -0.42305730667E+02  0.10556932906E+03 -0.39608503799E+03  0.41208981473E+03  0.00000000000E+00 0.  1.
         22    1    1    2    0    0  0.68835177174E+02 -0.21017562847E+03  0.31529436662E+03  0.38512675062E+03  0.00000000000E+00 0. -1.
<mgrwt>
<rscale>  0 0.95492991E+03</rscale>
<asrwt>0</asrwt>
<pdfrwt beam="1">  1        2 0.93393222E-01 0.95492991E+03</pdfrwt>
<pdfrwt beam="2">  1       -2 0.57775130E-01 0.95492991E+03</pdfrwt>
<totfact> 0.13731245E+02</totfact>
</mgrwt>
</event>
<event>
 6    1  0.2436515E-005  0.3387798E+04  0.7818608E-02  0.8140907E-01
          2   -1    0    0  501    0  0.00000000000E+00  0.00000000000E+00  0.23674203965E+04  0.23674203965E+04  0.00000000000E+00 0.  1.
         -2   -1    0    0    0  501 -0.00000000000E+00 -0.00000000000E+00 -0.12119919703E+04  0.12119919703E+04  0.00000000000E+00 0. -1.
         23    2    1    2    0    0 -0.89645291577E+03 -0.24300046432E+03 -0.91683367849E+03  0.13085210691E+04  0.94690751035E+02 0.  0.
         11    1    3    3    0    0 -0.21423564842E+03 -0.17032034438E+02 -0.21617145244E+03  0.30482306360E+03  0.00000000000E+00 0.  1.
        -11    1    3    3    0    0 -0.68221726735E+03 -0.22596842988E+03 -0.70066222605E+03  0.10036980055E+04  0.00000000000E+00 0. -1.
         22    1    1    2    0    0  0.89645291577E+03  0.24300046432E+03  0.20722621047E+04  0.22708912978E+04  0.00000000000E+00 0.  1.
<mgrwt>
<rscale>  0 0.33877984E+04</rscale>
<asrwt>0</asrwt>
<pdfrwt beam="1">  1        2 0.36421852E+00 0.33877984E+04</pdfrwt>
<pdfrwt beam="2">  1       -2 0.18646030E+00 0.33877984E+04</pdfrwt>
<totfact> 0.56355024E-01</totfact>
</mgrwt>
</event>
<event>
 6    1  0.2436515E-005  0.5956661E+03  0.7818608E-02  0.9914439E-01
         -2   -1    0    0    0  501 -0.00000000000E+00  0.00000000000E+00  0.35234321917E+02  0.35234321917E+02  0.00000000000E+00 0. -1.
          2   -1    0    0  501    0  0.00000000000E+00 -0.00000000000E+00 -0.25175600024E+04  0.25175600024E+04  0.00000000000E+00 0.  1.
         23    2    1    2    0    0  0.15006468795E+03  0.19171838003E+03 -0.19527719179E+04  0.19699542645E+04  0.90145955428E+02 0.  0.
         11    1    3    3    0    0  0.24773043156E+02  0.10265795570E+03 -0.74960263430E+03  0.75700493319E+03  0.00000000000E+00 0. -1.
        -11    1    3    3    0    0  0.12529164479E+03  0.89060424329E+02 -0.12031692836E+04  0.12129493313E+04  0.00000000000E+00 0.  1.
         22    1    1    2    0    0 -0.15006468795E+03 -0.19171838003E+03 -0.52955376267E+03  0.58284005986E+03  0.00000000000E+00 0. -1.
<mgrwt>
<rscale>  0 0.59566608E+03</rscale>
<asrwt>0</asrwt>
<pdfrwt beam="1">  1        2 0.38731691E+00 0.59566608E+03</pdfrwt>
<pdfrwt beam="2">  1       -2 0.54206651E-02 0.59566608E+03</pdfrwt>
<totfact> 0.65125923E+02</totfact>
</mgrwt>
</event>
<event>
 6    1  0.2436515E-005  0.2144105E+04  0.7818608E-02  0.8542060E-01
          2   -1    0    0  501    0  0.00000000000E+00  0.00000000000E+00  0.82248785244E+03  0.82248785244E+03  0.00000000000E+00 0.  1.
         -2   -1    0    0    0  501 -0.00000000000E+00 -0.00000000000E+00 -0.13973419843E+04  0.13973419843E+04  0.00000000000E+00 0. -1.
         23    2    1    2    0    0  0.46928176911E+03 -0.96159504042E+03 -0.29444739514E+03  0.11137022046E+04  0.93503644512E+02 0.  0.
         11    1    3    3    0    0  0.25410357233E+03 -0.54161384641E+03 -0.11729204827E+03  0.60964875845E+03  0.00000000000E+00 0.  1.
        -11    1    3    3    0    0  0.21517819678E+03 -0.41998119402E+03 -0.17715534687E+03  0.50405344619E+03  0.00000000000E+00 0. -1.
         22    1    1    2    0    0 -0.46928176911E+03  0.96159504042E+03 -0.28040673677E+03  0.11061276321E+04  0.00000000000E+00 0. -1.
<mgrwt>
<rscale>  0 0.21441052E+04</rscale>
<asrwt>0</asrwt>
<pdfrwt beam="1">  1        2 0.12653659E+00 0.21441052E+04</pdfrwt>
<pdfrwt beam="2">  1       -2 0.21497569E+00 0.21441052E+04</pdfrwt>
<totfact> 0.32409217E+00</totfact>
</mgrwt>
</event>
<event>
 6    1  0.2436515E-005  0.5331166E+04  0.7818608E-02  0.7779358E-01
          2   -1    0    0  501    0  0.00000000000E+00  0.00000000000E+00  0.39097197669E+04  0.39097197669E+04  0.00000000000E+00 0.  1.
         -2   -1    0    0    0  501 -0.00000000000E+00 -0.00000000000E+00 -0.18173511935E+04  0.18173511935E+04  0.00000000000E+00 0. -1.
         23    2    1    2    0    0  0.14195508819E+04 -0.17523377095E+04  0.25715398525E+04  0.34215520884E+04  0.91593265442E+02 0.  0.
         11    1    3    3    0    0  0.81527356270E+03 -0.93913284271E+03  0.13915799763E+04  0.18663162403E+04  0.00000000000E+00 0. -1.
        -11    1    3    3    0    0  0.60427731921E+03 -0.81320486678E+03  0.11799598762E+04  0.15552358481E+04  0.00000000000E+00 0.  1.
         22    1    1    2    0    0 -0.14195508819E+04  0.17523377095E+04 -0.47917127910E+03  0.23055188720E+04  0.00000000000E+00 0. -1.
<mgrwt>
<rscale>  0 0.53311664E+04</rscale>
<asrwt>0</asrwt>
<pdfrwt beam="1">  1        2 0.60149535E+00 0.53311664E+04</pdfrwt>
<pdfrwt beam="2">  1       -2 0.27959249E+00 0.53311664E+04</pdfrwt>
<totfact> 0.12080255E-02</totfact>
</mgrwt>
</event>
<event>
 6    1  0.2436515E-005  0.1445210E+04  0.7818608E-02  0.8921728E-01
          2   -1    0    0  501    0  0.00000000000E+00  0.00000000000E+00  0.10599603321E+04  0.10599603321E+04  0.00000000000E+00 0.  1.
         -2   -1    0    0    0  501 -0.00000000000E+00 -0.00000000000E+00 -0.49262016098E+03  0.49262016098E+03  0.00000000000E+00 0. -1.
         23    2    1    2    0    0  0.25577886472E+03  0.68094477042E+02 -0.43428866595E+03  0.51656890402E+03  0.90427328742E+02 0.  0.
         13    1    3    3    0    0  0.11797005648E+03  0.32515337286E+02 -0.11921682150E+03  0.17084154036E+03  0.00000000000E+00 0.  1.
        -13    1    3    3    0    0  0.13780880824E+03  0.35579139757E+02 -0.31507184445E+03  0.34572736366E+03  0.00000000000E+00 0. -1.
         22    1    1    2    0    0 -0.25577886472E+03 -0.68094477042E+02  0.10016288371E+04  0.10360115891E+04  0.00000000000E+00 0.  1.
<mgrwt>
<rscale>  0 0.14452098E+04</rscale>
<asrwt>0</asrwt>
<pdfrwt beam="1">  1        2 0.16307082E+00 0.14452098E+04</pdfrwt>
<pdfrwt beam="2">  1       -2 0.75787717E-01 0.14452098E+04</pdfrwt>
<totfact> 0.34929776E+01</totfact>
</mgrwt>
</event>
<event>
 6    1  0.2436515E-005  0.3498372E+04  0.7818608E-02  0.8114176E-01
          2   -1    0    0  501    0  0.00000000000E+00  0.00000000000E+00  0.39366395532E+04  0.39366395532E+04  0.00000000000E+00 0.  1.
         -2   -1    0    0    0  501 -0.00000000000E+00 -0.00000000000E+00 -0.77722420467E+03  0.77722420467E+03  0.00000000000E+00 0. -1.
         23    2    1    2    0    0 -0.11544651801E+04 -0.92697237759E+03  0.28328205005E+04  0.31977068281E+04  0.91593285183E+02 0.  0.
         11    1    3    3    0    0 -0.26221220807E+03 -0.22712787296E+03  0.74504704499E+03  0.82184999360E+03  0.00000000000E+00 0. -1.
        -11    1    3    3    0    0 -0.89225297198E+03 -0.69984450463E+03  0.20877734555E+04  0.23758568345E+04  0.00000000000E+00 0.  1.
         22    1    1    2    0    0  0.11544651801E+04  0.92697237759E+03  0.32659484800E+03  0.15161569297E+04  0.00000000000E+00 0. -1.
<mgrwt>
<rscale>  0 0.34983719E+04</rscale>
<asrwt>0</asrwt>
<pdfrwt beam="1">  1        2 0.60563684E+00 0.34983719E+04</pdfrwt>
<pdfrwt beam="2">  1       -2 0.11957296E+00 0.34983719E+04</pdfrwt>
<totfact> 0.16890019E-01</totfact>
</mgrwt>
</event>
<event>
 6    1  0.2436515E-005  0.5065473E+03  0.7818608E-02  0.1012084E+00
         -2   -1    0    0    0  501 -0.00000000000E+00  0.00000000000E+00  0.64044374928E+02  0.64044374928E+02  0.00000000000E+00 0. -1.
          2   -1    0    0  501    0  0.00000000000E+00 -0.00000000000E+00 -0.10016109376E+04  0.10016109376E+04  0.00000000000E+00 0.  1.
         23    2    1    2    0    0  0.43352968159E+02  0.28203292776E+02 -0.98799778660E+03  0.99341810663E+03  0.89805359929E+02 0.  0.
         13    1    3    3    0    0  0.46231825418E+02 -0.18859329593E+02 -0.33265784491E+03  0.33638415209E+03  0.00000000000E+00 0.  1.
        -13    1    3    3    0    0 -0.28788572583E+01  0.47062622369E+02 -0.65533994169E+03  0.65703395454E+03  0.00000000000E+00 0. -1.
         22    1    1    2    0    0 -0.43352968159E+02 -0.28203292776E+02  0.50431223920E+02  0.72237205911E+02  0.00000000000E+00 0. -1.
<mgrwt>
<rscale>  0 0.50654732E+03</rscale>
<asrwt>0</asrwt>
<pdfrwt beam="1">  1        2 0.15409400E+00 0.50654732E+03</pdfrwt>
<pdfrwt beam="2">  1       -2 0.98529801E-02 0.50654732E+03</pdfrwt>
<totfact> 0.17784699E+03</totfact>
</mgrwt>
</event>
<event>
 6    1  0.2436515E-005  0.2293365E+04  0.7818608E-02  0.8480542E-01
          2   -1    0    0  501    0  0.00000000000E+00  0.00000000000E+00  0.16089963667E+04  0.16089963667E+04  0.00000000000E+00 0.  1.
         -2   -1    0    0    0  501 -0.00000000000E+00 -0.00000000000E+00 -0.81720581097E+03  0.81720581097E+03  0.00000000000E+00 0. -1.
         23    2    1    2    0    0 -0.11221782012E+04 -0.67097751801E+02  0.16723037541E+03  0.11401767338E+04  0.90834807779E+02 0.  0.
         11    1    3    3    0    0 -0.48549685233E+03 -0.17765114913E+02  0.11637154750E+03  0.49956494072E+03  0.00000000000E+00 0.  1.
        -11    1    3    3    0    0 -0.63668134885E+03 -0.49332636888E+02  0.50858827910E+02  0.64061179307E+03  0.00000000000E+00 0. -1.
         22    1    1    2    0    0  0.11221782012E+04  0.67097751801E+02  0.62456018034E+03  0.12860254439E+04  0.00000000000E+00 0.  1.
<mgrwt>
<rscale>  0 0.22933654E+04</rscale>
<asrwt>0</asrwt>
<pdfrwt beam="1">  1        2 0.24753790E+00 0.22933654E+04</pdfrwt>
<pdfrwt beam="2">  1       -2 0.12572397E+00 0.22933654E+04</pdfrwt>
<totfact> 0.47261018E+00</totfact>
</mgrwt>
</event>
<event>
 6    1  0.2436515E-005  0.4279589E+04  0.7818608E-02  0.7950403E-01
         -2   -1    0    0    0  501 -0.00000000000E+00  0.00000000000E+00  0.12494842096E+04  0.12494842096E+04  0.00000000000E+00 0. -1.
          2   -1    0    0  501    0  0.00000000000E+00 -0.00000000000E+00 -0.36644882838E+04  0.36644882838E+04  0.00000000000E+00 0.  1.
         23    2    1    2    0    0  0.13732103208E+03  0.68640855361E+03  0.11127201142E+04  0.13174670064E+04  0.86945340443E+02 0.  0.
         11    1    3    3    0    0  0.14799798572E+02  0.29168991077E+03  0.46640002025E+03  0.55030084224E+03  0.00000000000E+00 0. -1.
        -11    1    3    3    0    0  0.12252123351E+03  0.39471864284E+03  0.64632009391E+03  0.76716616418E+03  0.00000000000E+00 0.  1.
         22    1    1    2    0    0 -0.13732103208E+03 -0.68640855361E+03 -0.35277241884E+04  0.35965054869E+04  0.00000000000E+00 0.  1.
<mgrwt>
<rscale>  0 0.42795889E+04</rscale>
<asrwt>0</asrwt>
<pdfrwt beam="1">  1        2 0.56376742E+00 0.42795889E+04</pdfrwt>
<pdfrwt beam="2">  1       -2 0.19222834E+00 0.42795889E+04</pdfrwt>
<totfact> 0.71428159E-02</totfact>
</mgrwt>
</event>
<event>
 6    1  0.2436515E-005  0.2127286E+04  0.7818608E-02  0.8549318E-01
         -2   -1    0    0    0  501 -0.00000000000E+00  0.00000000000E+00  0.50977755168E+03  0.50977755168E+03  0.00000000000E+00 0. -1.
          2   -1    0    0  501    0  0.00000000000E+00 -0.00000000000E+00 -0.22192747384E+04  0.22192747384E+04  0.00000000000E+00 0.  1.
         23    2    1    2    0    0  0.52425437074E+03  0.27958787916E+03 -0.19850230571E+04  0.20741274603E+04  0.93145890395E+02 0.  0.
         11    1    3    3    0    0  0.26096379173E+03  0.13854906411E+03 -0.11478613262E+04  0.11852778442E+04  0.00000000000E+00 0. -1.
        -11    1    3    3    0    0  0.26329057902E+03  0.14103881504E+03 -0.83716173095E+03  0.88884961614E+03  0.00000000000E+00 0.  1.
         22    1    1    2    0    0 -0.52425437074E+03 -0.27958787916E+03  0.27552587038E+03  0.65492482978E+03  0.00000000000E+00 0. -1.
<mgrwt>
<rscale>  0 0.21272860E+04</rscale>
<asrwt>0</asrwt>
<pdfrwt beam="1">  1        2 0.34142688E+00 0.21272860E+04</pdfrwt>
<pdfrwt beam="2">  1       -2 0.78427316E-01 0.21272860E+04</pdfrwt>
<totfact> 0.66927515E+00</totfact>
</mgrwt>
</event>
<event>
 6    1  0.2436515E-005  0.1712014E+04  0.7818608E-02  0.8754542E-01
          2   -1    0    0  501    0  0.00000000000E+00  0.00000000000E+00  0.97504279215E+03  0.97504279215E+03  0.00000000000E+00 0. -1.
         -2   -1    0    0    0  501 -0.00000000000E+00 -0.00000000000E+00 -0.75150313262E+03  0.75150313262E+03  0.00000000000E+00 0.  1.
         23    2    1    2    0    0  0.63265455581E+03 -0.45372254812E+03  0.46533977798E+03  0.91132617836E+03  0.88647372963E+02 0.  0.
         11    1    3    3    0    0  0.32093633070E+03 -0.26808414288E+03  0.21217936865E+03  0.46892357641E+03  0.00000000000E+00 0. -1.
        -11    1    3    3    0    0  0.31171822510E+03 -0.18563840525E+03  0.25316040933E+03  0.44240260195E+03  0.00000000000E+00 0.  1.
         22    1    1    2    0    0 -0.63265455581E+03  0.45372254812E+03 -0.24180011845E+03  0.81521974641E+03  0.00000000000E+00 0. -1.
<mgrwt>
<rscale>  0 0.17120137E+04</rscale>
<asrwt>0</asrwt>
<pdfrwt beam="1">  1        2 0.15000658E+00 0.17120137E+04</pdfrwt>
<pdfrwt beam="2">  1       -2 0.11561587E+00 0.17120137E+04</pdfrwt>
<totfact> 0.14465700E+01</totfact>
</mgrwt>
</event>
<event>
 6    1  0.2436515E-005  0.1692220E+04  0.7818608E-02  0.8765814E-01
         -2   -1    0    0    0  501 -0.00000000000E+00  0.00000000000E+00  0.22722817250E+03  0.22722817250E+03  0.00000000000E+00 0. -1.
          2   -1    0    0  501    0  0.00000000000E+00 -0.00000000000E+00 -0.31505879956E+04  0.31505879956E+04  0.00000000000E+00 0.  1.
         23    2    1    2    0    0  0.74120811888E+03 -0.73154724731E+02 -0.22564558778E+04  0.23780652184E+04  0.94127387770E+02 0.  0.
         13    1    3    3    0    0  0.62135669824E+03 -0.31058015779E+02 -0.18129204280E+04  0.19166974788E+04  0.00000000000E+00 0.  1.
        -13    1    3    3    0    0  0.11985142064E+03 -0.42096708952E+02 -0.44353544977E+03  0.46136773959E+03  0.00000000000E+00 0. -1.
         22    1    1    2    0    0 -0.74120811888E+03  0.73154724731E+02 -0.66690394533E+03  0.99975094976E+03  0.00000000000E+00 0. -1.
<mgrwt>
<rscale>  0 0.16922203E+04</rscale>
<asrwt>0</asrwt>
<pdfrwt beam="1">  1        2 0.48470580E+00 0.16922203E+04</pdfrwt>
<pdfrwt beam="2">  1       -2 0.34958184E-01 0.16922203E+04</pdfrwt>
<totfact> 0.10271978E+01</totfact>
</mgrwt>
</event>
<event>
 6    1  0.2436515E-005  0.1464361E+04  0.7818608E-02  0.8908505E-01
          2   -1    0    0  501    0  0.00000000000E+00  0.00000000000E+00  0.22193854945E+04  0.22193854945E+04  0.00000000000E+00 0.  1.
         -2   -1    0    0    0  501 -0.00000000000E+00 -0.00000000000E+00 -0.24154796640E+03  0.24154796640E+03  0.00000000000E+00 0. -1.
         23    2    1    2    0    0 -0.29801708132E+03  0.22426242686E+02  0.21108868717E+04  0.21337955007E+04  0.89009754868E+02 0.  0.
         11    1    3    3    0    0 -0.27930613887E+02 -0.25039491899E+02  0.27174297033E+03  0.27431977193E+03  0.00000000000E+00 0. -1.
        -11    1    3    3    0    0 -0.27008646744E+03  0.47465734585E+02  0.18391439014E+04  0.18594757288E+04  0.00000000000E+00 0.  1.
         22    1    1    2    0    0  0.29801708132E+03 -0.22426242686E+02 -0.13304934367E+03  0.32713796015E+03  0.00000000000E+00 0. -1.
<mgrwt>
<rscale>  0 0.14643607E+04</rscale>
<asrwt>0</asrwt>
<pdfrwt beam="1">  1        2 0.34144391E+00 0.14643607E+04</pdfrwt>
<pdfrwt beam="2">  1       -2 0.37161227E-01 0.14643607E+04</pdfrwt>
<totfact> 0.33343651E+01</totfact>
</mgrwt>
</event>
<event>
 6    1  0.2836109E-005  0.5208135E+04  0.7818608E-02  0.7797179E-01
         -2   -1    0    0    0  501 -0.00000000000E+00  0.00000000000E+00  0.40396504315E+04  0.40396504315E+04  0.00000000000E+00 0. -1.
          2   -1    0    0  501    0  0.00000000000E+00 -0.00000000000E+00 -0.16786517699E+04  0.16786517699E+04  0.00000000000E+00 0.  1.
         23    2    1    2    0    0  0.66114130263E+03  0.28304462706E+03  0.39279291849E+04  0.39942101656E+04  0.88685298879E+02 0.  0.
         11    1    3    3    0    0  0.31480377593E+03  0.15727873928E+03  0.21354579139E+04  0.21642593470E+04  0.00000000000E+00 0.  1.
        -11    1    3    3    0    0  0.34633752670E+03  0.12576588778E+03  0.17924712710E+04  0.18299508185E+04  0.00000000000E+00 0. -1.
         22    1    1    2    0    0 -0.66114130263E+03 -0.28304462706E+03 -0.15669305233E+04  0.17240920358E+04  0.00000000000E+00 0.  1.
<mgrwt>
<rscale>  0 0.52081345E+04</rscale>
<asrwt>0</asrwt>
<pdfrwt beam="1">  1        2 0.25825412E+00 0.52081345E+04</pdfrwt>
<pdfrwt beam="2">  1       -2 0.62148468E+00 0.52081345E+04</pdfrwt>
<totfact> 0.30817551E-03</totfact>
</mgrwt>
</event>
<event>
 6    1  0.5781264E-005  0.3629382E+04  0.7818608E-02  0.8083794E-01
          2   -1    0    0  501    0  0.00000000000E+00  0.00000000000E+00  0.18744360415E+04  0.18744360415E+04  0.00000000000E+00 0.  1.
         -2   -1    0    0    0  501 -0.00000000000E+00 -0.00000000000E+00 -0.17568506440E+04  0.17568506440E+04  0.00000000000E+00 0. -1.
         23    2    1    2    0    0 -0.11708267462E+04 -0.22222204052E+03  0.14264593205E+04  0.18611542466E+04  0.94292267086E+02 0.  0.
         11    1    3    3    0    0 -0.60936612228E+03 -0.10951189420E+03  0.66812781210E+03  0.91088676533E+03  0.00000000000E+00 0. -1.
        -11    1    3    3    0    0 -0.56146062390E+03 -0.11271014632E+03  0.75833150839E+03  0.95026748124E+03  0.00000000000E+00 0.  1.
         22    1    1    2    0    0  0.11708267462E+04  0.22222204052E+03 -0.13088739231E+04  0.17701324389E+04  0.00000000000E+00 0. -1.
<mgrwt>
<rscale>  0 0.36293824E+04</rscale>
<asrwt>0</asrwt>
<pdfrwt beam="1">  1        2 0.28837478E+00 0.36293824E+04</pdfrwt>
<pdfrwt beam="2">  1       -2 0.27028471E+00 0.36293824E+04</pdfrwt>
<totfact> 0.30795510E-01</totfact>
</mgrwt>
</event>
<event>
 6    1  0.2436515E-005  0.3751773E+04  0.7818608E-02  0.8056584E-01
         -2   -1    0    0    0  501 -0.00000000000E+00  0.00000000000E+00  0.16146472926E+04  0.16146472926E+04  0.00000000000E+00 0. -1.
          2   -1    0    0  501    0  0.00000000000E+00 -0.00000000000E+00 -0.21793923007E+04  0.21793923007E+04  0.00000000000E+00 0.  1.
         23    2    1    2    0    0 -0.58924339268E+03 -0.59277170204E+03 -0.19795531808E+04  0.21507903024E+04  0.93177585992E+02 0.  0.
         13    1    3    3    0    0 -0.31971188670E+03 -0.38252691285E+03 -0.11335577645E+04  0.12383439486E+04  0.00000000000E+00 0. -1.
        -13    1    3    3    0    0 -0.26953150598E+03 -0.21024478919E+03 -0.84599541630E+03  0.91244635376E+03  0.00000000000E+00 0.  1.
         22    1    1    2    0    0  0.58924339268E+03  0.59277170204E+03  0.14148081727E+04  0.16432492909E+04  0.00000000000E+00 0. -1.
<mgrwt>
<rscale>  0 0.37517728E+04</rscale>
<asrwt>0</asrwt>
<pdfrwt beam="1">  1        2 0.33529112E+00 0.37517728E+04</pdfrwt>
<pdfrwt beam="2">  1       -2 0.24840727E+00 0.37517728E+04</pdfrwt>
<totfact> 0.28063483E-01</totfact>
</mgrwt>
</event>
<event>
 6    1  0.2436515E-005  0.6797649E+04  0.7818608E-02  0.7598672E-01
          2   -1    0    0  501    0  0.00000000000E+00  0.00000000000E+00  0.49286523461E+04  0.49286523461E+04  0.00000000000E+00 0.  1.
         -2   -1    0    0    0  501 -0.00000000000E+00 -0.00000000000E+00 -0.23438469596E+04  0.23438469596E+04  0.00000000000E+00 0. -1.
         23    2    1    2    0    0 -0.23277161862E+04  0.24603218519E+03  0.39285328129E+04  0.45735369354E+04  0.71242945476E+02 0.  0.
         13    1    3    3    0    0 -0.63263123060E+03  0.56154919769E+02  0.10083755878E+04  0.11917201748E+04  0.00000000000E+00 0. -1.
        -13    1    3    3    0    0 -0.16950849556E+04  0.18987726542E+03  0.29201572251E+04  0.33818167606E+04  0.00000000000E+00 0.  1.
         22    1    1    2    0    0  0.23277161862E+04 -0.24603218519E+03 -0.13437274264E+04  0.26989623703E+04  0.00000000000E+00 0. -1.
<mgrwt>
<rscale>  0 0.67976487E+04</rscale>
<asrwt>0</asrwt>
<pdfrwt beam="1">  1        2 0.75825421E+00 0.67976487E+04</pdfrwt>
<pdfrwt beam="2">  1       -2 0.36059184E+00 0.67976487E+04</pdfrwt>
<totfact> 0.34750866E-04</totfact>
</mgrwt>
</event>
<event>
 6    1  0.2436515E-005  0.2764562E+04  0.7818608E-02  0.8314356E-01
          2   -1    0    0  501    0  0.00000000000E+00  0.00000000000E+00  0.43170941786E+04  0.43170941786E+04  0.00000000000E+00 0.  1.
         -2   -1    0    0    0  501 -0.00000000000E+00 -0.00000000000E+00 -0.44258967199E+03  0.44258967199E+03  0.00000000000E+00 0. -1.
         23    2    1    2    0    0  0.11546445472E+04 -0.31080424994E+03  0.75122109109E+03  0.14153300108E+04  0.94987365490E+02 0.  0.
         11    1    3    3    0    0  0.27229322179E+03 -0.54174718689E+02  0.13326241833E+03  0.30795676794E+03  0.00000000000E+00 0. -1.
        -11    1    3    3    0    0  0.88235132539E+03 -0.25662953125E+03  0.61795867277E+03  0.11073732428E+04  0.00000000000E+00 0.  1.
         22    1    1    2    0    0 -0.11546445472E+04  0.31080424994E+03  0.31232834156E+04  0.33443538398E+04  0.00000000000E+00 0.  1.
<mgrwt>
<rscale>  0 0.27645624E+04</rscale>
<asrwt>0</asrwt>
<pdfrwt beam="1">  1        2 0.66416831E+00 0.27645624E+04</pdfrwt>
<pdfrwt beam="2">  1       -2 0.68090722E-01 0.27645624E+04</pdfrwt>
<totfact> 0.31589441E-01</totfact>
</mgrwt>
</event>
<event>
 6    1  0.2436515E-005  0.1258721E+04  0.7818608E-02  0.9062956E-01
          2   -1    0    0  501    0  0.00000000000E+00  0.00000000000E+00  0.34189601776E+04  0.34189601776E+04  0.00000000000E+00 0.  1.
         -2   -1    0    0    0  501 -0.00000000000E+00 -0.00000000000E+00 -0.11585234272E+03  0.11585234272E+03  0.00000000000E+00 0. -1.
         23    2    1    2    0    0  0.54872735526E+03  0.24012148505E+02  0.81646203756E+03  0.98822939484E+03  0.91152533512E+02 0.  0.
         13    1    3    3    0    0  0.24020599432E+03  0.55811445204E+02  0.35968135649E+03  0.43610149659E+03  0.00000000000E+00 0. -1.
        -13    1    3    3    0    0  0.30852136094E+03 -0.31799296700E+02  0.45678068107E+03  0.55212789825E+03  0.00000000000E+00 0.  1.
         22    1    1    2    0    0 -0.54872735526E+03 -0.24012148505E+02  0.24866457973E+04  0.25465831254E+04  0.00000000000E+00 0.  1.
<mgrwt>
<rscale>  0 0.12587209E+04</rscale>
<asrwt>0</asrwt>
<pdfrwt beam="1">  1        2 0.52599380E+00 0.12587209E+04</pdfrwt>
<pdfrwt beam="2">  1       -2 0.17823440E-01 0.12587209E+04</pdfrwt>
<totfact> 0.24271140E+01</totfact>
</mgrwt>
</event>
<event>
 6    1  0.2436515E-005  0.3725822E+04  0.7818608E-02  0.8062263E-01
         -2   -1    0    0    0  501 -0.00000000000E+00  0.00000000000E+00  0.14126247776E+04  0.14126247776E+04  0.00000000000E+00 0.  1.
          2   -1    0    0  501    0  0.00000000000E+00 -0.00000000000E+00 -0.24567294020E+04  0.24567294020E+04  0.00000000000E+00 0. -1.
         23    2    1    2    0    0  0.14587049178E+04  0.11568393061E+04 -0.53476107686E+03  0.19391914749E+04  0.91634871840E+02 0.  0.
         11    1    3    3    0    0  0.12155773325E+04  0.95412064166E+03 -0.40851614225E+03  0.15983929081E+04  0.00000000000E+00 0.  1.
        -11    1    3    3    0    0  0.24312758531E+03  0.20271866440E+03 -0.12624493461E+03  0.34079856682E+03  0.00000000000E+00 0. -1.
         22    1    1    2    0    0 -0.14587049178E+04 -0.11568393061E+04 -0.50934354751E+03  0.19301627047E+04  0.00000000000E+00 0.  1.
<mgrwt>
<rscale>  0 0.37258217E+04</rscale>
<asrwt>0</asrwt>
<pdfrwt beam="1">  1        2 0.37795837E+00 0.37258217E+04</pdfrwt>
<pdfrwt beam="2">  1       -2 0.21732689E+00 0.37258217E+04</pdfrwt>
<totfact> 0.30573678E-01</totfact>
</mgrwt>
</event>
<event>
 6    1  0.2436515E-005  0.2442051E+03  0.7818608E-02  0.1117023E+00
          4   -1    0    0  501    0  0.00000000000E+00  0.00000000000E+00  0.32115919462E+02  0.32115919462E+02  0.00000000000E+00 0.  1.
         -4   -1    0    0    0  501 -0.00000000000E+00 -0.00000000000E+00 -0.46422566190E+03  0.46422566190E+03  0.00000000000E+00 0. -1.
         23    2    1    2    0    0  0.74964948590E+02 -0.40673804004E+02 -0.12085517557E+03  0.17361335631E+03  0.90892915993E+02 0.  0.
         11    1    3    3    0    0 -0.15651045969E+02  0.78707207353E+01 -0.37045506278E+02  0.40978933859E+02  0.00000000000E+00 0.  1.
        -11    1    3    3    0    0  0.90615994558E+02 -0.48544524739E+02 -0.83809669292E+02  0.13263442245E+03  0.00000000000E+00 0. -1.
         22    1    1    2    0    0 -0.74964948590E+02  0.40673804004E+02 -0.31125456687E+03  0.32272822506E+03  0.00000000000E+00 0. -1.
<mgrwt>
<rscale>  0 0.24420511E+03</rscale>
<asrwt>0</asrwt>
<pdfrwt beam="1">  1        4 0.49409112E-02 0.24420511E+03</pdfrwt>
<pdfrwt beam="2">  1       -4 0.71419325E-01 0.24420511E+03</pdfrwt>
<totfact> 0.81896049E+02</totfact>
</mgrwt>
</event>
<event>
 6    1  0.2436515E-005  0.2979413E+04  0.7818608E-02  0.8249634E-01
          2   -1    0    0  501    0  0.00000000000E+00  0.00000000000E+00  0.21537474088E+04  0.21537474088E+04  0.00000000000E+00 0.  1.
         -2   -1    0    0    0  501 -0.00000000000E+00 -0.00000000000E+00 -0.10304019341E+04  0.10304019341E+04  0.00000000000E+00 0. -1.
         23    2    1    2    0    0 -0.88042639967E+03 -0.45527342750E+03  0.17486587612E+04  0.20122102468E+04  0.93584588536E+02 0.  0.
         13    1    3    3    0    0 -0.22205507390E+03 -0.14912224517E+03  0.52938492145E+03  0.59312249570E+03  0.00000000000E+00 0. -1.
        -13    1    3    3    0    0 -0.65837132576E+03 -0.30615118233E+03  0.12192738397E+04  0.14190877511E+04  0.00000000000E+00 0.  1.
         22    1    1    2    0    0  0.88042639967E+03  0.45527342750E+03 -0.62531328644E+03  0.11719390962E+04  0.00000000000E+00 0. -1.
<mgrwt>
<rscale>  0 0.29794130E+04</rscale>
<asrwt>0</asrwt>
<pdfrwt beam="1">  1        2 0.33134575E+00 0.29794130E+04</pdfrwt>
<pdfrwt beam="2">  1       -2 0.15852338E+00 0.29794130E+04</pdfrwt>
<totfact> 0.12143862E+00</totfact>
</mgrwt>
</event>
<event>
 6    1  0.2436515E-005  0.5459715E+03  0.7818608E-02  0.1002431E+00
          4   -1    0    0  501    0  0.00000000000E+00  0.00000000000E+00  0.86772793092E+02  0.86772793092E+02  0.00000000000E+00 0.  1.
         -4   -1    0    0    0  501 -0.00000000000E+00 -0.00000000000E+00 -0.85880864921E+03  0.85880864921E+03  0.00000000000E+00 0. -1.
         23    2    1    2    0    0  0.14875693121E+03  0.11902508537E+03 -0.71665414413E+03  0.74718101500E+03  0.91600826187E+02 0.  0.
         13    1    3    3    0    0  0.50284044034E+02  0.91003643373E+02 -0.27988907349E+03  0.29857669308E+03  0.00000000000E+00 0.  1.
        -13    1    3    3    0    0  0.98472887175E+02  0.28021441993E+02 -0.43676507063E+03  0.44860432192E+03  0.00000000000E+00 0. -1.
         22    1    1    2    0    0 -0.14875693121E+03 -0.11902508537E+03 -0.55381711990E+02  0.19840042730E+03  0.00000000000E+00 0.  1.
<mgrwt>
<rscale>  0 0.54597152E+03</rscale>
<asrwt>0</asrwt>
<pdfrwt beam="1">  1        4 0.13349661E-01 0.54597152E+03</pdfrwt>
<pdfrwt beam="2">  1       -4 0.13212441E+00 0.54597152E+03</pdfrwt>
<totfact> 0.39169358E+01</totfact>
</mgrwt>
</event>
<event>
 6    1  0.2436515E-005  0.5603352E+04  0.7818608E-02  0.7741626E-01
         -2   -1    0    0    0  501 -0.00000000000E+00  0.00000000000E+00  0.24704545165E+04  0.24704545165E+04  0.00000000000E+00 0. -1.
          2   -1    0    0  501    0  0.00000000000E+00 -0.00000000000E+00 -0.31773058899E+04  0.31773058899E+04  0.00000000000E+00 0.  1.
         23    2    1    2    0    0 -0.33903983153E+03  0.78607483907E+03 -0.30415626472E+04  0.31610480403E+04  0.90882982178E+02 0.  0.
         13    1    3    3    0    0 -0.10380993310E+03  0.20110282885E+03 -0.94573199513E+03  0.97243398572E+03  0.00000000000E+00 0.  1.
        -13    1    3    3    0    0 -0.23522989843E+03  0.58497201022E+03 -0.20958306521E+04  0.21886140546E+04  0.00000000000E+00 0. -1.
         22    1    1    2    0    0  0.33903983153E+03 -0.78607483907E+03  0.23347112738E+04  0.24867123662E+04  0.00000000000E+00 0. -1.
<mgrwt>
<rscale>  0 0.56033525E+04</rscale>
<asrwt>0</asrwt>
<pdfrwt beam="1">  1        2 0.48881629E+00 0.56033525E+04</pdfrwt>
<pdfrwt beam="2">  1       -2 0.38006993E+00 0.56033525E+04</pdfrwt>
<totfact> 0.93114934E-03</totfact>
</mgrwt>
</event>
<event>
 6    1  0.2436515E-005  0.1550131E+04  0.7818608E-02  0.8851784E-01
          2   -1    0    0  501    0  0.00000000000E+00  0.00000000000E+00  0.18853561088E+04  0.18853561088E+04  0.00000000000E+00 0.  1.
         -2   -1    0    0    0  501 -0.00000000000E+00 -0.00000000000E+00 -0.31862752448E+03  0.31862752448E+03  0.00000000000E+00 0. -1.
         23    2    1    2    0    0  0.27331618426E+03 -0.10068145068E+03  0.18031629900E+04  0.18288307055E+04  0.91577779852E+02 0.  0.
         13    1    3    3    0    0  0.19336805102E+03 -0.97445193591E+02  0.14878499611E+04  0.15035239524E+04  0.00000000000E+00 0.  1.
        -13    1    3    3    0    0  0.79948133242E+02 -0.32362570909E+01  0.31531302893E+03  0.32530675305E+03  0.00000000000E+00 0. -1.
         22    1    1    2    0    0 -0.27331618426E+03  0.10068145068E+03 -0.23643440563E+03  0.37515292783E+03  0.00000000000E+00 0. -1.
<mgrwt>
<rscale>  0 0.15501308E+04</rscale>
<asrwt>0</asrwt>
<pdfrwt beam="1">  1        2 0.29005478E+00 0.15501308E+04</pdfrwt>
<pdfrwt beam="2">  1       -2 0.49019620E-01 0.15501308E+04</pdfrwt>
<totfact> 0.29345781E+01</totfact>
</mgrwt>
</event>
<event>
 6    1  0.2436515E-005  0.3942597E+04  0.7818608E-02  0.8016228E-01
          2   -1    0    0  501    0  0.00000000000E+00  0.00000000000E+00  0.15168333876E+04  0.15168333876E+04  0.00000000000E+00 0.  1.
         -2   -1    0    0    0  501 -0.00000000000E+00 -0.00000000000E+00 -0.25619282280E+04  0.25619282280E+04  0.00000000000E+00 0. -1.
         23    2    1    2    0    0 -0.47299120976E+03 -0.16039483629E+04  0.55514732045E+03  0.17642106854E+04  0.88768010502E+02 0.  0.
         11    1    3    3    0    0 -0.19981289451E+03 -0.54462340794E+03  0.17216458652E+03  0.60512849391E+03  0.00000000000E+00 0.  1.
        -11    1    3    3    0    0 -0.27317831524E+03 -0.10593249550E+04  0.38298273393E+03  0.11590821915E+04  0.00000000000E+00 0. -1.
         22    1    1    2    0    0  0.47299120976E+03  0.16039483629E+04 -0.16002421608E+04  0.23145509303E+04  0.00000000000E+00 0. -1.
<mgrwt>
<rscale>  0 0.39425973E+04</rscale>
<asrwt>0</asrwt>
<pdfrwt beam="1">  1        2 0.23335898E+00 0.39425973E+04</pdfrwt>
<pdfrwt beam="2">  1       -2 0.39414280E+00 0.39425973E+04</pdfrwt>
<totfact> 0.79740018E-02</totfact>
</mgrwt>
</event>
<event>
 6    1  0.2436515E-005  0.8084971E+03  0.7818608E-02  0.9547799E-01
          3   -1    0    0  501    0  0.00000000000E+00  0.00000000000E+00  0.22310826613E+03  0.22310826613E+03  0.00000000000E+00 0. -1.
         -3   -1    0    0    0  501 -0.00000000000E+00 -0.00000000000E+00 -0.73245551677E+03  0.73245551677E+03  0.00000000000E+00 0.  1.
         23    2    1    2    0    0 -0.15573182361E+02  0.33375107530E+03 -0.51554843165E+03  0.62139203227E+03  0.93303633987E+02 0.  0.
         13    1    3    3    0    0 -0.50680207247E+02  0.12256928925E+03 -0.18745675135E+03  0.22963394283E+03  0.00000000000E+00 0. -1.
        -13    1    3    3    0    0  0.35107024886E+02  0.21118178605E+03 -0.32809168030E+03  0.39175808944E+03  0.00000000000E+00 0.  1.
         22    1    1    2    0    0  0.15573182361E+02 -0.33375107530E+03  0.62011810073E+01  0.33417175063E+03  0.00000000000E+00 0. -1.
<mgrwt>
<rscale>  0 0.80849708E+03</rscale>
<asrwt>0</asrwt>
<pdfrwt beam="1">  1        3 0.34324349E-01 0.80849708E+03</pdfrwt>
<pdfrwt beam="2">  1       -3 0.11268546E+00 0.80849708E+03</pdfrwt>
<totfact> 0.14526540E+01</totfact>
</mgrwt>
</event>
<event>
 6    1  0.2436515E-005  0.1468637E+04  0.7818608E-02  0.8905581E-01
         -2   -1    0    0    0  501 -0.00000000000E+00  0.00000000000E+00  0.61907577182E+03  0.61907577182E+03  0.00000000000E+00 0. -1.
          2   -1    0    0  501    0  0.00000000000E+00 -0.00000000000E+00 -0.87101400688E+03  0.87101400688E+03  0.00000000000E+00 0.  1.
         23    2    1    2    0    0  0.22386770925E+03 -0.22750728116E+03  0.54138262728E+03  0.63496738697E+03  0.90620743663E+02 0.  0.
         13    1    3    3    0    0  0.36624191586E+02 -0.45489782252E+02  0.43713902446E+02  0.72949002500E+02  0.00000000000E+00 0.  1.
        -13    1    3    3    0    0  0.18724351766E+03 -0.18201749891E+03  0.49766872483E+03  0.56201838447E+03  0.00000000000E+00 0. -1.
         22    1    1    2    0    0 -0.22386770925E+03  0.22750728116E+03 -0.79332086233E+03  0.85512239173E+03  0.00000000000E+00 0.  1.
<mgrwt>
<rscale>  0 0.14686370E+04</rscale>
<asrwt>0</asrwt>
<pdfrwt beam="1">  1        2 0.13400215E+00 0.14686370E+04</pdfrwt>
<pdfrwt beam="2">  1       -2 0.95242427E-01 0.14686370E+04</pdfrwt>
<totfact> 0.27543438E+01</totfact>
</mgrwt>
</event>
<event>
 6    1  0.2436515E-005  0.2261749E+04  0.7818608E-02  0.8493157E-01
         -2   -1    0    0    0  501 -0.00000000000E+00  0.00000000000E+00  0.72252923495E+03  0.72252923495E+03  0.00000000000E+00 0. -1.
          2   -1    0    0  501    0  0.00000000000E+00 -0.00000000000E+00 -0.17700004963E+04  0.17700004963E+04  0.00000000000E+00 0.  1.
         23    2    1    2    0    0  0.52680978863E+03  0.86462915568E+03 -0.10751775160E+04  0.14796725020E+04  0.91169577950E+02 0.  0.
         11    1    3    3    0    0  0.17255729395E+03  0.29635975174E+03 -0.42753168148E+03  0.54807705738E+03  0.00000000000E+00 0. -1.
        -11    1    3    3    0    0  0.35425249467E+03  0.56826940393E+03 -0.64764583456E+03  0.93159544463E+03  0.00000000000E+00 0.  1.
         22    1    1    2    0    0 -0.52680978863E+03 -0.86462915568E+03  0.27706254712E+02  0.10128572292E+04  0.00000000000E+00 0. -1.
<mgrwt>
<rscale>  0 0.22617490E+04</rscale>
<asrwt>0</asrwt>
<pdfrwt beam="1">  1        2 0.27230777E+00 0.22617490E+04</pdfrwt>
<pdfrwt beam="2">  1       -2 0.11115834E+00 0.22617490E+04</pdfrwt>
<totfact> 0.52233773E+00</totfact>
</mgrwt>
</event>
<event>
 6    1  0.2436515E-005  0.3390823E+04  0.7818608E-02  0.8140162E-01
          2   -1    0    0  501    0  0.00000000000E+00  0.00000000000E+00  0.29017439988E+04  0.29017439988E+04  0.00000000000E+00 0.  1.
         -2   -1    0    0    0  501 -0.00000000000E+00 -0.00000000000E+00 -0.99058392594E+03  0.99058392594E+03  0.00000000000E+00 0. -1.
         23    2    1    2    0    0  0.86554989490E+03 -0.12404706957E+04  0.80219316877E+02  0.15173988270E+04  0.90110454549E+02 0.  0.
         13    1    3    3    0    0  0.28690044963E+03 -0.43060385995E+03 -0.13861950955E+02  0.51761347151E+03  0.00000000000E+00 0. -1.
        -13    1    3    3    0    0  0.57864944527E+03 -0.80986683571E+03  0.94081267832E+02  0.99978535549E+03  0.00000000000E+00 0.  1.
         22    1    1    2    0    0 -0.86554989490E+03  0.12404706957E+04  0.18309407560E+04  0.23749290978E+04  0.00000000000E+00 0.  1.
<mgrwt>
<rscale>  0 0.33908235E+04</rscale>
<asrwt>0</asrwt>
<pdfrwt beam="1">  1        2 0.44642215E+00 0.33908235E+04</pdfrwt>
<pdfrwt beam="2">  1       -2 0.15239753E+00 0.33908235E+04</pdfrwt>
<totfact> 0.47697494E-01</totfact>
</mgrwt>
</event>
<event>
 6    1  0.2587485E-005  0.4267464E+04  0.7818608E-02  0.7952662E-01
         -2   -1    0    0    0  501 -0.00000000000E+00  0.00000000000E+00  0.19138607711E+04  0.19138607711E+04  0.00000000000E+00 0. -1.
          2   -1    0    0  501    0  0.00000000000E+00 -0.00000000000E+00 -0.23788626949E+04  0.23788626949E+04  0.00000000000E+00 0.  1.
         23    2    1    2    0    0  0.17551686610E+04  0.80815300620E+03 -0.11406749355E+04  0.22457104400E+04  0.91366088148E+02 0.  0.
         13    1    3    3    0    0  0.89793029819E+03  0.44122316660E+03 -0.63454460061E+03  0.11847377572E+04  0.00000000000E+00 0. -1.
        -13    1    3    3    0    0  0.85723836281E+03  0.36692983960E+03 -0.50613033484E+03  0.10609726828E+04  0.00000000000E+00 0.  1.
         22    1    1    2    0    0 -0.17551686610E+04 -0.80815300620E+03  0.67567301159E+03  0.20470130260E+04  0.00000000000E+00 0. -1.
<mgrwt>
<rscale>  0 0.42674639E+04</rscale>
<asrwt>0</asrwt>
<pdfrwt beam="1">  1        2 0.36597888E+00 0.42674639E+04</pdfrwt>
<pdfrwt beam="2">  1       -2 0.29444012E+00 0.42674639E+04</pdfrwt>
<totfact> 0.10848854E-01</totfact>
</mgrwt>
</event>
<event>
 6    1  0.2902819E-005  0.3580073E+04  0.7818608E-02  0.8095072E-01
          2   -1    0    0  501    0  0.00000000000E+00  0.00000000000E+00  0.17105257403E+04  0.17105257403E+04  0.00000000000E+00 0.  1.
         -2   -1    0    0    0  501 -0.00000000000E+00 -0.00000000000E+00 -0.18732428112E+04  0.18732428112E+04  0.00000000000E+00 0. -1.
         23    2    1    2    0    0  0.17043753345E+04 -0.46528362504E+03 -0.36197686515E+03  0.18058235023E+04  0.92666811963E+02 0.  0.
         13    1    3    3    0    0  0.83877368214E+03 -0.26516350459E+03 -0.14899547433E+03  0.89221781274E+03  0.00000000000E+00 0. -1.
        -13    1    3    3    0    0  0.86560165235E+03 -0.20012012046E+03 -0.21298139082E+03  0.91360568956E+03  0.00000000000E+00 0.  1.
         22    1    1    2    0    0 -0.17043753345E+04  0.46528362504E+03  0.19925979422E+03  0.17779450492E+04  0.00000000000E+00 0.  1.
<mgrwt>
<rscale>  0 0.35800727E+04</rscale>
<asrwt>0</asrwt>
<pdfrwt beam="1">  1        2 0.26315781E+00 0.35800727E+04</pdfrwt>
<pdfrwt beam="2">  1       -2 0.28819120E+00 0.35800727E+04</pdfrwt>
<totfact> 0.29645166E-01</totfact>
</mgrwt>
</event>
<event>
 6    1  0.2436515E-005  0.1451089E+04  0.7818608E-02  0.8917646E-01
          2   -1    0    0  501    0  0.00000000000E+00  0.00000000000E+00  0.10817488220E+04  0.10817488220E+04  0.00000000000E+00 0. -1.
         -2   -1    0    0    0  501 -0.00000000000E+00 -0.00000000000E+00 -0.48663303649E+03  0.48663303649E+03  0.00000000000E+00 0.  1.
         23    2    1    2    0    0 -0.28911503510E+03 -0.39246586659E+03 -0.27916999075E+03  0.56738606502E+03  0.79837980211E+02 0.  0.
         11    1    3    3    0    0 -0.10978377362E+03 -0.11600819522E+03 -0.12874680911E+03  0.20514901697E+03  0.00000000000E+00 0. -1.
        -11    1    3    3    0    0 -0.17933126149E+03 -0.27645767137E+03 -0.15042318164E+03  0.36223704805E+03  0.00000000000E+00 0.  1.
         22    1    1    2    0    0  0.28911503510E+03  0.39246586659E+03  0.87428577625E+03  0.10009957935E+04  0.00000000000E+00 0. -1.
<mgrwt>
<rscale>  0 0.14510889E+04</rscale>
<asrwt>0</asrwt>
<pdfrwt beam="1">  1        2 0.16642290E+00 0.14510889E+04</pdfrwt>
<pdfrwt beam="2">  1       -2 0.74866621E-01 0.14510889E+04</pdfrwt>
<totfact> 0.34768540E+01</totfact>
</mgrwt>
</event>
<event>
 6    1  0.2436515E-005  0.1105462E+04  0.7818608E-02  0.9199885E-01
          2   -1    0    0  501    0  0.00000000000E+00  0.00000000000E+00  0.10124788261E+04  0.10124788261E+04  0.00000000000E+00 0.  1.
         -2   -1    0    0    0  501 -0.00000000000E+00 -0.00000000000E+00 -0.30174600587E+03  0.30174600587E+03  0.00000000000E+00 0. -1.
         23    2    1    2    0    0  0.30222781194E+03 -0.34002451634E+03  0.72319886662E+03  0.85912734317E+03  0.90138055719E+02 0.  0.
         13    1    3    3    0    0  0.36952958953E+01 -0.40526352313E+02  0.70966480526E+02  0.81806367734E+02  0.00000000000E+00 0. -1.
        -13    1    3    3    0    0  0.29853251604E+03 -0.29949816403E+03  0.65223238609E+03  0.77732097544E+03  0.00000000000E+00 0.  1.
         22    1    1    2    0    0 -0.30222781194E+03  0.34002451634E+03 -0.12466046357E+02  0.45509748882E+03  0.00000000000E+00 0. -1.
<mgrwt>
<rscale>  0 0.11054618E+04</rscale>
<asrwt>0</asrwt>
<pdfrwt beam="1">  1        2 0.15576597E+00 0.11054618E+04</pdfrwt>
<pdfrwt beam="2">  1       -2 0.46422463E-01 0.11054618E+04</pdfrwt>
<totfact> 0.10793620E+02</totfact>
</mgrwt>
</event>
<event>
 6    1  0.2436515E-005  0.1792354E+04  0.7818608E-02  0.8710376E-01
         -2   -1    0    0    0  501 -0.00000000000E+00  0.00000000000E+00  0.19916747709E+04  0.19916747709E+04  0.00000000000E+00 0. -1.
          2   -1    0    0  501    0  0.00000000000E+00 -0.00000000000E+00 -0.40324536006E+03  0.40324536006E+03  0.00000000000E+00 0.  1.
         23    2    1    2    0    0 -0.14995201351E+02  0.62583733769E+03 -0.54009744253E+02  0.63722174743E+03  0.10600600740E+03 0.  0.
         13    1    3    3    0    0 -0.54794200012E+02  0.35833708847E+03 -0.60201269046E+01  0.36255222417E+03  0.00000000000E+00 0.  1.
        -13    1    3    3    0    0  0.39798998660E+02  0.26750024923E+03 -0.47989617349E+02  0.27466952325E+03  0.00000000000E+00 0. -1.
         22    1    1    2    0    0  0.14995201351E+02 -0.62583733769E+03  0.16424391551E+04  0.17576983835E+04  0.00000000000E+00 0. -1.
<mgrwt>
<rscale>  0 0.17923544E+04</rscale>
<asrwt>0</asrwt>
<pdfrwt beam="1">  1        2 0.62037749E-01 0.17923544E+04</pdfrwt>
<pdfrwt beam="2">  1       -2 0.30641150E+00 0.17923544E+04</pdfrwt>
<totfact> 0.21653978E+00</totfact>
</mgrwt>
</event>
<event>
 6    1  0.2436515E-005  0.4358944E+04  0.7818608E-02  0.7935808E-01
         -2   -1    0    0    0  501 -0.00000000000E+00  0.00000000000E+00  0.16976491679E+04  0.16976491679E+04  0.00000000000E+00 0.  1.
          2   -1    0    0  501    0  0.00000000000E+00 -0.00000000000E+00 -0.27980445204E+04  0.27980445204E+04  0.00000000000E+00 0. -1.
         23    2    1    2    0    0 -0.17285616672E+04  0.35862638017E+03 -0.18669476901E+04  0.25710792324E+04  0.91741069968E+02 0.  0.
         13    1    3    3    0    0 -0.60836152350E+03  0.11132189732E+03 -0.59459636929E+03  0.85792840638E+03  0.00000000000E+00 0. -1.
        -13    1    3    3    0    0 -0.11202001437E+04  0.24730448285E+03 -0.12723513208E+04  0.17131508260E+04  0.00000000000E+00 0.  1.
         22    1    1    2    0    0  0.17285616672E+04 -0.35862638017E+03  0.76655233759E+03  0.19246144560E+04  0.00000000000E+00 0.  1.
<mgrwt>
<rscale>  0 0.43589439E+04</rscale>
<asrwt>0</asrwt>
<pdfrwt beam="1">  1        2 0.43046838E+00 0.43589439E+04</pdfrwt>
<pdfrwt beam="2">  1       -2 0.26117680E+00 0.43589439E+04</pdfrwt>
<totfact> 0.97492359E-02</totfact>
</mgrwt>
</event>
<event>
 6    1  0.2436515E-005  0.2300500E+04  0.7818608E-02  0.8477724E-01
         -2   -1    0    0    0  501 -0.00000000000E+00  0.00000000000E+00  0.44728715882E+03  0.44728715882E+03  0.00000000000E+00 0. -1.
          2   -1    0    0  501    0  0.00000000000E+00 -0.00000000000E+00 -0.29579992226E+04  0.29579992226E+04  0.00000000000E+00 0.  1.
         23    2    1    2    0    0  0.10219521798E+03  0.10707116661E+03 -0.29431492916E+04  0.29482195884E+04  0.89235034217E+02 0.  0.
         13    1    3    3    0    0  0.57399886538E+02  0.10182959889E+01 -0.89943178200E+03  0.90126206753E+03  0.00000000000E+00 0. -1.
        -13    1    3    3    0    0  0.44795331447E+02  0.10605287062E+03 -0.20437175096E+04  0.20469575209E+04  0.00000000000E+00 0.  1.
         22    1    1    2    0    0 -0.10219521798E+03 -0.10707116661E+03  0.43243722782E+03  0.45706679304E+03  0.00000000000E+00 0. -1.
<mgrwt>
<rscale>  0 0.23005000E+04</rscale>
<asrwt>0</asrwt>
<pdfrwt beam="1">  1        2 0.45507680E+00 0.23005000E+04</pdfrwt>
<pdfrwt beam="2">  1       -2 0.68813409E-01 0.23005000E+04</pdfrwt>
<totfact> 0.32378567E+00</totfact>
</mgrwt>
</event>
<event>
 6    1  0.2436515E-005  0.3432227E+04  0.7818608E-02  0.8130042E-01
         -2   -1    0    0    0  501 -0.00000000000E+00  0.00000000000E+00  0.23998139742E+04  0.23998139742E+04  0.00000000000E+00 0. -1.
          2   -1    0    0  501    0  0.00000000000E+00 -0.00000000000E+00 -0.12271971811E+04  0.12271971811E+04  0.00000000000E+00 0.  1.
         23    2    1    2    0    0 -0.11992509150E+04 -0.38722972193E+03 -0.64232933639E+03  0.14174457982E+04  0.91738757680E+02 0.  0.
         11    1    3    3    0    0 -0.95395282056E+03 -0.27675526158E+03 -0.47937089139E+03  0.11029124671E+04  0.00000000000E+00 0. -1.
        -11    1    3    3    0    0 -0.24529809447E+03 -0.11047446035E+03 -0.16295844500E+03  0.31453333104E+03  0.00000000000E+00 0.  1.
         22    1    1    2    0    0  0.11992509150E+04  0.38722972193E+03  0.18149461295E+04  0.22095653572E+04  0.00000000000E+00 0. -1.
<mgrwt>
<rscale>  0 0.34322267E+04</rscale>
<asrwt>0</asrwt>
<pdfrwt beam="1">  1        2 0.18879957E+00 0.34322267E+04</pdfrwt>
<pdfrwt beam="2">  1       -2 0.36920215E+00 0.34322267E+04</pdfrwt>
<totfact> 0.17700105E-01</totfact>
</mgrwt>
</event>
<event>
 6    1  0.2436515E-005  0.2451172E+04  0.7818608E-02  0.8420590E-01
         -4   -1    0    0    0  501 -0.00000000000E+00  0.00000000000E+00  0.43873626736E+03  0.43873626736E+03  0.00000000000E+00 0. -1.
          4   -1    0    0  501    0  0.00000000000E+00 -0.00000000000E+00 -0.34236093545E+04  0.34236093545E+04  0.00000000000E+00 0.  1.
         23    2    1    2    0    0  0.10336284717E+03  0.96770729995E+03 -0.26639388504E+04  0.28375821951E+04  0.90339463505E+02 0.  0.
         13    1    3    3    0    0 -0.68818704391E+01  0.13302416249E+03 -0.30194087129E+03  0.33001678397E+03  0.00000000000E+00 0. -1.
        -13    1    3    3    0    0  0.11024471761E+03  0.83468313746E+03 -0.23619979791E+04  0.25075654111E+04  0.00000000000E+00 0.  1.
         22    1    1    2    0    0 -0.10336284717E+03 -0.96770729995E+03 -0.32093423674E+03  0.10247634268E+04  0.00000000000E+00 0. -1.
<mgrwt>
<rscale>  0 0.24511724E+04</rscale>
<asrwt>0</asrwt>
<pdfrwt beam="1">  1        4 0.52670914E+00 0.24511724E+04</pdfrwt>
<pdfrwt beam="2">  1       -4 0.67497887E-01 0.24511724E+04</pdfrwt>
<totfact> 0.26497860E-03</totfact>
</mgrwt>
</event>
<event>
 6    1  0.2436515E-005  0.1523100E+04  0.7818608E-02  0.8869236E-01
         -2   -1    0    0    0  501 -0.00000000000E+00  0.00000000000E+00  0.68370935600E+03  0.68370935600E+03  0.00000000000E+00 0. -1.
          2   -1    0    0  501    0  0.00000000000E+00 -0.00000000000E+00 -0.84825243761E+03  0.84825243761E+03  0.00000000000E+00 0.  1.
         23    2    1    2    0    0 -0.45366250548E+03 -0.26568346816E+03 -0.63295991499E+03  0.82782281307E+03  0.90856929976E+02 0.  0.
         13    1    3    3    0    0 -0.10183459273E+03 -0.19806584479E+02 -0.13856843357E+03  0.17310053682E+03  0.00000000000E+00 0. -1.
        -13    1    3    3    0    0 -0.35182791275E+03 -0.24587688368E+03 -0.49439148141E+03  0.65472227624E+03  0.00000000000E+00 0.  1.
         22    1    1    2    0    0  0.45366250548E+03  0.26568346816E+03  0.46841683337E+03  0.70413898054E+03  0.00000000000E+00 0. -1.
<mgrwt>
<rscale>  0 0.15230996E+04</rscale>
<asrwt>0</asrwt>
<pdfrwt beam="1">  1        2 0.13050037E+00 0.15230996E+04</pdfrwt>
<pdfrwt beam="2">  1       -2 0.10518605E+00 0.15230996E+04</pdfrwt>
<totfact> 0.22474110E+01</totfact>
</mgrwt>
</event>
<event>
 6    1  0.2436515E-005  0.4412355E+04  0.7818608E-02  0.7926163E-01
         -1   -1    0    0    0  501 -0.00000000000E+00  0.00000000000E+00  0.16789787698E+04  0.16789787698E+04  0.00000000000E+00 0.  1.
          1   -1    0    0  501    0  0.00000000000E+00 -0.00000000000E+00 -0.28989160867E+04  0.28989160867E+04  0.00000000000E+00 0. -1.
         23    2    1    2    0    0  0.10099124729E+04  0.87763484995E+03  0.12084817267E+04  0.18052814352E+04  0.91906711618E+02 0.  0.
         13    1    3    3    0    0  0.91004416650E+03  0.76348791884E+03  0.10429296818E+04  0.15807582068E+04  0.00000000000E+00 0.  1.
        -13    1    3    3    0    0  0.99868306391E+02  0.11414693112E+03  0.16555204493E+03  0.22452322839E+03  0.00000000000E+00 0. -1.
         22    1    1    2    0    0 -0.10099124729E+04 -0.87763484995E+03 -0.24284190436E+04  0.27726134213E+04  0.00000000000E+00 0. -1.
<mgrwt>
<rscale>  0 0.44123547E+04</rscale>
<asrwt>0</asrwt>
<pdfrwt beam="1">  1        1 0.44598709E+00 0.44123547E+04</pdfrwt>
<pdfrwt beam="2">  1       -1 0.25830443E+00 0.44123547E+04</pdfrwt>
<totfact> 0.32959653E-02</totfact>
</mgrwt>
</event>
<event>
 6    1  0.2436515E-005  0.3596346E+04  0.7818608E-02  0.8091329E-01
         -2   -1    0    0    0  501 -0.00000000000E+00  0.00000000000E+00  0.14015281223E+04  0.14015281223E+04  0.00000000000E+00 0. -1.
          2   -1    0    0  501    0  0.00000000000E+00 -0.00000000000E+00 -0.23070715320E+04  0.23070715320E+04  0.00000000000E+00 0.  1.
         23    2    1    2    0    0  0.12108308440E+04 -0.87632974022E+03 -0.14817732771E+04  0.21066926637E+04  0.91851991268E+02 0.  0.
         11    1    3    3    0    0  0.19393323489E+03 -0.14623482411E+03 -0.28989556839E+03  0.37819857740E+03  0.00000000000E+00 0.  1.
        -11    1    3    3    0    0  0.10168976091E+04 -0.73009491611E+03 -0.11918777087E+04  0.17284940863E+04  0.00000000000E+00 0. -1.
         22    1    1    2    0    0 -0.12108308440E+04  0.87632974022E+03  0.57622986744E+03  0.16019069906E+04  0.00000000000E+00 0. -1.
<mgrwt>
<rscale>  0 0.35963457E+04</rscale>
<asrwt>0</asrwt>
<pdfrwt beam="1">  1        2 0.35493408E+00 0.35963457E+04</pdfrwt>
<pdfrwt beam="2">  1       -2 0.21561971E+00 0.35963457E+04</pdfrwt>
<totfact> 0.38593893E-01</totfact>
</mgrwt>
</event>
<event>
 6    1  0.2436515E-005  0.3694725E+04  0.7818608E-02  0.8069132E-01
         -2   -1    0    0    0  501 -0.00000000000E+00  0.00000000000E+00  0.26853945664E+04  0.26853945664E+04  0.00000000000E+00 0. -1.
          2   -1    0    0  501    0  0.00000000000E+00 -0.00000000000E+00 -0.12708551025E+04  0.12708551025E+04  0.00000000000E+00 0.  1.
         23    2    1    2    0    0 -0.10215023047E+04 -0.11878382318E+03 -0.93430573261E+03  0.13921415760E+04  0.86916110604E+02 0.  0.
         11    1    3    3    0    0 -0.54010411402E+03 -0.31155293149E+02 -0.53087789411E+03  0.75796731112E+03  0.00000000000E+00 0. -1.
        -11    1    3    3    0    0 -0.48139819073E+03 -0.87628530036E+02 -0.40342783850E+03  0.63417426484E+03  0.00000000000E+00 0.  1.
         22    1    1    2    0    0  0.10215023047E+04  0.11878382318E+03  0.23488451965E+04  0.25641080930E+04  0.00000000000E+00 0. -1.
<mgrwt>
<rscale>  0 0.36947246E+04</rscale>
<asrwt>0</asrwt>
<pdfrwt beam="1">  1        2 0.19551617E+00 0.36947246E+04</pdfrwt>
<pdfrwt beam="2">  1       -2 0.41313763E+00 0.36947246E+04</pdfrwt>
<totfact> 0.84555779E-02</totfact>
</mgrwt>
</event>
<event>
 6    1  0.2436515E-005  0.2451509E+04  0.7818608E-02  0.8420467E-01
          2   -1    0    0  501    0  0.00000000000E+00  0.00000000000E+00  0.27599224684E+04  0.27599224684E+04  0.00000000000E+00 0.  1.
         -2   -1    0    0    0  501 -0.00000000000E+00 -0.00000000000E+00 -0.54438985188E+03  0.54438985188E+03  0.00000000000E+00 0. -1.
         23    2    1    2    0    0 -0.77186910900E+03  0.45599284726E+03  0.22326844234E+04  0.24076487364E+04  0.90450565730E+02 0.  0.
         11    1    3    3    0    0 -0.47778493737E+03  0.32998282639E+03  0.14029344227E+04  0.15183517730E+04  0.00000000000E+00 0.  1.
        -11    1    3    3    0    0 -0.29408417163E+03  0.12601002087E+03  0.82975000071E+03  0.88929696336E+03  0.00000000000E+00 0. -1.
         22    1    1    2    0    0  0.77186910900E+03 -0.45599284726E+03 -0.17151806959E+02  0.89666358389E+03  0.00000000000E+00 0. -1.
<mgrwt>
<rscale>  0 0.24515087E+04</rscale>
<asrwt>0</asrwt>
<pdfrwt beam="1">  1        2 0.42460345E+00 0.24515087E+04</pdfrwt>
<pdfrwt beam="2">  1       -2 0.83752287E-01 0.24515087E+04</pdfrwt>
<totfact> 0.27281291E+00</totfact>
</mgrwt>
</event>
<event>
 6    1  0.2436515E-005  0.1912856E+04  0.7818608E-02  0.8648484E-01
         -2   -1    0    0    0  501 -0.00000000000E+00  0.00000000000E+00  0.39510814410E+03  0.39510814410E+03  0.00000000000E+00 0. -1.
          2   -1    0    0  501    0  0.00000000000E+00 -0.00000000000E+00 -0.23151995752E+04  0.23151995752E+04  0.00000000000E+00 0.  1.
         23    2    1    2    0    0 -0.19010585337E+03  0.86232241137E+03 -0.44931014045E+03  0.99480843875E+03  0.89577066533E+02 0.  0.
         11    1    3    3    0    0 -0.36547174475E+02  0.36759464561E+03 -0.17826228597E+03  0.41016943090E+03  0.00000000000E+00 0. -1.
        -11    1    3    3    0    0 -0.15355867889E+03  0.49472776576E+03 -0.27104785448E+03  0.58463900785E+03  0.00000000000E+00 0.  1.
         22    1    1    2    0    0  0.19010585337E+03 -0.86232241137E+03 -0.14707812906E+04  0.17154992805E+04  0.00000000000E+00 0.  1.
<mgrwt>
<rscale>  0 0.19128557E+04</rscale>
<asrwt>0</asrwt>
<pdfrwt beam="1">  1        2 0.35618456E+00 0.19128557E+04</pdfrwt>
<pdfrwt beam="2">  1       -2 0.60785867E-01 0.19128557E+04</pdfrwt>
<totfact> 0.10479666E+01</totfact>
</mgrwt>
</event>
<event>
 6    1  0.2436515E-005  0.2492029E+04  0.7818608E-02  0.8405831E-01
         -2   -1    0    0    0  501 -0.00000000000E+00  0.00000000000E+00  0.47285413448E+03  0.47285413448E+03  0.00000000000E+00 0. -1.
          2   -1    0    0  501    0  0.00000000000E+00 -0.00000000000E+00 -0.32833648328E+04  0.32833648328E+04  0.00000000000E+00 0.  1.
         23    2    1    2    0    0 -0.11541394113E+04  0.15874782601E+03 -0.20664680866E+04  0.23738883046E+04  0.88411972125E+02 0.  0.
         13    1    3    3    0    0 -0.37364969161E+03  0.80092455825E+02 -0.73940769424E+03  0.83231762677E+03  0.00000000000E+00 0. -1.
        -13    1    3    3    0    0 -0.78048971970E+03  0.78655370187E+02 -0.13270603923E+04  0.15415706778E+04  0.00000000000E+00 0.  1.
         22    1    1    2    0    0  0.11541394113E+04 -0.15874782601E+03 -0.74404261180E+03  0.13823306627E+04  0.00000000000E+00 0. -1.
<mgrwt>
<rscale>  0 0.24920294E+04</rscale>
<asrwt>0</asrwt>
<pdfrwt beam="1">  1        2 0.50513304E+00 0.24920294E+04</pdfrwt>
<pdfrwt beam="2">  1       -2 0.72746791E-01 0.24920294E+04</pdfrwt>
<totfact> 0.17433428E+00</totfact>
</mgrwt>
</event>
<event>
 6    1  0.2436515E-005  0.7937643E+03  0.7818608E-02  0.9569087E-01
         -2   -1    0    0    0  501 -0.00000000000E+00  0.00000000000E+00  0.15490590964E+03  0.15490590964E+03  0.00000000000E+00 0. -1.
          2   -1    0    0  501    0  0.00000000000E+00 -0.00000000000E+00 -0.10168459550E+04  0.10168459550E+04  0.00000000000E+00 0.  1.
         23    2    1    2    0    0 -0.28199874243E+02  0.26624045509E+03 -0.13823698109E+02  0.28238099077E+03  0.88705786068E+02 0.  0.
         11    1    3    3    0    0 -0.14459978276E+02  0.56578029847E+02  0.33054778577E+02  0.67102778035E+02  0.00000000000E+00 0.  1.
        -11    1    3    3    0    0 -0.13739895967E+02  0.20966242525E+03 -0.46878476686E+02  0.21527821273E+03  0.00000000000E+00 0. -1.
         22    1    1    2    0    0  0.28199874243E+02 -0.26624045509E+03 -0.84811634725E+03  0.88937087388E+03  0.00000000000E+00 0.  1.
<mgrwt>
<rscale>  0 0.79376432E+03</rscale>
<asrwt>0</asrwt>
<pdfrwt beam="1">  1        2 0.15643784E+00 0.79376432E+03</pdfrwt>
<pdfrwt beam="2">  1       -2 0.23831678E-01 0.79376432E+03</pdfrwt>
<totfact> 0.38586215E+02</totfact>
</mgrwt>
</event>
<event>
 6    1  0.2436515E-005  0.2069792E+04  0.7818608E-02  0.8574668E-01
          2   -1    0    0  501    0  0.00000000000E+00  0.00000000000E+00  0.26123662127E+04  0.26123662127E+04  0.00000000000E+00 0. -1.
         -2   -1    0    0    0  501 -0.00000000000E+00 -0.00000000000E+00 -0.40997700216E+03  0.40997700216E+03  0.00000000000E+00 0.  1.
         23    2    1    2    0    0 -0.41137787287E+03  0.41742639442E+03  0.23452617145E+04  0.24191110030E+04  0.91482163517E+02 0.  0.
         13    1    3    3    0    0 -0.18932794828E+03  0.22481531013E+03  0.13339230763E+04  0.13659201182E+04  0.00000000000E+00 0. -1.
        -13    1    3    3    0    0 -0.22204992460E+03  0.19261108429E+03  0.10113386382E+04  0.10531908848E+04  0.00000000000E+00 0.  1.
         22    1    1    2    0    0  0.41137787287E+03 -0.41742639442E+03 -0.14287250396E+03  0.60323221187E+03  0.00000000000E+00 0.  1.
<mgrwt>
<rscale>  0 0.20697923E+04</rscale>
<asrwt>0</asrwt>
<pdfrwt beam="1">  1        2 0.40190248E+00 0.20697923E+04</pdfrwt>
<pdfrwt beam="2">  1       -2 0.63073387E-01 0.20697923E+04</pdfrwt>
<totfact> 0.64423558E+00</totfact>
</mgrwt>
</event>
<event>
 6    1  0.2436515E-005  0.1148306E+04  0.7818608E-02  0.9159348E-01
         -2   -1    0    0    0  501 -0.00000000000E+00  0.00000000000E+00  0.13708635154E+03  0.13708635154E+03  0.00000000000E+00 0. -1.
          2   -1    0    0  501    0  0.00000000000E+00 -0.00000000000E+00 -0.24046994289E+04  0.24046994289E+04  0.00000000000E+00 0.  1.
         23    2    1    2    0    0 -0.51516066019E+03  0.24483522628E+03 -0.11780662635E+04  0.13119699188E+04  0.89945277442E+02 0.  0.
         13    1    3    3    0    0 -0.33143784270E+03  0.10885780778E+03 -0.70950663608E+03  0.79063312132E+03  0.00000000000E+00 0.  1.
        -13    1    3    3    0    0 -0.18372281748E+03  0.13597741850E+03 -0.46855962741E+03  0.52133679751E+03  0.00000000000E+00 0. -1.
         22    1    1    2    0    0  0.51516066019E+03 -0.24483522628E+03 -0.10895468139E+04  0.12298158616E+04  0.00000000000E+00 0. -1.
<mgrwt>
<rscale>  0 0.11483057E+04</rscale>
<asrwt>0</asrwt>
<pdfrwt beam="1">  1        2 0.36995375E+00 0.11483057E+04</pdfrwt>
<pdfrwt beam="2">  1       -2 0.21090208E-01 0.11483057E+04</pdfrwt>
<totfact> 0.76595967E+01</totfact>
</mgrwt>
</event>
<event>
 6    1  0.2436515E-005  0.3416983E+04  0.7818608E-02  0.8133751E-01
         -2   -1    0    0    0  501 -0.00000000000E+00  0.00000000000E+00  0.11125768274E+04  0.11125768274E+04  0.00000000000E+00 0. -1.
          2   -1    0    0  501    0  0.00000000000E+00 -0.00000000000E+00 -0.26235884247E+04  0.26235884247E+04  0.00000000000E+00 0.  1.
         23    2    1    2    0    0  0.81494211658E+03  0.79255771079E+03  0.63670672562E+03  0.13061503607E+04  0.91405316760E+02 0.  0.
         13    1    3    3    0    0  0.23661502084E+03  0.28604580076E+03  0.22463438647E+03  0.43390030629E+03  0.00000000000E+00 0. -1.
        -13    1    3    3    0    0  0.57832709575E+03  0.50651191003E+03  0.41207233915E+03  0.87225005438E+03  0.00000000000E+00 0.  1.
         22    1    1    2    0    0 -0.81494211658E+03 -0.79255771079E+03 -0.21477183229E+04  0.24300148915E+04  0.00000000000E+00 0.  1.
<mgrwt>
<rscale>  0 0.34169833E+04</rscale>
<asrwt>0</asrwt>
<pdfrwt beam="1">  1        2 0.40362899E+00 0.34169833E+04</pdfrwt>
<pdfrwt beam="2">  1       -2 0.17116567E+00 0.34169833E+04</pdfrwt>
<totfact> 0.50976356E-01</totfact>
</mgrwt>
</event>
<event>
 6    1  0.2436515E-005  0.3968168E+04  0.7818608E-02  0.8010999E-01
         -2   -1    0    0    0  501 -0.00000000000E+00  0.00000000000E+00  0.16699314511E+04  0.16699314511E+04  0.00000000000E+00 0. -1.
          2   -1    0    0  501    0  0.00000000000E+00 -0.00000000000E+00 -0.23573353490E+04  0.23573353490E+04  0.00000000000E+00 0.  1.
         23    2    1    2    0    0  0.19058419261E+04  0.54246390177E+03 -0.26869414223E+03  0.20019721569E+04  0.95892871499E+02 0.  0.
         13    1    3    3    0    0  0.38618770672E+03  0.11252043083E+03 -0.15863519744E+02  0.40255862112E+03  0.00000000000E+00 0. -1.
        -13    1    3    3    0    0  0.15196542194E+04  0.42994347094E+03 -0.25283062249E+03  0.15994135358E+04  0.00000000000E+00 0.  1.
         22    1    1    2    0    0 -0.19058419261E+04 -0.54246390177E+03 -0.41870975570E+03  0.20252946432E+04  0.00000000000E+00 0.  1.
<mgrwt>
<rscale>  0 0.39681676E+04</rscale>
<asrwt>0</asrwt>
<pdfrwt beam="1">  1        2 0.36266698E+00 0.39681676E+04</pdfrwt>
<pdfrwt beam="2">  1       -2 0.25691253E+00 0.39681676E+04</pdfrwt>
<totfact> 0.19384064E-01</totfact>
</mgrwt>
</event>
<event>
 6    1  0.2436515E-005  0.1819891E+04  0.7818608E-02  0.8695793E-01
          2   -1    0    0  501    0  0.00000000000E+00  0.00000000000E+00  0.67079473254E+03  0.67079473254E+03  0.00000000000E+00 0.  1.
         -2   -1    0    0    0  501 -0.00000000000E+00 -0.00000000000E+00 -0.12343579267E+04  0.12343579267E+04  0.00000000000E+00 0. -1.
         23    2    1    2    0    0 -0.58406937967E+03 -0.19403343459E+03  0.41540001755E+03  0.74879848172E+03  0.96726302763E+02 0.  0.
         13    1    3    3    0    0 -0.24217514209E+03 -0.62485491125E+02  0.11606271129E+03  0.27572411755E+03  0.00000000000E+00 0.  1.
        -13    1    3    3    0    0 -0.34189423758E+03 -0.13154794346E+03  0.29933730626E+03  0.47307436417E+03  0.00000000000E+00 0. -1.
         22    1    1    2    0    0  0.58406937967E+03  0.19403343459E+03 -0.97896321175E+03  0.11563541776E+04  0.00000000000E+00 0. -1.
<mgrwt>
<rscale>  0 0.18198910E+04</rscale>
<asrwt>0</asrwt>
<pdfrwt beam="1">  1        2 0.10319919E+00 0.18198910E+04</pdfrwt>
<pdfrwt beam="2">  1       -2 0.18990122E+00 0.18198910E+04</pdfrwt>
<totfact> 0.63211220E+00</totfact>
</mgrwt>
</event>
<event>
 6    1  0.2436515E-005  0.5848769E+04  0.7818608E-02  0.7709441E-01
         -2   -1    0    0    0  501 -0.00000000000E+00  0.00000000000E+00  0.19052474256E+04  0.19052474256E+04  0.00000000000E+00 0. -1.
          2   -1    0    0  501    0  0.00000000000E+00 -0.00000000000E+00 -0.44886688941E+04  0.44886688941E+04  0.00000000000E+00 0.  1.
         23    2    1    2    0    0  0.31726943864E+02  0.28273944542E+04 -0.47929336414E+03  0.28693566198E+04  0.91210106828E+02 0.  0.
         13    1    3    3    0    0  0.51100845901E+02  0.26277746948E+04 -0.45434012375E+03  0.26672525360E+04  0.00000000000E+00 0.  1.
        -13    1    3    3    0    0 -0.19373902037E+02  0.19961975947E+03 -0.24953240388E+02  0.20210408372E+03  0.00000000000E+00 0. -1.
         22    1    1    2    0    0 -0.31726943864E+02 -0.28273944542E+04 -0.21041281043E+04  0.35245596999E+04  0.00000000000E+00 0.  1.
<mgrwt>
<rscale>  0 0.58487691E+04</rscale>
<asrwt>0</asrwt>
<pdfrwt beam="1">  1        2 0.69056444E+00 0.58487691E+04</pdfrwt>
<pdfrwt beam="2">  1       -2 0.29311499E+00 0.58487691E+04</pdfrwt>
<totfact> 0.29770091E-03</totfact>
</mgrwt>
</event>
<event>
 6    1  0.2436515E-005  0.1992810E+04  0.7818608E-02  0.8609990E-01
          2   -1    0    0  501    0  0.00000000000E+00  0.00000000000E+00  0.15952082652E+04  0.15952082652E+04  0.00000000000E+00 0.  1.
         -2   -1    0    0    0  501 -0.00000000000E+00 -0.00000000000E+00 -0.62237822913E+03  0.62237822913E+03  0.00000000000E+00 0. -1.
         23    2    1    2    0    0  0.24327049619E+03 -0.21093844790E+03 -0.55929828327E+03  0.65198988279E+03  0.92739821349E+02 0.  0.
         11    1    3    3    0    0  0.20228777762E+03 -0.17007008968E+03 -0.37464887864E+03  0.45848223809E+03  0.00000000000E+00 0. -1.
        -11    1    3    3    0    0  0.40982718572E+02 -0.40868358228E+02 -0.18464940463E+03  0.19350764470E+03  0.00000000000E+00 0.  1.
         22    1    1    2    0    0 -0.24327049619E+03  0.21093844790E+03  0.15321283193E+04  0.15655966115E+04  0.00000000000E+00 0.  1.
<mgrwt>
<rscale>  0 0.19928100E+04</rscale>
<asrwt>0</asrwt>
<pdfrwt beam="1">  1        2 0.24541665E+00 0.19928100E+04</pdfrwt>
<pdfrwt beam="2">  1       -2 0.95750498E-01 0.19928100E+04</pdfrwt>
<totfact> 0.95449154E+00</totfact>
</mgrwt>
</event>
<event>
 6    1  0.2436515E-005  0.3106430E+04  0.7818608E-02  0.8213976E-01
          2   -1    0    0  501    0  0.00000000000E+00  0.00000000000E+00  0.17290098912E+04  0.17290098912E+04  0.00000000000E+00 0. -1.
         -2   -1    0    0    0  501 -0.00000000000E+00 -0.00000000000E+00 -0.13952934951E+04  0.13952934951E+04  0.00000000000E+00 0.  1.
         23    2    1    2    0    0  0.14218247264E+03 -0.11050140752E+04  0.12535626260E+04  0.16795234554E+04  0.90043422191E+02 0.  0.
         11    1    3    3    0    0 -0.33827210814E+01 -0.27526377738E+03  0.31562136767E+03  0.41880596661E+03  0.00000000000E+00 0.  1.
        -11    1    3    3    0    0  0.14556519372E+03 -0.82975029784E+03  0.93794125833E+03  0.12607174888E+04  0.00000000000E+00 0. -1.
         22    1    1    2    0    0 -0.14218247264E+03  0.11050140752E+04 -0.91984622995E+03  0.14447799309E+04  0.00000000000E+00 0.  1.
<mgrwt>
<rscale>  0 0.31064296E+04</rscale>
<asrwt>0</asrwt>
<pdfrwt beam="1">  1        2 0.26600152E+00 0.31064296E+04</pdfrwt>
<pdfrwt beam="2">  1       -2 0.21466054E+00 0.31064296E+04</pdfrwt>
<totfact> 0.85709629E-01</totfact>
</mgrwt>
</event>
<event>
 6    1  0.2436515E-005  0.2947629E+04  0.7818608E-02  0.8258846E-01
         -2   -1    0    0    0  501 -0.00000000000E+00  0.00000000000E+00  0.11495887190E+04  0.11495887190E+04  0.00000000000E+00 0. -1.
          2   -1    0    0  501    0  0.00000000000E+00 -0.00000000000E+00 -0.18894834480E+04  0.18894834480E+04  0.00000000000E+00 0.  1.
         23    2    1    2    0    0 -0.99183716319E+02 -0.14650141083E+04 -0.25665803131E+03  0.14932321193E+04  0.88119635401E+02 0.  0.
         13    1    3    3    0    0 -0.19943071974E+02 -0.49817802897E+03 -0.12726008854E+03  0.51456214863E+03  0.00000000000E+00 0.  1.
        -13    1    3    3    0    0 -0.79240644345E+02 -0.96683607930E+03 -0.12939794278E+03  0.97866997070E+03  0.00000000000E+00 0. -1.
         22    1    1    2    0    0  0.99183716319E+02  0.14650141083E+04 -0.48323669775E+03  0.15458400477E+04  0.00000000000E+00 0.  1.
<mgrwt>
<rscale>  0 0.29476288E+04</rscale>
<asrwt>0</asrwt>
<pdfrwt beam="1">  1        2 0.29068976E+00 0.29476288E+04</pdfrwt>
<pdfrwt beam="2">  1       -2 0.17685980E+00 0.29476288E+04</pdfrwt>
<totfact> 0.12617224E+00</totfact>
</mgrwt>
</event>
<event>
 6    1  0.2436515E-005  0.2276095E+04  0.7818608E-02  0.8487406E-01
          4   -1    0    0  501    0  0.00000000000E+00  0.00000000000E+00  0.15616207146E+04  0.15616207146E+04  0.00000000000E+00 0.  1.
         -4   -1    0    0    0  501 -0.00000000000E+00 -0.00000000000E+00 -0.82936432901E+03  0.82936432901E+03  0.00000000000E+00 0. -1.
         23    2    1    2    0    0 -0.42638213131E+03 -0.41751181692E+03  0.13824982599E+04  0.15084136107E+04  0.88838861817E+02 0.  0.
         11    1    3    3    0    0 -0.13104925904E+02 -0.43829728909E+02  0.90827576010E+02  0.10169775210E+03  0.00000000000E+00 0. -1.
        -11    1    3    3    0    0 -0.41327720540E+03 -0.37368208801E+03  0.12916706839E+04  0.14067158586E+04  0.00000000000E+00 0.  1.
         22    1    1    2    0    0  0.42638213131E+03  0.41751181692E+03 -0.65024187424E+03  0.88257143290E+03  0.00000000000E+00 0. -1.
<mgrwt>
<rscale>  0 0.22760954E+04</rscale>
<asrwt>0</asrwt>
<pdfrwt beam="1">  1        4 0.24024934E+00 0.22760954E+04</pdfrwt>
<pdfrwt beam="2">  1       -4 0.12759451E+00 0.22760954E+04</pdfrwt>
<totfact> 0.59806831E-02</totfact>
</mgrwt>
</event>
<event>
 6    1  0.2436515E-005  0.5367657E+04  0.7818608E-02  0.7774167E-01
         -4   -1    0    0    0  501 -0.00000000000E+00  0.00000000000E+00  0.22577611412E+04  0.22577611412E+04  0.00000000000E+00 0. -1.
          4   -1    0    0  501    0  0.00000000000E+00 -0.00000000000E+00 -0.31903001751E+04  0.31903001751E+04  0.00000000000E+00 0.  1.
         23    2    1    2    0    0 -0.94960422739E+03  0.11036311018E+04 -0.27538068642E+04  0.31163738786E+04  0.92650463817E+02 0.  0.
         13    1    3    3    0    0 -0.26712612719E+03  0.27287973940E+03 -0.65387637994E+03  0.75721465929E+03  0.00000000000E+00 0. -1.
        -13    1    3    3    0    0 -0.68247810020E+03  0.83075136240E+03 -0.20999304842E+04  0.23591592193E+04  0.00000000000E+00 0.  1.
         22    1    1    2    0    0  0.94960422739E+03 -0.11036311018E+04  0.18212678303E+04  0.23316874377E+04  0.00000000000E+00 0. -1.
<mgrwt>
<rscale>  0 0.53676571E+04</rscale>
<asrwt>0</asrwt>
<pdfrwt beam="1">  1        4 0.49081541E+00 0.53676571E+04</pdfrwt>
<pdfrwt beam="2">  1       -4 0.34734787E+00 0.53676571E+04</pdfrwt>
<totfact> 0.29866134E-05</totfact>
</mgrwt>
</event>
<event>
 6    1  0.2436515E-005  0.5291021E+04  0.7818608E-02  0.7785118E-01
         -2   -1    0    0    0  501 -0.00000000000E+00  0.00000000000E+00  0.15507515756E+04  0.15507515756E+04  0.00000000000E+00 0. -1.
          2   -1    0    0  501    0  0.00000000000E+00 -0.00000000000E+00 -0.45131194292E+04  0.45131194292E+04  0.00000000000E+00 0.  1.
         23    2    1    2    0    0 -0.14358923735E+04  0.17621490881E+04  0.67810292331E+02  0.22758720722E+04  0.89661229732E+02 0.  0.
         13    1    3    3    0    0 -0.96936558840E+03  0.12126401530E+04  0.71630462995E+01  0.15524873893E+04  0.00000000000E+00 0.  1.
        -13    1    3    3    0    0 -0.46652678514E+03  0.54950893509E+03  0.60647246031E+02  0.72338468290E+03  0.00000000000E+00 0. -1.
         22    1    1    2    0    0  0.14358923735E+04 -0.17621490881E+04 -0.30301781459E+04  0.37879989326E+04  0.00000000000E+00 0. -1.
<mgrwt>
<rscale>  0 0.52910215E+04</rscale>
<asrwt>0</asrwt>
<pdfrwt beam="1">  1        2 0.69432606E+00 0.52910215E+04</pdfrwt>
<pdfrwt beam="2">  1       -2 0.23857717E+00 0.52910215E+04</pdfrwt>
<totfact> 0.63582908E-03</totfact>
</mgrwt>
</event>
<event>
 6    1  0.2436515E-005  0.1901242E+04  0.7818608E-02  0.8654239E-01
          2   -1    0    0  501    0  0.00000000000E+00  0.00000000000E+00  0.32730587537E+04  0.32730587537E+04  0.00000000000E+00 0.  1.
         -2   -1    0    0    0  501 -0.00000000000E+00 -0.00000000000E+00 -0.27609647014E+03  0.27609647014E+03  0.00000000000E+00 0. -1.
         23    2    1    2    0    0  0.43764026029E+03 -0.77451128390E+03  0.88828193579E+03  0.12605028834E+04  0.91793220319E+02 0.  0.
         13    1    3    3    0    0  0.24276048541E+03 -0.51856450408E+03  0.57570931974E+03  0.81196244926E+03  0.00000000000E+00 0.  1.
        -13    1    3    3    0    0  0.19487977488E+03 -0.25594677982E+03  0.31257261605E+03  0.44854043414E+03  0.00000000000E+00 0. -1.
         22    1    1    2    0    0 -0.43764026029E+03  0.77451128390E+03  0.21086803478E+04  0.22886523404E+04  0.00000000000E+00 0.  1.
<mgrwt>
<rscale>  0 0.19012417E+04</rscale>
<asrwt>0</asrwt>
<pdfrwt beam="1">  1        2 0.50354747E+00 0.19012417E+04</pdfrwt>
<pdfrwt beam="2">  1       -2 0.42476382E-01 0.19012417E+04</pdfrwt>
<totfact> 0.57394053E+00</totfact>
</mgrwt>
</event>
<event>
 6    1  0.2436515E-005  0.1654575E+04  0.7818608E-02  0.8787705E-01
          2   -1    0    0  501    0  0.00000000000E+00  0.00000000000E+00  0.76954349924E+03  0.76954349924E+03  0.00000000000E+00 0.  1.
         -2   -1    0    0    0  501 -0.00000000000E+00 -0.00000000000E+00 -0.88936428371E+03  0.88936428371E+03  0.00000000000E+00 0. -1.
         23    2    1    2    0    0  0.55170375153E+02 -0.77035362843E+03 -0.34998373879E+03  0.85301481942E+03  0.93043976709E+02 0.  0.
         11    1    3    3    0    0  0.55662130761E+02 -0.20986188470E+03 -0.87134164147E+02  0.23395009299E+03  0.00000000000E+00 0. -1.
        -11    1    3    3    0    0 -0.49175560776E+00 -0.56049174373E+03 -0.26284957465E+03  0.61906472642E+03  0.00000000000E+00 0.  1.
         22    1    1    2    0    0 -0.55170375153E+02  0.77035362843E+03  0.23016295432E+03  0.80589296353E+03  0.00000000000E+00 0.  1.
<mgrwt>
<rscale>  0 0.16545749E+04</rscale>
<asrwt>0</asrwt>
<pdfrwt beam="1">  1        2 0.11839131E+00 0.16545749E+04</pdfrwt>
<pdfrwt beam="2">  1       -2 0.13682527E+00 0.16545749E+04</pdfrwt>
<totfact> 0.13194252E+01</totfact>
</mgrwt>
</event>
<event>
 6    1  0.2436515E-005  0.1285863E+04  0.7818608E-02  0.9040851E-01
          2   -1    0    0  501    0  0.00000000000E+00  0.00000000000E+00  0.22162355733E+04  0.22162355733E+04  0.00000000000E+00 0.  1.
         -2   -1    0    0    0  501 -0.00000000000E+00 -0.00000000000E+00 -0.18651496704E+03  0.18651496704E+03  0.00000000000E+00 0. -1.
         23    2    1    2    0    0  0.39341630051E+02  0.60268689811E+03  0.14139653375E+04  0.15402345625E+04  0.90803474220E+02 0.  0.
         11    1    3    3    0    0  0.25890646608E+02  0.19183722127E+03  0.55928783211E+03  0.59184011708E+03  0.00000000000E+00 0. -1.
        -11    1    3    3    0    0  0.13450983444E+02  0.41084967684E+03  0.85467750536E+03  0.94839444541E+03  0.00000000000E+00 0.  1.
         22    1    1    2    0    0 -0.39341630051E+02 -0.60268689811E+03  0.61575526883E+03  0.86251597788E+03  0.00000000000E+00 0. -1.
<mgrwt>
<rscale>  0 0.12858633E+04</rscale>
<asrwt>0</asrwt>
<pdfrwt beam="1">  1        2 0.34095930E+00 0.12858633E+04</pdfrwt>
<pdfrwt beam="2">  1       -2 0.28694612E-01 0.12858633E+04</pdfrwt>
<totfact> 0.55391441E+01</totfact>
</mgrwt>
</event>
<event>
 6    1  0.2436515E-005  0.2475340E+04  0.7818608E-02  0.8411824E-01
          2   -1    0    0  501    0  0.00000000000E+00  0.00000000000E+00  0.15043739528E+04  0.15043739528E+04  0.00000000000E+00 0.  1.
         -2   -1    0    0    0  501 -0.00000000000E+00 -0.00000000000E+00 -0.10182486831E+04  0.10182486831E+04  0.00000000000E+00 0. -1.
         23    2    1    2    0    0 -0.24146158807E+03  0.18729939015E+03 -0.97711253409E+03  0.10278150795E+04  0.90940492768E+02 0.  0.
         13    1    3    3    0    0 -0.21462675840E+03  0.17498407557E+03 -0.76342123620E+03  0.81209362515E+03  0.00000000000E+00 0. -1.
        -13    1    3    3    0    0 -0.26834829673E+02  0.12315314581E+02 -0.21369129789E+03  0.21572145432E+03  0.00000000000E+00 0.  1.
         22    1    1    2    0    0  0.24146158807E+03 -0.18729939015E+03  0.14632378039E+04  0.14948075564E+04  0.00000000000E+00 0.  1.
<mgrwt>
<rscale>  0 0.24753398E+04</rscale>
<asrwt>0</asrwt>
<pdfrwt beam="1">  1        2 0.23144215E+00 0.24753398E+04</pdfrwt>
<pdfrwt beam="2">  1       -2 0.15665364E+00 0.24753398E+04</pdfrwt>
<totfact> 0.30096708E+00</totfact>
</mgrwt>
</event>
<event>
 6    1  0.2436515E-005  0.8576284E+03  0.7818608E-02  0.9480155E-01
         -2   -1    0    0    0  501 -0.00000000000E+00  0.00000000000E+00  0.57216516610E+02  0.57216516610E+02  0.00000000000E+00 0. -1.
          2   -1    0    0  501    0  0.00000000000E+00 -0.00000000000E+00 -0.32137852720E+04  0.32137852720E+04  0.00000000000E+00 0.  1.
         23    2    1    2    0    0  0.22889165819E+03 -0.48841094054E+01 -0.29573092836E+04  0.29674897084E+04  0.88891648212E+02 0.  0.
         11    1    3    3    0    0  0.52380014231E+02  0.59598792297E+01 -0.32511263642E+03  0.32935909341E+03  0.00000000000E+00 0. -1.
        -11    1    3    3    0    0  0.17651164396E+03 -0.10843988635E+02 -0.26321966472E+04  0.26381306150E+04  0.00000000000E+00 0.  1.
         22    1    1    2    0    0 -0.22889165819E+03  0.48841094054E+01 -0.19925947181E+03  0.30351208019E+03  0.00000000000E+00 0. -1.
<mgrwt>
<rscale>  0 0.85762835E+03</rscale>
<asrwt>0</asrwt>
<pdfrwt beam="1">  1        2 0.49442871E+00 0.85762835E+03</pdfrwt>
<pdfrwt beam="2">  1       -2 0.88025373E-02 0.85762835E+03</pdfrwt>
<totfact> 0.11252373E+02</totfact>
</mgrwt>
</event>
<event>
 6    1  0.2436515E-005  0.4120465E+04  0.7818608E-02  0.7980676E-01
         -2   -1    0    0    0  501 -0.00000000000E+00  0.00000000000E+00  0.13233894423E+04  0.13233894423E+04  0.00000000000E+00 0. -1.
          2   -1    0    0  501    0  0.00000000000E+00 -0.00000000000E+00 -0.32073388300E+04  0.32073388300E+04  0.00000000000E+00 0.  1.
         23    2    1    2    0    0 -0.15468667445E+03 -0.20408013209E+04 -0.11932513256E+04  0.23706676686E+04  0.86130541693E+02 0.  0.
         11    1    3    3    0    0 -0.26453278537E+02 -0.64584024663E+03 -0.41539397964E+03  0.76834989324E+03  0.00000000000E+00 0.  1.
        -11    1    3    3    0    0 -0.12823339591E+03 -0.13949610743E+04 -0.77785734597E+03  0.16023177754E+04  0.00000000000E+00 0. -1.
         22    1    1    2    0    0  0.15468667445E+03  0.20408013209E+04 -0.69069806211E+03  0.21600606037E+04  0.00000000000E+00 0.  1.
<mgrwt>
<rscale>  0 0.41204652E+04</rscale>
<asrwt>0</asrwt>
<pdfrwt beam="1">  1        2 0.49343674E+00 0.41204652E+04</pdfrwt>
<pdfrwt beam="2">  1       -2 0.20359838E+00 0.41204652E+04</pdfrwt>
<totfact> 0.12609988E-01</totfact>
</mgrwt>
</event>
<event>
 6    1  0.2436515E-005  0.2472878E+04  0.7818608E-02  0.8412712E-01
          2   -1    0    0  501    0  0.00000000000E+00  0.00000000000E+00  0.42372107460E+04  0.42372107460E+04  0.00000000000E+00 0.  1.
         -2   -1    0    0    0  501 -0.00000000000E+00 -0.00000000000E+00 -0.36079888353E+03  0.36079888353E+03  0.00000000000E+00 0. -1.
         23    2    1    2    0    0  0.31954055935E+03 -0.10009452908E+04  0.73388672460E+03  0.12844825229E+04  0.85486741318E+02 0.  0.
         13    1    3    3    0    0  0.15855998354E+03 -0.39364317540E+03  0.33002547770E+03  0.53759932464E+03  0.00000000000E+00 0.  1.
        -13    1    3    3    0    0  0.16098057581E+03 -0.60730211536E+03  0.40386124691E+03  0.74688319828E+03  0.00000000000E+00 0. -1.
         22    1    1    2    0    0 -0.31954055935E+03  0.10009452908E+04  0.31425251379E+04  0.33135271066E+04  0.00000000000E+00 0.  1.
<mgrwt>
<rscale>  0 0.24728776E+04</rscale>
<asrwt>0</asrwt>
<pdfrwt beam="1">  1        2 0.65187854E+00 0.24728776E+04</pdfrwt>
<pdfrwt beam="2">  1       -2 0.55507524E-01 0.24728776E+04</pdfrwt>
<totfact> 0.59113474E-01</totfact>
</mgrwt>
</event>
<event>
 6    1  0.2436515E-005  0.1590792E+04  0.7818608E-02  0.8826225E-01
         -2   -1    0    0    0  501 -0.00000000000E+00  0.00000000000E+00  0.20248980989E+04  0.20248980989E+04  0.00000000000E+00 0. -1.
          2   -1    0    0  501    0  0.00000000000E+00 -0.00000000000E+00 -0.31243773259E+03  0.31243773259E+03  0.00000000000E+00 0.  1.
         23    2    1    2    0    0 -0.33134781561E+03 -0.21394027335E+03  0.18695088375E+04  0.19128054583E+04  0.90551710499E+02 0.  0.
         13    1    3    3    0    0 -0.18908156510E+03 -0.69156743454E+02  0.89061095371E+03  0.91308398534E+03  0.00000000000E+00 0.  1.
        -13    1    3    3    0    0 -0.14226625051E+03 -0.14478352990E+03  0.97889788378E+03  0.99972147293E+03  0.00000000000E+00 0. -1.
         22    1    1    2    0    0  0.33134781561E+03  0.21394027335E+03 -0.15704847120E+03  0.42453037321E+03  0.00000000000E+00 0.  1.
<mgrwt>
<rscale>  0 0.15907917E+04</rscale>
<asrwt>0</asrwt>
<pdfrwt beam="1">  1        2 0.48067345E-01 0.15907917E+04</pdfrwt>
<pdfrwt beam="2">  1       -2 0.31152278E+00 0.15907917E+04</pdfrwt>
<totfact> 0.27290617E+00</totfact>
</mgrwt>
</event>
<event>
 6    1  0.2436515E-005  0.2563797E+04  0.7818608E-02  0.8380604E-01
          2   -1    0    0  501    0  0.00000000000E+00  0.00000000000E+00  0.28832417677E+04  0.28832417677E+04  0.00000000000E+00 0.  1.
         -2   -1    0    0    0  501 -0.00000000000E+00 -0.00000000000E+00 -0.56993613031E+03  0.56993613031E+03  0.00000000000E+00 0. -1.
         23    2    1    2    0    0  0.80731408879E+03  0.93347853582E+02  0.24905528818E+04  0.26213807801E+04  0.91179368899E+02 0.  0.
         13    1    3    3    0    0  0.17076063350E+03  0.42446455268E+02  0.44736473798E+03  0.48072456178E+03  0.00000000000E+00 0.  1.
        -13    1    3    3    0    0  0.63655345529E+03  0.50901398314E+02  0.20431881438E+04  0.21406562183E+04  0.00000000000E+00 0. -1.
         22    1    1    2    0    0 -0.80731408879E+03 -0.93347853582E+02 -0.17724724444E+03  0.83179711793E+03  0.00000000000E+00 0. -1.
<mgrwt>
<rscale>  0 0.25637969E+04</rscale>
<asrwt>0</asrwt>
<pdfrwt beam="1">  1        2 0.44357565E+00 0.25637969E+04</pdfrwt>
<pdfrwt beam="2">  1       -2 0.87682483E-01 0.25637969E+04</pdfrwt>
<totfact> 0.20481821E+00</totfact>
</mgrwt>
</event>
<event>
 6    1  0.2436515E-005  0.3335363E+04  0.7818608E-02  0.8153955E-01
          1   -1    0    0  501    0  0.00000000000E+00  0.00000000000E+00  0.31997954844E+04  0.31997954844E+04  0.00000000000E+00 0.  1.
         -1   -1    0    0    0  501 -0.00000000000E+00 -0.00000000000E+00 -0.86916832426E+03  0.86916832426E+03  0.00000000000E+00 0. -1.
         23    2    1    2    0    0  0.23646892559E+03 -0.16441340945E+04  0.13293710696E+04  0.21294772188E+04  0.91385507843E+02 0.  0.
         13    1    3    3    0    0  0.12763850601E+03 -0.64895209359E+03  0.56630319221E+03  0.87070644508E+03  0.00000000000E+00 0.  1.
        -13    1    3    3    0    0  0.10883041958E+03 -0.99518200093E+03  0.76306787736E+03  0.12587707737E+04  0.00000000000E+00 0. -1.
         22    1    1    2    0    0 -0.23646892559E+03  0.16441340945E+04  0.10012560906E+04  0.19394865899E+04  0.00000000000E+00 0.  1.
<mgrwt>
<rscale>  0 0.33353626E+04</rscale>
<asrwt>0</asrwt>
<pdfrwt beam="1">  1        1 0.49227622E+00 0.33353626E+04</pdfrwt>
<pdfrwt beam="2">  1       -1 0.13371821E+00 0.33353626E+04</pdfrwt>
<totfact> 0.16585664E-01</totfact>
</mgrwt>
</event>
<event>
 6    1  0.2436515E-005  0.2127276E+04  0.7818608E-02  0.8549322E-01
          2   -1    0    0  501    0  0.00000000000E+00  0.00000000000E+00  0.83531394423E+03  0.83531394423E+03  0.00000000000E+00 0.  1.
         -2   -1    0    0    0  501 -0.00000000000E+00 -0.00000000000E+00 -0.13543717997E+04  0.13543717997E+04  0.00000000000E+00 0. -1.
         23    2    1    2    0    0 -0.17603277386E+03  0.78059138237E+03  0.45829900418E+03  0.92654011700E+03  0.90156350183E+02 0.  0.
         13    1    3    3    0    0 -0.61148824264E+02  0.46780452263E+03  0.25708031043E+03  0.53728068653E+03  0.00000000000E+00 0.  1.
        -13    1    3    3    0    0 -0.11488394960E+03  0.31278685974E+03  0.20121869375E+03  0.38925943047E+03  0.00000000000E+00 0. -1.
         22    1    1    2    0    0  0.17603277386E+03 -0.78059138237E+03 -0.97735685963E+03  0.12631456269E+04  0.00000000000E+00 0. -1.
<mgrwt>
<rscale>  0 0.21272759E+04</rscale>
<asrwt>0</asrwt>
<pdfrwt beam="1">  1        2 0.12850984E+00 0.21272759E+04</pdfrwt>
<pdfrwt beam="2">  1       -2 0.20836489E+00 0.21272759E+04</pdfrwt>
<totfact> 0.35047006E+00</totfact>
</mgrwt>
</event>
<event>
 6    1  0.2624167E-005  0.3584740E+04  0.7818608E-02  0.8093996E-01
         -2   -1    0    0    0  501 -0.00000000000E+00  0.00000000000E+00  0.20932046818E+04  0.20932046818E+04  0.00000000000E+00 0. -1.
          2   -1    0    0  501    0  0.00000000000E+00 -0.00000000000E+00 -0.15347714774E+04  0.15347714774E+04  0.00000000000E+00 0.  1.
         23    2    1    2    0    0 -0.99716201532E+03 -0.14176362542E+04  0.73676325750E+03  0.18856139002E+04  0.93247247320E+02 0.  0.
         11    1    3    3    0    0 -0.24571098061E+03 -0.40504904914E+03  0.23010428374E+03  0.52667504174E+03  0.00000000000E+00 0.  1.
        -11    1    3    3    0    0 -0.75145103471E+03 -0.10125872050E+04  0.50665897376E+03  0.13589388585E+04  0.00000000000E+00 0. -1.
         22    1    1    2    0    0  0.99716201532E+03  0.14176362542E+04 -0.17833005305E+03  0.17423622590E+04  0.00000000000E+00 0.  1.
<mgrwt>
<rscale>  0 0.35847403E+04</rscale>
<asrwt>0</asrwt>
<pdfrwt beam="1">  1        2 0.23611869E+00 0.35847403E+04</pdfrwt>
<pdfrwt beam="2">  1       -2 0.32203149E+00 0.35847403E+04</pdfrwt>
<totfact> 0.23026928E-01</totfact>
</mgrwt>
</event>
<event>
 6    1  0.2436515E-005  0.3504308E+04  0.7818608E-02  0.8112770E-01
          2   -1    0    0  501    0  0.00000000000E+00  0.00000000000E+00  0.34230838502E+04  0.34230838502E+04  0.00000000000E+00 0.  1.
         -2   -1    0    0    0  501 -0.00000000000E+00 -0.00000000000E+00 -0.89686478949E+03  0.89686478949E+03  0.00000000000E+00 0. -1.
         23    2    1    2    0    0 -0.30052869658E+03 -0.13964736286E+04  0.25123051006E+04  0.28914355347E+04  0.90919965891E+02 0.  0.
         11    1    3    3    0    0 -0.20686711697E+03 -0.81287650291E+03  0.14084941661E+04  0.16393346300E+04  0.00000000000E+00 0. -1.
        -11    1    3    3    0    0 -0.93661579606E+02 -0.58359712569E+03  0.11038109345E+04  0.12521009047E+04  0.00000000000E+00 0.  1.
         22    1    1    2    0    0  0.30052869658E+03  0.13964736286E+04  0.13913960133E+02  0.14285131050E+04  0.00000000000E+00 0. -1.
<mgrwt>
<rscale>  0 0.35043078E+04</rscale>
<asrwt>0</asrwt>
<pdfrwt beam="1">  1        2 0.52662828E+00 0.35043078E+04</pdfrwt>
<pdfrwt beam="2">  1       -2 0.13797920E+00 0.35043078E+04</pdfrwt>
<totfact> 0.28123336E-01</totfact>
</mgrwt>
</event>
<event>
 6    1  0.2436515E-005  0.3087449E+03  0.7818608E-02  0.1080949E+00
         -2   -1    0    0    0  501 -0.00000000000E+00  0.00000000000E+00  0.33456894537E+02  0.33456894537E+02  0.00000000000E+00 0. -1.
          2   -1    0    0  501    0  0.00000000000E+00 -0.00000000000E+00 -0.71228541650E+03  0.71228541650E+03  0.00000000000E+00 0.  1.
         23    2    1    2    0    0 -0.26985132762E+02 -0.99122093449E+02 -0.13554357852E+03  0.19283009687E+03  0.90873526300E+02 0.  0.
         11    1    3    3    0    0 -0.45545908500E+01 -0.21892743583E+02  0.11564468709E+02  0.25174857615E+02  0.00000000000E+00 0. -1.
        -11    1    3    3    0    0 -0.22430541912E+02 -0.77229349866E+02 -0.14710804723E+03  0.16765523926E+03  0.00000000000E+00 0.  1.
         22    1    1    2    0    0  0.26985132762E+02  0.99122093449E+02 -0.54328494345E+03  0.55291221417E+03  0.00000000000E+00 0.  1.
<mgrwt>
<rscale>  0 0.30874493E+03</rscale>
<asrwt>0</asrwt>
<pdfrwt beam="1">  1        2 0.10958236E+00 0.30874493E+03</pdfrwt>
<pdfrwt beam="2">  1       -2 0.51472150E-02 0.30874493E+03</pdfrwt>
<totfact> 0.76968915E+03</totfact>
</mgrwt>
</event>
<event>
 6    1  0.2436515E-005  0.2243267E+04  0.7818608E-02  0.8500632E-01
         -2   -1    0    0    0  501 -0.00000000000E+00  0.00000000000E+00  0.16190152140E+04  0.16190152140E+04  0.00000000000E+00 0. -1.
          2   -1    0    0  501    0  0.00000000000E+00 -0.00000000000E+00 -0.77705366475E+03  0.77705366475E+03  0.00000000000E+00 0.  1.
         23    2    1    2    0    0 -0.94409922031E+02 -0.52200274690E+03  0.14749377541E+04  0.15702002591E+04  0.93206083771E+02 0.  0.
         11    1    3    3    0    0 -0.86164650160E+01 -0.15869970464E+03  0.55785850639E+03  0.58005685314E+03  0.00000000000E+00 0. -1.
        -11    1    3    3    0    0 -0.85793457015E+02 -0.36330304226E+03  0.91707924767E+03  0.99014340592E+03  0.00000000000E+00 0.  1.
         22    1    1    2    0    0  0.94409922031E+02  0.52200274690E+03 -0.63297620481E+03  0.82586861970E+03  0.00000000000E+00 0.  1.
<mgrwt>
<rscale>  0 0.22432670E+04</rscale>
<asrwt>0</asrwt>
<pdfrwt beam="1">  1        2 0.11954672E+00 0.22432670E+04</pdfrwt>
<pdfrwt beam="2">  1       -2 0.24907926E+00 0.22432670E+04</pdfrwt>
<totfact> 0.21225450E+00</totfact>
</mgrwt>
</event>
<event>
 6    1  0.2436515E-005  0.3108506E+04  0.7818608E-02  0.8213407E-01
          2   -1    0    0  501    0  0.00000000000E+00  0.00000000000E+00  0.18175424607E+04  0.18175424607E+04  0.00000000000E+00 0.  1.
         -2   -1    0    0    0  501 -0.00000000000E+00 -0.00000000000E+00 -0.13291034312E+04  0.13291034312E+04  0.00000000000E+00 0. -1.
         23    2    1    2    0    0 -0.29815396649E+03  0.52552723084E+03 -0.12036755713E+04  0.13498914622E+04  0.91090179532E+02 0.  0.
         13    1    3    3    0    0 -0.17361251753E+03  0.22968688705E+03 -0.62569436213E+03  0.68876034085E+03  0.00000000000E+00 0.  1.
        -13    1    3    3    0    0 -0.12454144896E+03  0.29584034379E+03 -0.57798120915E+03  0.66113112138E+03  0.00000000000E+00 0. -1.
         22    1    1    2    0    0  0.29815396649E+03 -0.52552723084E+03  0.16921146008E+04  0.17967544296E+04  0.00000000000E+00 0.  1.
<mgrwt>
<rscale>  0 0.31085057E+04</rscale>
<asrwt>0</asrwt>
<pdfrwt beam="1">  1        2 0.27962192E+00 0.31085057E+04</pdfrwt>
<pdfrwt beam="2">  1       -2 0.20447745E+00 0.31085057E+04</pdfrwt>
<totfact> 0.89010317E-01</totfact>
</mgrwt>
</event>
<event>
 6    1  0.2436515E-005  0.3957291E+04  0.7818608E-02  0.8013218E-01
          2   -1    0    0  501    0  0.00000000000E+00  0.00000000000E+00  0.19803003424E+04  0.19803003424E+04  0.00000000000E+00 0.  1.
         -2   -1    0    0    0  501 -0.00000000000E+00 -0.00000000000E+00 -0.19769919733E+04  0.19769919733E+04  0.00000000000E+00 0. -1.
         23    2    1    2    0    0  0.18669410232E+02 -0.34870277369E+03  0.19482009176E+04  0.19812990979E+04  0.90095109232E+02 0.  0.
         13    1    3    3    0    0  0.29874032477E+02 -0.33653213754E+03  0.17436565381E+04  0.17760868392E+04  0.00000000000E+00 0. -1.
        -13    1    3    3    0    0 -0.11204622246E+02 -0.12170636145E+02  0.20454437951E+03  0.20521225873E+03  0.00000000000E+00 0.  1.
         22    1    1    2    0    0 -0.18669410232E+02  0.34870277369E+03 -0.19448925485E+04  0.19759932177E+04  0.00000000000E+00 0. -1.
<mgrwt>
<rscale>  0 0.39572909E+04</rscale>
<asrwt>0</asrwt>
<pdfrwt beam="1">  1        2 0.30466159E+00 0.39572909E+04</pdfrwt>
<pdfrwt beam="2">  1       -2 0.30415261E+00 0.39572909E+04</pdfrwt>
<totfact> 0.16258406E-01</totfact>
</mgrwt>
</event>
<event>
 6    1  0.2436515E-005  0.1169962E+04  0.7818608E-02  0.9139563E-01
          4   -1    0    0  501    0  0.00000000000E+00  0.00000000000E+00  0.78982961125E+03  0.78982961125E+03  0.00000000000E+00 0.  1.
         -4   -1    0    0    0  501 -0.00000000000E+00 -0.00000000000E+00 -0.43326122538E+03  0.43326122538E+03  0.00000000000E+00 0. -1.
         23    2    1    2    0    0 -0.44014856107E+03  0.37985619824E+03  0.19583770955E+03  0.61988619684E+03  0.88797530354E+02 0.  0.
         11    1    3    3    0    0 -0.22729448560E+03  0.25069882581E+03  0.97157022955E+02  0.35206841885E+03  0.00000000000E+00 0.  1.
        -11    1    3    3    0    0 -0.21285407547E+03  0.12915737244E+03  0.98680686598E+02  0.26781777799E+03  0.00000000000E+00 0. -1.
         22    1    1    2    0    0  0.44014856107E+03 -0.37985619824E+03  0.16073067632E+03  0.60320463979E+03  0.00000000000E+00 0.  1.
<mgrwt>
<rscale>  0 0.11699616E+04</rscale>
<asrwt>0</asrwt>
<pdfrwt beam="1">  1        4 0.12151225E+00 0.11699616E+04</pdfrwt>
<pdfrwt beam="2">  1       -4 0.66655573E-01 0.11699616E+04</pdfrwt>
<totfact> 0.21087665E+00</totfact>
</mgrwt>
</event>
<event>
 6    1  0.2436515E-005  0.1451976E+04  0.7818608E-02  0.8917032E-01
         -2   -1    0    0    0  501 -0.00000000000E+00  0.00000000000E+00  0.41331106331E+03  0.41331106331E+03  0.00000000000E+00 0. -1.
          2   -1    0    0  501    0  0.00000000000E+00 -0.00000000000E+00 -0.12752106878E+04  0.12752106878E+04  0.00000000000E+00 0.  1.
         23    2    1    2    0    0 -0.69430627539E+03  0.22886544654E+02 -0.19738332379E+03  0.72718574748E+03  0.85170046730E+02 0.  0.
         13    1    3    3    0    0 -0.53706054049E+03 -0.18127972590E+02 -0.15334016646E+03  0.55881647631E+03  0.00000000000E+00 0. -1.
        -13    1    3    3    0    0 -0.15724573490E+03  0.41014517243E+02 -0.44043157337E+02  0.16836927117E+03  0.00000000000E+00 0.  1.
         22    1    1    2    0    0  0.69430627539E+03 -0.22886544654E+02 -0.66451630068E+03  0.96133600361E+03  0.00000000000E+00 0. -1.
<mgrwt>
<rscale>  0 0.14519762E+04</rscale>
<asrwt>0</asrwt>
<pdfrwt beam="1">  1        2 0.19618626E+00 0.14519762E+04</pdfrwt>
<pdfrwt beam="2">  1       -2 0.63586317E-01 0.14519762E+04</pdfrwt>
<totfact> 0.37933282E+01</totfact>
</mgrwt>
</event>
<event>
 6    1  0.2436515E-005  0.3500014E+04  0.7818608E-02  0.8113787E-01
         -1   -1    0    0    0  501 -0.00000000000E+00  0.00000000000E+00  0.21722435166E+04  0.21722435166E+04  0.00000000000E+00 0. -1.
          1   -1    0    0  501    0  0.00000000000E+00 -0.00000000000E+00 -0.14098444003E+04  0.14098444003E+04  0.00000000000E+00 0.  1.
         23    2    1    2    0    0 -0.17311890006E+04 -0.17034239755E+03  0.56495048514E+03  0.18313686790E+04  0.93328986958E+02 0.  0.
         13    1    3    3    0    0 -0.74576201558E+03 -0.72778732964E+02  0.29204417635E+03  0.80420614820E+03  0.00000000000E+00 0. -1.
        -13    1    3    3    0    0 -0.98542698498E+03 -0.97563664585E+02  0.27290630879E+03  0.10271625308E+04  0.00000000000E+00 0.  1.
         22    1    1    2    0    0  0.17311890006E+04  0.17034239755E+03  0.19744863112E+03  0.17507192379E+04  0.00000000000E+00 0. -1.
<mgrwt>
<rscale>  0 0.35000145E+04</rscale>
<asrwt>0</asrwt>
<pdfrwt beam="1">  1        1 0.21689914E+00 0.35000145E+04</pdfrwt>
<pdfrwt beam="2">  1       -1 0.33419131E+00 0.35000145E+04</pdfrwt>
<totfact> 0.12185072E-01</totfact>
</mgrwt>
</event>
<event>
 6    1  0.2436515E-005  0.1674776E+04  0.7818608E-02  0.8775883E-01
         -2   -1    0    0    0  501 -0.00000000000E+00  0.00000000000E+00  0.28739476441E+03  0.28739476441E+03  0.00000000000E+00 0. -1.
          2   -1    0    0  501    0  0.00000000000E+00 -0.00000000000E+00 -0.24399151252E+04  0.24399151252E+04  0.00000000000E+00 0.  1.
         23    2    1    2    0    0 -0.45413278364E+03  0.37518059738E+03 -0.11788575332E+03  0.60911843185E+03  0.10065360083E+03 0.  0.
         13    1    3    3    0    0 -0.29472484232E+03  0.28610066166E+03 -0.11476517614E+03  0.42648255174E+03  0.00000000000E+00 0. -1.
        -13    1    3    3    0    0 -0.15940794131E+03  0.89079935715E+02 -0.31205771847E+01  0.18263588011E+03  0.00000000000E+00 0.  1.
         22    1    1    2    0    0  0.45413278364E+03 -0.37518059738E+03 -0.20346346074E+04  0.21181914577E+04  0.00000000000E+00 0.  1.
<mgrwt>
<rscale>  0 0.16747762E+04</rscale>
<asrwt>0</asrwt>
<pdfrwt beam="1">  1        2 0.37537155E+00 0.16747762E+04</pdfrwt>
<pdfrwt beam="2">  1       -2 0.44214580E-01 0.16747762E+04</pdfrwt>
<totfact> 0.17466550E+01</totfact>
</mgrwt>
</event>
<event>
 6    1  0.2436515E-005  0.1455094E+04  0.7818608E-02  0.8914877E-01
         -2   -1    0    0    0  501 -0.00000000000E+00  0.00000000000E+00  0.65716394854E+03  0.65716394854E+03  0.00000000000E+00 0. -1.
          2   -1    0    0  501    0  0.00000000000E+00 -0.00000000000E+00 -0.80546815968E+03  0.80546815968E+03  0.00000000000E+00 0.  1.
         23    2    1    2    0    0 -0.30065902896E+03 -0.29202207506E+03  0.51986057553E+03  0.67388821686E+03  0.90540415341E+02 0.  0.
         11    1    3    3    0    0 -0.19480553663E+03 -0.13738425892E+03  0.33029327129E+03  0.40732944500E+03  0.00000000000E+00 0.  1.
        -11    1    3    3    0    0 -0.10585349233E+03 -0.15463781614E+03  0.18956730424E+03  0.26655877186E+03  0.00000000000E+00 0. -1.
         22    1    1    2    0    0  0.30065902896E+03  0.29202207506E+03 -0.66816478667E+03  0.78874389136E+03  0.00000000000E+00 0.  1.
<mgrwt>
<rscale>  0 0.14550940E+04</rscale>
<asrwt>0</asrwt>
<pdfrwt beam="1">  1        2 0.12391818E+00 0.14550940E+04</pdfrwt>
<pdfrwt beam="2">  1       -2 0.10110215E+00 0.14550940E+04</pdfrwt>
<totfact> 0.26634677E+01</totfact>
</mgrwt>
</event>
<event>
 6    1  0.2436515E-005  0.4769503E+04  0.7818608E-02  0.7865082E-01
         -2   -1    0    0    0  501 -0.00000000000E+00  0.00000000000E+00  0.17913581340E+04  0.17913581340E+04  0.00000000000E+00 0. -1.
          2   -1    0    0  501    0  0.00000000000E+00 -0.00000000000E+00 -0.31747083381E+04  0.31747083381E+04  0.00000000000E+00 0.  1.
         23    2    1    2    0    0  0.62849004795E+03  0.38170923505E+03 -0.30530185767E+04  0.31416503586E+04  0.91339285963E+02 0.  0.
         11    1    3    3    0    0  0.20853275606E+03  0.10043242584E+03 -0.11178456718E+04  0.11415566252E+04  0.00000000000E+00 0. -1.
        -11    1    3    3    0    0  0.41995729189E+03  0.28127680922E+03 -0.19351729049E+04  0.20000937334E+04  0.00000000000E+00 0.  1.
         22    1    1    2    0    0 -0.62849004795E+03 -0.38170923505E+03  0.16696683726E+04  0.18244161135E+04  0.00000000000E+00 0. -1.
<mgrwt>
<rscale>  0 0.47695030E+04</rscale>
<asrwt>0</asrwt>
<pdfrwt beam="1">  1        2 0.48841666E+00 0.47695030E+04</pdfrwt>
<pdfrwt beam="2">  1       -2 0.27559356E+00 0.47695030E+04</pdfrwt>
<totfact> 0.44701648E-02</totfact>
</mgrwt>
</event>
<event>
 6    1  0.2436515E-005  0.2987687E+04  0.7818608E-02  0.8247256E-01
         -2   -1    0    0    0  501 -0.00000000000E+00  0.00000000000E+00  0.77094431003E+03  0.77094431003E+03  0.00000000000E+00 0. -1.
          2   -1    0    0  501    0  0.00000000000E+00 -0.00000000000E+00 -0.28945909976E+04  0.28945909976E+04  0.00000000000E+00 0.  1.
         23    2    1    2    0    0 -0.33572567971E+03 -0.14503645405E+04 -0.93636046925E+03  0.17613510737E+04  0.96527945673E+02 0.  0.
         13    1    3    3    0    0 -0.21870730231E+03 -0.73851430771E+03 -0.49852631410E+03  0.91747738535E+03  0.00000000000E+00 0. -1.
        -13    1    3    3    0    0 -0.11701837740E+03 -0.71185023277E+03 -0.43783415515E+03  0.84387368839E+03  0.00000000000E+00 0.  1.
         22    1    1    2    0    0  0.33572567971E+03  0.14503645405E+04 -0.11872862183E+04  0.19041842339E+04  0.00000000000E+00 0.  1.
<mgrwt>
<rscale>  0 0.29876870E+04</rscale>
<asrwt>0</asrwt>
<pdfrwt beam="1">  1        2 0.44532169E+00 0.29876870E+04</pdfrwt>
<pdfrwt beam="2">  1       -2 0.11860682E+00 0.29876870E+04</pdfrwt>
<totfact> 0.94780600E-01</totfact>
</mgrwt>
</event>
<event>
 6    1  0.2436515E-005  0.1593776E+04  0.7818608E-02  0.8824381E-01
         -2   -1    0    0    0  501 -0.00000000000E+00  0.00000000000E+00  0.39217711279E+03  0.39217711279E+03  0.00000000000E+00 0. -1.
          2   -1    0    0  501    0  0.00000000000E+00 -0.00000000000E+00 -0.16192448329E+04  0.16192448329E+04  0.00000000000E+00 0.  1.
         23    2    1    2    0    0 -0.57913205891E+03 -0.35679375057E+03 -0.97810895930E+02  0.69312126031E+03  0.90301650192E+02 0.  0.
         13    1    3    3    0    0 -0.33176080667E+03 -0.24484932717E+03 -0.86852368496E+02  0.42137840450E+03  0.00000000000E+00 0. -1.
        -13    1    3    3    0    0 -0.24737125224E+03 -0.11194442340E+03 -0.10958527434E+02  0.27174285581E+03  0.00000000000E+00 0.  1.
         22    1    1    2    0    0  0.57913205891E+03  0.35679375057E+03 -0.11292568242E+04  0.13183006854E+04  0.00000000000E+00 0.  1.
<mgrwt>
<rscale>  0 0.15937764E+04</rscale>
<asrwt>0</asrwt>
<pdfrwt beam="1">  1        2 0.24911459E+00 0.15937764E+04</pdfrwt>
<pdfrwt beam="2">  1       -2 0.60334941E-01 0.15937764E+04</pdfrwt>
<totfact> 0.26710807E+01</totfact>
</mgrwt>
</event>
<event>
 6    1  0.2436515E-005  0.2006341E+04  0.7818608E-02  0.8603662E-01
          1   -1    0    0  501    0  0.00000000000E+00  0.00000000000E+00  0.32050505873E+04  0.32050505873E+04  0.00000000000E+00 0.  1.
         -1   -1    0    0    0  501 -0.00000000000E+00 -0.00000000000E+00 -0.31398916320E+03  0.31398916320E+03  0.00000000000E+00 0. -1.
         23    2    1    2    0    0  0.53082380752E+03 -0.51867855710E+03  0.26268494527E+04  0.27312521357E+04  0.92729828791E+02 0.  0.
         13    1    3    3    0    0  0.40019653971E+03 -0.33476834036E+03  0.18831848930E+04  0.19541270310E+04  0.00000000000E+00 0.  1.
        -13    1    3    3    0    0  0.13062726781E+03 -0.18391021673E+03  0.74366455976E+03  0.77712510471E+03  0.00000000000E+00 0. -1.
         22    1    1    2    0    0 -0.53082380752E+03  0.51867855710E+03  0.26421197136E+03  0.78778761481E+03  0.00000000000E+00 0. -1.
<mgrwt>
<rscale>  0 0.20063411E+04</rscale>
<asrwt>0</asrwt>
<pdfrwt beam="1">  1        1 0.49308468E+00 0.20063411E+04</pdfrwt>
<pdfrwt beam="2">  1       -1 0.48306027E-01 0.20063411E+04</pdfrwt>
<totfact> 0.16789119E+00</totfact>
</mgrwt>
</event>
<event>
 6    1  0.2436515E-005  0.3645103E+04  0.7818608E-02  0.8080238E-01
         -1   -1    0    0    0  501 -0.00000000000E+00  0.00000000000E+00  0.30345402166E+04  0.30345402166E+04  0.00000000000E+00 0. -1.
          1   -1    0    0  501    0  0.00000000000E+00 -0.00000000000E+00 -0.10946287062E+04  0.10946287062E+04  0.00000000000E+00 0.  1.
         23    2    1    2    0    0 -0.13649816709E+04 -0.76350111502E+03  0.20282508371E+04  0.25626719547E+04  0.85890478979E+02 0.  0.
         11    1    3    3    0    0 -0.99825332841E+03 -0.52110401595E+03  0.14244088725E+04  0.18157642300E+04  0.00000000000E+00 0. -1.
        -11    1    3    3    0    0 -0.36672834252E+03 -0.24239709907E+03  0.60384196465E+03  0.74690772463E+03  0.00000000000E+00 0.  1.
         22    1    1    2    0    0  0.13649816709E+04  0.76350111502E+03 -0.88339326732E+02  0.15664969682E+04  0.00000000000E+00 0.  1.
<mgrwt>
<rscale>  0 0.36451035E+04</rscale>
<asrwt>0</asrwt>
<pdfrwt beam="1">  1        1 0.16840442E+00 0.36451035E+04</pdfrwt>
<pdfrwt beam="2">  1       -1 0.46685234E+00 0.36451035E+04</pdfrwt>
<totfact> 0.25560799E-02</totfact>
</mgrwt>
</event>
<event>
 6    1  0.2436515E-005  0.2029024E+04  0.7818608E-02  0.8593170E-01
         -2   -1    0    0    0  501 -0.00000000000E+00  0.00000000000E+00  0.35859633715E+03  0.35859633715E+03  0.00000000000E+00 0. -1.
          2   -1    0    0  501    0  0.00000000000E+00 -0.00000000000E+00 -0.28701767796E+04  0.28701767796E+04  0.00000000000E+00 0.  1.
         23    2    1    2    0    0  0.23056183883E+03  0.74564015623E+03 -0.23152102242E+03  0.81883349862E+03  0.88024488318E+02 0.  0.
         11    1    3    3    0    0  0.13487060354E+03  0.29829623623E+03 -0.80985233537E+02  0.33723779785E+03  0.00000000000E+00 0. -1.
        -11    1    3    3    0    0  0.95691235295E+02  0.44734392000E+03 -0.15053578888E+03  0.48159570077E+03  0.00000000000E+00 0.  1.
         22    1    1    2    0    0 -0.23056183883E+03 -0.74564015623E+03 -0.22800594200E+04  0.24099396181E+04  0.00000000000E+00 0.  1.
<mgrwt>
<rscale>  0 0.20290243E+04</rscale>
<asrwt>0</asrwt>
<pdfrwt beam="1">  1        2 0.44156565E+00 0.20290243E+04</pdfrwt>
<pdfrwt beam="2">  1       -2 0.55168668E-01 0.20290243E+04</pdfrwt>
<totfact> 0.60103879E+00</totfact>
</mgrwt>
</event>
<event>
 6    1  0.2436515E-005  0.3001094E+04  0.7818608E-02  0.8243419E-01
          2   -1    0    0  501    0  0.00000000000E+00  0.00000000000E+00  0.20703732292E+04  0.20703732292E+04  0.00000000000E+00 0.  1.
         -2   -1    0    0    0  501 -0.00000000000E+00 -0.00000000000E+00 -0.10875534018E+04  0.10875534018E+04  0.00000000000E+00 0. -1.
         23    2    1    2    0    0 -0.13714989313E+03 -0.38263182169E+03 -0.10265377437E+04  0.11078693019E+04  0.91528393091E+02 0.  0.
         11    1    3    3    0    0 -0.85783375185E+02 -0.12201356657E+03 -0.42066416808E+03  0.44632324630E+03  0.00000000000E+00 0. -1.
        -11    1    3    3    0    0 -0.51366517947E+02 -0.26061825512E+03 -0.60587357565E+03  0.66154605564E+03  0.00000000000E+00 0.  1.
         22    1    1    2    0    0  0.13714989313E+03  0.38263182169E+03  0.20093575710E+04  0.20500573291E+04  0.00000000000E+00 0.  1.
<mgrwt>
<rscale>  0 0.30010941E+04</rscale>
<asrwt>0</asrwt>
<pdfrwt beam="1">  1        2 0.31851896E+00 0.30010941E+04</pdfrwt>
<pdfrwt beam="2">  1       -2 0.16731591E+00 0.30010941E+04</pdfrwt>
<totfact> 0.11639937E+00</totfact>
</mgrwt>
</event>
<event>
 6    1  0.2436515E-005  0.5635423E+04  0.7818608E-02  0.7737325E-01
         -2   -1    0    0    0  501 -0.00000000000E+00  0.00000000000E+00  0.23734668560E+04  0.23734668560E+04  0.00000000000E+00 0. -1.
          2   -1    0    0  501    0  0.00000000000E+00 -0.00000000000E+00 -0.33451061842E+04  0.33451061842E+04  0.00000000000E+00 0.  1.
         23    2    1    2    0    0  0.72460783933E+03 -0.85038337609E+03  0.21381379582E+04  0.24141936463E+04  0.92133743720E+02 0.  0.
         11    1    3    3    0    0  0.42959765020E+03 -0.57219130515E+03  0.13571834649E+04  0.15342437838E+04  0.00000000000E+00 0.  1.
        -11    1    3    3    0    0  0.29501018913E+03 -0.27819207094E+03  0.78095449325E+03  0.87994986252E+03  0.00000000000E+00 0. -1.
         22    1    1    2    0    0 -0.72460783933E+03  0.85038337609E+03 -0.31097772864E+04  0.33043793938E+04  0.00000000000E+00 0.  1.
<mgrwt>
<rscale>  0 0.56354232E+04</rscale>
<asrwt>0</asrwt>
<pdfrwt beam="1">  1        2 0.51463172E+00 0.56354232E+04</pdfrwt>
<pdfrwt beam="2">  1       -2 0.36514875E+00 0.56354232E+04</pdfrwt>
<totfact> 0.89586705E-03</totfact>
</mgrwt>
</event>
<event>
 6    1  0.2436515E-005  0.2880096E+04  0.7818608E-02  0.8278824E-01
         -2   -1    0    0    0  501 -0.00000000000E+00  0.00000000000E+00  0.78217975285E+03  0.78217975285E+03  0.00000000000E+00 0. -1.
          2   -1    0    0  501    0  0.00000000000E+00 -0.00000000000E+00 -0.26512298597E+04  0.26512298597E+04  0.00000000000E+00 0.  1.
         23    2    1    2    0    0 -0.79667866313E+03  0.46523823359E+03 -0.22512878044E+04  0.24347859779E+04  0.93501197084E+02 0.  0.
         13    1    3    3    0    0 -0.34299756786E+03  0.17957160314E+03 -0.83393082550E+03  0.91942042283E+03  0.00000000000E+00 0.  1.
        -13    1    3    3    0    0 -0.45368109528E+03  0.28566663045E+03 -0.14173569789E+04  0.15153655551E+04  0.00000000000E+00 0. -1.
         22    1    1    2    0    0  0.79667866313E+03 -0.46523823359E+03  0.38223769750E+03  0.99862363465E+03  0.00000000000E+00 0. -1.
<mgrwt>
<rscale>  0 0.28800961E+04</rscale>
<asrwt>0</asrwt>
<pdfrwt beam="1">  1        2 0.40788151E+00 0.28800961E+04</pdfrwt>
<pdfrwt beam="2">  1       -2 0.12033535E+00 0.28800961E+04</pdfrwt>
<totfact> 0.12936357E+00</totfact>
</mgrwt>
</event>
<event>
 6    1  0.2436515E-005  0.1618842E+04  0.7818608E-02  0.8809056E-01
          2   -1    0    0  501    0  0.00000000000E+00  0.00000000000E+00  0.11100623344E+04  0.11100623344E+04  0.00000000000E+00 0.  1.
         -2   -1    0    0    0  501 -0.00000000000E+00 -0.00000000000E+00 -0.59020296965E+03  0.59020296965E+03  0.00000000000E+00 0. -1.
         23    2    1    2    0    0 -0.66246214345E+03  0.40215996797E+03  0.49602506723E+03  0.92492227991E+03  0.94083076129E+02 0.  0.
         13    1    3    3    0    0 -0.44637553757E+03  0.23677805378E+03  0.36212357356E+03  0.62164978069E+03  0.00000000000E+00 0.  1.
        -13    1    3    3    0    0 -0.21608660587E+03  0.16538191419E+03  0.13390149367E+03  0.30327249922E+03  0.00000000000E+00 0. -1.
         22    1    1    2    0    0  0.66246214345E+03 -0.40215996797E+03  0.23834297523E+02  0.77534302414E+03  0.00000000000E+00 0. -1.
<mgrwt>
<rscale>  0 0.16188417E+04</rscale>
<asrwt>0</asrwt>
<pdfrwt beam="1">  1        2 0.17077882E+00 0.16188417E+04</pdfrwt>
<pdfrwt beam="2">  1       -2 0.90800457E-01 0.16188417E+04</pdfrwt>
<totfact> 0.21297281E+01</totfact>
</mgrwt>
</event>
<event>
 6    1  0.2436515E-005  0.2018431E+04  0.7818608E-02  0.8598052E-01
         -2   -1    0    0    0  501 -0.00000000000E+00  0.00000000000E+00  0.10590554694E+04  0.10590554694E+04  0.00000000000E+00 0. -1.
          2   -1    0    0  501    0  0.00000000000E+00 -0.00000000000E+00 -0.96172073884E+03  0.96172073884E+03  0.00000000000E+00 0.  1.
         23    2    1    2    0    0 -0.71777348233E+03 -0.70619366765E+03  0.67023401453E+02  0.10133899642E+04  0.92513863605E+02 0.  0.
         11    1    3    3    0    0 -0.27229925493E+03 -0.32726997593E+03  0.45474923167E+02  0.42815942126E+03  0.00000000000E+00 0.  1.
        -11    1    3    3    0    0 -0.44547422741E+03 -0.37892369172E+03  0.21548478286E+02  0.58523054291E+03  0.00000000000E+00 0. -1.
         22    1    1    2    0    0  0.71777348233E+03  0.70619366765E+03  0.30311329150E+02  0.10073862441E+04  0.00000000000E+00 0.  1.
<mgrwt>
<rscale>  0 0.20184307E+04</rscale>
<asrwt>0</asrwt>
<pdfrwt beam="1">  1        2 0.14795704E+00 0.20184307E+04</pdfrwt>
<pdfrwt beam="2">  1       -2 0.16293161E+00 0.20184307E+04</pdfrwt>
<totfact> 0.59294814E+00</totfact>
</mgrwt>
</event>
<event>
 6    1  0.2436515E-005  0.1913580E+04  0.7818608E-02  0.8648126E-01
         -2   -1    0    0    0  501 -0.00000000000E+00  0.00000000000E+00  0.57090513855E+03  0.57090513855E+03  0.00000000000E+00 0. -1.
          2   -1    0    0  501    0  0.00000000000E+00 -0.00000000000E+00 -0.16035009983E+04  0.16035009983E+04  0.00000000000E+00 0.  1.
         23    2    1    2    0    0  0.95306978025E+03  0.17126374889E+02 -0.47038318033E+03  0.10677361699E+04  0.10082099746E+03 0.  0.
         13    1    3    3    0    0  0.23708185892E+03  0.47954951328E+02 -0.12036105865E+03  0.27017451698E+03  0.00000000000E+00 0.  1.
        -13    1    3    3    0    0  0.71598792133E+03 -0.30828576439E+02 -0.35002212168E+03  0.79756165297E+03  0.00000000000E+00 0. -1.
         22    1    1    2    0    0 -0.95306978025E+03 -0.17126374889E+02 -0.56221267944E+03  0.11066699669E+04  0.00000000000E+00 0.  1.
<mgrwt>
<rscale>  0 0.19135798E+04</rscale>
<asrwt>0</asrwt>
<pdfrwt beam="1">  1        2 0.24669246E+00 0.19135798E+04</pdfrwt>
<pdfrwt beam="2">  1       -2 0.87831561E-01 0.19135798E+04</pdfrwt>
<totfact> 0.11610415E+01</totfact>
</mgrwt>
</event>
<event>
 6    1  0.2436515E-005  0.2773174E+04  0.7818608E-02  0.8311646E-01
         -2   -1    0    0    0  501 -0.00000000000E+00  0.00000000000E+00  0.65723771135E+03  0.65723771135E+03  0.00000000000E+00 0. -1.
          2   -1    0    0  501    0  0.00000000000E+00 -0.00000000000E+00 -0.29253083443E+04  0.29253083443E+04  0.00000000000E+00 0.  1.
         23    2    1    2    0    0  0.11416641902E+04  0.42635587991E+02 -0.21469407585E+04  0.24336825464E+04  0.90781051694E+02 0.  0.
         11    1    3    3    0    0  0.62129807200E+03  0.19111259883E+02 -0.10718713281E+04  0.12390660509E+04  0.00000000000E+00 0. -1.
        -11    1    3    3    0    0  0.52036611818E+03  0.23524328109E+02 -0.10750694304E+04  0.11946164954E+04  0.00000000000E+00 0.  1.
         22    1    1    2    0    0 -0.11416641902E+04 -0.42635587991E+02 -0.12112987441E+03  0.11488635093E+04  0.00000000000E+00 0. -1.
<mgrwt>
<rscale>  0 0.27731736E+04</rscale>
<asrwt>0</asrwt>
<pdfrwt beam="1">  1        2 0.45004745E+00 0.27731736E+04</pdfrwt>
<pdfrwt beam="2">  1       -2 0.10111349E+00 0.27731736E+04</pdfrwt>
<totfact> 0.13592359E+00</totfact>
</mgrwt>
</event>
<event>
 6    1  0.2436515E-005  0.5164021E+04  0.7818608E-02  0.7803692E-01
         -2   -1    0    0    0  501 -0.00000000000E+00  0.00000000000E+00  0.33160697580E+04  0.33160697580E+04  0.00000000000E+00 0. -1.
          2   -1    0    0  501    0  0.00000000000E+00 -0.00000000000E+00 -0.20104460011E+04  0.20104460011E+04  0.00000000000E+00 0.  1.
         23    2    1    2    0    0  0.10693727839E+04  0.13036787418E+04  0.26688660676E+04  0.31582062769E+04  0.91018614427E+02 0.  0.
         11    1    3    3    0    0  0.64130580562E+03  0.85104119463E+03  0.16861913678E+04  0.19946893443E+04  0.00000000000E+00 0. -1.
        -11    1    3    3    0    0  0.42806697827E+03  0.45263754713E+03  0.98267469977E+03  0.11635169326E+04  0.00000000000E+00 0.  1.
         22    1    1    2    0    0 -0.10693727839E+04 -0.13036787418E+04 -0.13632423107E+04  0.21683094822E+04  0.00000000000E+00 0.  1.
<mgrwt>
<rscale>  0 0.51640214E+04</rscale>
<asrwt>0</asrwt>
<pdfrwt beam="1">  1        2 0.30929938E+00 0.51640214E+04</pdfrwt>
<pdfrwt beam="2">  1       -2 0.51016458E+00 0.51640214E+04</pdfrwt>
<totfact> 0.68299276E-03</totfact>
</mgrwt>
</event>
<event>
 6    1  0.2436515E-005  0.1274671E+04  0.7818608E-02  0.9049896E-01
          1   -1    0    0  501    0  0.00000000000E+00  0.00000000000E+00  0.17981584768E+04  0.17981584768E+04  0.00000000000E+00 0.  1.
         -1   -1    0    0    0  501 -0.00000000000E+00 -0.00000000000E+00 -0.22589573432E+03  0.22589573432E+03  0.00000000000E+00 0. -1.
         23    2    1    2    0    0  0.56275055271E+03 -0.16821605800E+03  0.11700596173E+04  0.13121889284E+04  0.88405029624E+02 0.  0.
         13    1    3    3    0    0  0.97820062390E+02 -0.34182864054E+02  0.28887131941E+03  0.30689390997E+03  0.00000000000E+00 0.  1.
        -13    1    3    3    0    0  0.46493049032E+03 -0.13403319395E+03  0.88118829784E+03  0.10052950185E+04  0.00000000000E+00 0. -1.
         22    1    1    2    0    0 -0.56275055271E+03  0.16821605800E+03  0.40220312524E+03  0.71186528269E+03  0.00000000000E+00 0. -1.
<mgrwt>
<rscale>  0 0.12746707E+04</rscale>
<asrwt>0</asrwt>
<pdfrwt beam="1">  1        1 0.27663976E+00 0.12746707E+04</pdfrwt>
<pdfrwt beam="2">  1       -1 0.34753191E-01 0.12746707E+04</pdfrwt>
<totfact> 0.31624781E+01</totfact>
</mgrwt>
</event>
<event>
 6    1  0.2436515E-005  0.3651761E+03  0.7818608E-02  0.1056553E+00
          2   -1    0    0  501    0  0.00000000000E+00  0.00000000000E+00  0.88517384514E+03  0.88517384514E+03  0.00000000000E+00 0.  1.
         -2   -1    0    0    0  501 -0.00000000000E+00 -0.00000000000E+00 -0.37663096466E+02  0.37663096466E+02  0.00000000000E+00 0. -1.
         23    2    1    2    0    0  0.17128534003E+03  0.99746224515E+01  0.42596687785E+03  0.46771344647E+03  0.88712604388E+02 0.  0.
         11    1    3    3    0    0  0.63297544145E+02  0.13513759724E+02  0.68355676855E+02  0.94136599444E+02  0.00000000000E+00 0. -1.
        -11    1    3    3    0    0  0.10798779588E+03 -0.35391372726E+01  0.35761120100E+03  0.37357684702E+03  0.00000000000E+00 0.  1.
         22    1    1    2    0    0 -0.17128534003E+03 -0.99746224515E+01  0.42154387083E+03  0.45512349514E+03  0.00000000000E+00 0.  1.
<mgrwt>
<rscale>  0 0.36517606E+03</rscale>
<asrwt>0</asrwt>
<pdfrwt beam="1">  1        2 0.13618058E+00 0.36517606E+03</pdfrwt>
<pdfrwt beam="2">  1       -2 0.57943232E-02 0.36517606E+03</pdfrwt>
<totfact> 0.48742372E+03</totfact>
</mgrwt>
</event>
<event>
 6    1  0.2436515E-005  0.1241196E+04  0.7818608E-02  0.9077542E-01
          2   -1    0    0  501    0  0.00000000000E+00  0.00000000000E+00  0.91924717429E+03  0.91924717429E+03  0.00000000000E+00 0.  1.
         -2   -1    0    0    0  501 -0.00000000000E+00 -0.00000000000E+00 -0.41897562852E+03  0.41897562852E+03  0.00000000000E+00 0. -1.
         23    2    1    2    0    0 -0.25201496688E+03 -0.52812135408E+03  0.40936361795E+02  0.59430579171E+03  0.95393292066E+02 0.  0.
         13    1    3    3    0    0 -0.18234963360E+03 -0.28290456760E+03  0.43445577619E+02  0.33937280601E+03  0.00000000000E+00 0. -1.
        -13    1    3    3    0    0 -0.69665333282E+02 -0.24521678648E+03 -0.25092158242E+01  0.25493298570E+03  0.00000000000E+00 0.  1.
         22    1    1    2    0    0  0.25201496688E+03  0.52812135408E+03  0.45933518397E+03  0.74391701110E+03  0.00000000000E+00 0.  1.
<mgrwt>
<rscale>  0 0.12411965E+04</rscale>
<asrwt>0</asrwt>
<pdfrwt beam="1">  1        2 0.14142264E+00 0.12411965E+04</pdfrwt>
<pdfrwt beam="2">  1       -2 0.64457789E-01 0.12411965E+04</pdfrwt>
<totfact> 0.62268377E+01</totfact>
</mgrwt>
</event>
<event>
 6    1  0.2436515E-005  0.6757072E+04  0.7818608E-02  0.7603021E-01
          2   -1    0    0  501    0  0.00000000000E+00  0.00000000000E+00  0.41633472361E+04  0.41633472361E+04  0.00000000000E+00 0. -1.
         -2   -1    0    0    0  501 -0.00000000000E+00 -0.00000000000E+00 -0.27416653589E+04  0.27416653589E+04  0.00000000000E+00 0.  1.
         23    2    1    2    0    0  0.13200073013E+04  0.21851117863E+04 -0.15495135621E+04  0.29877258896E+04  0.91547355291E+02 0.  0.
         11    1    3    3    0    0  0.62593203862E+03  0.10926127966E+04 -0.72287798119E+03  0.14519456656E+04  0.00000000000E+00 0. -1.
        -11    1    3    3    0    0  0.69407526267E+03  0.10924989897E+04 -0.82663558090E+03  0.15357802240E+04  0.00000000000E+00 0.  1.
         22    1    1    2    0    0 -0.13200073013E+04 -0.21851117863E+04  0.29711954393E+04  0.39172867054E+04  0.00000000000E+00 0. -1.
<mgrwt>
<rscale>  0 0.67570718E+04</rscale>
<asrwt>0</asrwt>
<pdfrwt beam="1">  1        2 0.64051496E+00 0.67570718E+04</pdfrwt>
<pdfrwt beam="2">  1       -2 0.42179467E+00 0.67570718E+04</pdfrwt>
<totfact> 0.84353061E-04</totfact>
</mgrwt>
</event>
<event>
 6    1  0.2436515E-005  0.3061222E+04  0.7818608E-02  0.8226461E-01
         -2   -1    0    0    0  501 -0.00000000000E+00  0.00000000000E+00  0.72282928011E+03  0.72282928011E+03  0.00000000000E+00 0. -1.
          2   -1    0    0  501    0  0.00000000000E+00 -0.00000000000E+00 -0.32411121161E+04  0.32411121161E+04  0.00000000000E+00 0.  1.
         23    2    1    2    0    0 -0.68830877252E+03  0.12435468581E+04 -0.53003493273E+03  0.15199063147E+04  0.94870548538E+02 0.  0.
         11    1    3    3    0    0 -0.46555039660E+03  0.74939608572E+03 -0.34133135883E+03  0.94595917544E+03  0.00000000000E+00 0.  1.
        -11    1    3    3    0    0 -0.22275837592E+03  0.49415077240E+03 -0.18870357391E+03  0.57394713930E+03  0.00000000000E+00 0. -1.
         22    1    1    2    0    0  0.68830877252E+03 -0.12435468581E+04 -0.19882479032E+04  0.24440350814E+04  0.00000000000E+00 0.  1.
<mgrwt>
<rscale>  0 0.30612225E+04</rscale>
<asrwt>0</asrwt>
<pdfrwt beam="1">  1        2 0.49863263E+00 0.30612225E+04</pdfrwt>
<pdfrwt beam="2">  1       -2 0.11120450E+00 0.30612225E+04</pdfrwt>
<totfact> 0.66363711E-01</totfact>
</mgrwt>
</event>
<event>
 6    1  0.2436515E-005  0.2990747E+04  0.7818608E-02  0.8246378E-01
         -2   -1    0    0    0  501 -0.00000000000E+00  0.00000000000E+00  0.13659462980E+04  0.13659462980E+04  0.00000000000E+00 0. -1.
          2   -1    0    0  501    0  0.00000000000E+00 -0.00000000000E+00 -0.16370643964E+04  0.16370643964E+04  0.00000000000E+00 0.  1.
         23    2    1    2    0    0  0.66244225631E+03  0.11409916129E+04  0.56573486512E+03  0.14406360638E+04  0.12118055558E+03 0.  0.
         13    1    3    3    0    0  0.59133956818E+02  0.11830584632E+03  0.97300785702E+02  0.16419665350E+03  0.00000000000E+00 0.  1.
        -13    1    3    3    0    0  0.60330829949E+03  0.10226857666E+04  0.46843407941E+03  0.12764394103E+04  0.00000000000E+00 0. -1.
         22    1    1    2    0    0 -0.66244225631E+03 -0.11409916129E+04 -0.83685296356E+03  0.15623746306E+04  0.00000000000E+00 0. -1.
<mgrwt>
<rscale>  0 0.29907471E+04</rscale>
<asrwt>0</asrwt>
<pdfrwt beam="1">  1        2 0.25185606E+00 0.29907471E+04</pdfrwt>
<pdfrwt beam="2">  1       -2 0.21014559E+00 0.29907471E+04</pdfrwt>
<totfact> 0.10408369E+00</totfact>
</mgrwt>
</event>
<event>
 6    1  0.2436515E-005  0.2064020E+04  0.7818608E-02  0.8577260E-01
         -1   -1    0    0    0  501 -0.00000000000E+00  0.00000000000E+00  0.44329946873E+03  0.44329946873E+03  0.00000000000E+00 0. -1.
          1   -1    0    0  501    0  0.00000000000E+00 -0.00000000000E+00 -0.24025409411E+04  0.24025409411E+04  0.00000000000E+00 0.  1.
         23    2    1    2    0    0  0.45099215760E+03 -0.48352425480E+02  0.29380358030E+03  0.54759240480E+03  0.88345994395E+02 0.  0.
         13    1    3    3    0    0  0.61490680823E+02 -0.38111285357E+02  0.41506056474E+02  0.83404595939E+02  0.00000000000E+00 0. -1.
        -13    1    3    3    0    0  0.38950147678E+03 -0.10241140123E+02  0.25229752383E+03  0.46418780886E+03  0.00000000000E+00 0.  1.
         22    1    1    2    0    0 -0.45099215760E+03  0.48352425480E+02 -0.22530450527E+04  0.22982480050E+04  0.00000000000E+00 0.  1.
<mgrwt>
<rscale>  0 0.20640205E+04</rscale>
<asrwt>0</asrwt>
<pdfrwt beam="1">  1        1 0.36962168E+00 0.20640205E+04</pdfrwt>
<pdfrwt beam="2">  1       -1 0.68199918E-01 0.20640205E+04</pdfrwt>
<totfact> 0.31776537E+00</totfact>
</mgrwt>
</event>
<event>
 6    1  0.2537288E-005  0.4815620E+04  0.7818608E-02  0.7857596E-01
         -2   -1    0    0    0  501 -0.00000000000E+00  0.00000000000E+00  0.33884243773E+04  0.33884243773E+04  0.00000000000E+00 0. -1.
          2   -1    0    0  501    0  0.00000000000E+00 -0.00000000000E+00 -0.17109866996E+04  0.17109866996E+04  0.00000000000E+00 0.  1.
         23    2    1    2    0    0 -0.17953657605E+04  0.11607448238E+04 -0.33191021201E+03  0.21654469152E+04  0.91264415680E+02 0.  0.
         13    1    3    3    0    0 -0.11584286307E+04  0.76937089464E+03 -0.17530998890E+03  0.14016497630E+04  0.00000000000E+00 0. -1.
        -13    1    3    3    0    0 -0.63693712981E+03  0.39137392915E+03 -0.15660022312E+03  0.76379715214E+03  0.00000000000E+00 0.  1.
         22    1    1    2    0    0  0.17953657605E+04 -0.11607448238E+04  0.20093478897E+04  0.29339641617E+04  0.00000000000E+00 0. -1.
<mgrwt>
<rscale>  0 0.48156200E+04</rscale>
<asrwt>0</asrwt>
<pdfrwt beam="1">  1        2 0.26322872E+00 0.48156200E+04</pdfrwt>
<pdfrwt beam="2">  1       -2 0.52129606E+00 0.48156200E+04</pdfrwt>
<totfact> 0.88336781E-03</totfact>
</mgrwt>
</event>
<event>
 6    1  0.2436515E-005  0.5368764E+04  0.7818608E-02  0.7774010E-01
         -2   -1    0    0    0  501 -0.00000000000E+00  0.00000000000E+00  0.29722739149E+04  0.29722739149E+04  0.00000000000E+00 0. -1.
          2   -1    0    0  501    0  0.00000000000E+00 -0.00000000000E+00 -0.24243748908E+04  0.24243748908E+04  0.00000000000E+00 0.  1.
         23    2    1    2    0    0  0.14520482804E+04  0.10748023184E+04 -0.17207244116E+04  0.24965976811E+04  0.91995915810E+02 0.  0.
         13    1    3    3    0    0  0.85120074042E+02  0.90112505613E+02 -0.12906280366E+03  0.17894942850E+03  0.00000000000E+00 0. -1.
        -13    1    3    3    0    0  0.13669282064E+04  0.98468981274E+03 -0.15916616079E+04  0.23176482526E+04  0.00000000000E+00 0.  1.
         22    1    1    2    0    0 -0.14520482804E+04 -0.10748023184E+04  0.22686234356E+04  0.29000511245E+04  0.00000000000E+00 0. -1.
<mgrwt>
<rscale>  0 0.53687638E+04</rscale>
<asrwt>0</asrwt>
<pdfrwt beam="1">  1        2 0.37298075E+00 0.53687638E+04</pdfrwt>
<pdfrwt beam="2">  1       -2 0.45727291E+00 0.53687638E+04</pdfrwt>
<totfact> 0.84943781E-03</totfact>
</mgrwt>
</event>
<event>
 6    1  0.2436515E-005  0.2403661E+04  0.7818608E-02  0.8438134E-01
          2   -1    0    0  501    0  0.00000000000E+00  0.00000000000E+00  0.89117435668E+03  0.89117435668E+03  0.00000000000E+00 0.  1.
         -2   -1    0    0    0  501 -0.00000000000E+00 -0.00000000000E+00 -0.16207785613E+04  0.16207785613E+04  0.00000000000E+00 0. -1.
         23    2    1    2    0    0  0.83162343408E+03  0.60396925306E+03  0.28221029596E+03  0.10696821465E+04  0.90558536972E+02 0.  0.
         13    1    3    3    0    0  0.27643893916E+03  0.23328359097E+03  0.63808955687E+02  0.36730274124E+03  0.00000000000E+00 0.  1.
        -13    1    3    3    0    0  0.55518449492E+03  0.37068566209E+03  0.21840134027E+03  0.70237940524E+03  0.00000000000E+00 0. -1.
         22    1    1    2    0    0 -0.83162343408E+03 -0.60396925306E+03 -0.10118145006E+04  0.14422707715E+04  0.00000000000E+00 0. -1.
<mgrwt>
<rscale>  0 0.24036608E+04</rscale>
<asrwt>0</asrwt>
<pdfrwt beam="1">  1        2 0.13710375E+00 0.24036608E+04</pdfrwt>
<pdfrwt beam="2">  1       -2 0.24935055E+00 0.24036608E+04</pdfrwt>
<totfact> 0.17330404E+00</totfact>
</mgrwt>
</event>
<event>
 6    1  0.2436515E-005  0.4125607E+04  0.7818608E-02  0.7979676E-01
         -2   -1    0    0    0  501 -0.00000000000E+00  0.00000000000E+00  0.12440906004E+04  0.12440906004E+04  0.00000000000E+00 0. -1.
          2   -1    0    0  501    0  0.00000000000E+00 -0.00000000000E+00 -0.34202968674E+04  0.34202968674E+04  0.00000000000E+00 0.  1.
         23    2    1    2    0    0 -0.89758482673E+03  0.14648134137E+04 -0.23774608127E+04  0.29346937809E+04  0.93652620826E+02 0.  0.
         13    1    3    3    0    0 -0.48342584706E+03  0.70429015709E+03 -0.12068864248E+04  0.14786142220E+04  0.00000000000E+00 0. -1.
        -13    1    3    3    0    0 -0.41415897967E+03  0.76052325662E+03 -0.11705743879E+04  0.14560795589E+04  0.00000000000E+00 0.  1.
         22    1    1    2    0    0  0.89758482673E+03 -0.14648134137E+04  0.20125454572E+03  0.17296936869E+04  0.00000000000E+00 0. -1.
<mgrwt>
<rscale>  0 0.41256074E+04</rscale>
<asrwt>0</asrwt>
<pdfrwt beam="1">  1        2 0.52619953E+00 0.41256074E+04</pdfrwt>
<pdfrwt beam="2">  1       -2 0.19139855E+00 0.41256074E+04</pdfrwt>
<totfact> 0.10920692E-01</totfact>
</mgrwt>
</event>
<event>
 6    1  0.2436515E-005  0.3248906E+04  0.7818608E-02  0.8176019E-01
         -2   -1    0    0    0  501 -0.00000000000E+00  0.00000000000E+00  0.57394586397E+03  0.57394586397E+03  0.00000000000E+00 0. -1.
          2   -1    0    0  501    0  0.00000000000E+00 -0.00000000000E+00 -0.45977278300E+04  0.45977278300E+04  0.00000000000E+00 0.  1.
         23    2    1    2    0    0  0.51487050163E+03 -0.94657883553E+03 -0.39457816825E+04  0.40913093251E+04  0.92280993769E+02 0.  0.
         13    1    3    3    0    0  0.23399941600E+03 -0.47520885918E+03 -0.20927168588E+04  0.21587132828E+04  0.00000000000E+00 0. -1.
        -13    1    3    3    0    0  0.28087108563E+03 -0.47136997635E+03 -0.18530648238E+04  0.19325960422E+04  0.00000000000E+00 0.  1.
         22    1    1    2    0    0 -0.51487050163E+03  0.94657883553E+03 -0.78000283465E+02  0.10803643689E+04  0.00000000000E+00 0. -1.
<mgrwt>
<rscale>  0 0.32489056E+04</rscale>
<asrwt>0</asrwt>
<pdfrwt beam="1">  1        2 0.70734275E+00 0.32489056E+04</pdfrwt>
<pdfrwt beam="2">  1       -2 0.88299363E-01 0.32489056E+04</pdfrwt>
<totfact> 0.90684438E-02</totfact>
</mgrwt>
</event>
<event>
 6    1  0.2436515E-005  0.4128027E+03  0.7818608E-02  0.1039435E+00
         -2   -1    0    0    0  501 -0.00000000000E+00  0.00000000000E+00  0.22284163865E+04  0.22284163865E+04  0.00000000000E+00 0. -1.
          2   -1    0    0  501    0  0.00000000000E+00 -0.00000000000E+00 -0.19117397732E+02  0.19117397732E+02  0.00000000000E+00 0.  1.
         23    2    1    2    0    0 -0.91345576134E+02  0.17362832947E+03  0.12036616288E+04  0.12229376145E+04  0.91018028283E+02 0.  0.
         13    1    3    3    0    0 -0.94267802189E+02  0.96241313581E+02  0.64369324953E+03  0.65763957337E+03  0.00000000000E+00 0. -1.
        -13    1    3    3    0    0  0.29222260549E+01  0.77387015884E+02  0.55996837922E+03  0.56529804117E+03  0.00000000000E+00 0.  1.
         22    1    1    2    0    0  0.91345576134E+02 -0.17362832947E+03  0.10056373600E+04  0.10245961697E+04  0.00000000000E+00 0. -1.
<mgrwt>
<rscale>  0 0.41280272E+03</rscale>
<asrwt>0</asrwt>
<pdfrwt beam="1">  1        2 0.29411399E-02 0.41280272E+03</pdfrwt>
<pdfrwt beam="2">  1       -2 0.34283309E+00 0.41280272E+03</pdfrwt>
<totfact> 0.64474943E+01</totfact>
</mgrwt>
</event>
<event>
 6    1  0.2436515E-005  0.2115309E+04  0.7818608E-02  0.8554530E-01
          2   -1    0    0  501    0  0.00000000000E+00  0.00000000000E+00  0.18192699315E+04  0.18192699315E+04  0.00000000000E+00 0.  1.
         -2   -1    0    0    0  501 -0.00000000000E+00 -0.00000000000E+00 -0.61487994755E+03  0.61487994755E+03  0.00000000000E+00 0. -1.
         23    2    1    2    0    0 -0.25170475106E+03 -0.98462401237E+03  0.27464408400E+03  0.10567366637E+04  0.91778407268E+02 0.  0.
         13    1    3    3    0    0 -0.22757940769E+03 -0.74512838408E+03  0.19424612171E+03  0.80295719149E+03  0.00000000000E+00 0. -1.
        -13    1    3    3    0    0 -0.24125343368E+02 -0.23949562829E+03  0.80397962290E+02  0.25377947218E+03  0.00000000000E+00 0.  1.
         22    1    1    2    0    0  0.25170475106E+03  0.98462401237E+03  0.92974589998E+03  0.13774132154E+04  0.00000000000E+00 0.  1.
<mgrwt>
<rscale>  0 0.21153086E+04</rscale>
<asrwt>0</asrwt>
<pdfrwt beam="1">  1        2 0.27988768E+00 0.21153086E+04</pdfrwt>
<pdfrwt beam="2">  1       -2 0.94596916E-01 0.21153086E+04</pdfrwt>
<totfact> 0.72938370E+00</totfact>
</mgrwt>
</event>
<event>
 6    1  0.2436515E-005  0.1162273E+04  0.7818608E-02  0.9146535E-01
         -2   -1    0    0    0  501 -0.00000000000E+00  0.00000000000E+00  0.50352083354E+03  0.50352083354E+03  0.00000000000E+00 0. -1.
          2   -1    0    0  501    0  0.00000000000E+00 -0.00000000000E+00 -0.67071657451E+03  0.67071657451E+03  0.00000000000E+00 0.  1.
         23    2    1    2    0    0 -0.49597513251E+03 -0.15474539948E+03 -0.33937423292E+03  0.62689573797E+03  0.88802734113E+02 0.  0.
         11    1    3    3    0    0 -0.19342254878E+03 -0.38439199480E+02 -0.17407042857E+03  0.26304062146E+03  0.00000000000E+00 0. -1.
        -11    1    3    3    0    0 -0.30255258373E+03 -0.11630620000E+03 -0.16530380434E+03  0.36385511651E+03  0.00000000000E+00 0.  1.
         22    1    1    2    0    0  0.49597513251E+03  0.15474539948E+03  0.17217849194E+03  0.54734167009E+03  0.00000000000E+00 0. -1.
<mgrwt>
<rscale>  0 0.11622732E+04</rscale>
<asrwt>0</asrwt>
<pdfrwt beam="1">  1        2 0.10318717E+00 0.11622732E+04</pdfrwt>
<pdfrwt beam="2">  1       -2 0.77464744E-01 0.11622732E+04</pdfrwt>
<totfact> 0.63583621E+01</totfact>
</mgrwt>
</event>
<event>
 6    1  0.2436515E-005  0.1255631E+04  0.7818608E-02  0.9065510E-01
         -2   -1    0    0    0  501 -0.00000000000E+00  0.00000000000E+00  0.14035663190E+03  0.14035663190E+03  0.00000000000E+00 0. -1.
          2   -1    0    0  501    0  0.00000000000E+00 -0.00000000000E+00 -0.28082191369E+04  0.28082191369E+04  0.00000000000E+00 0.  1.
         23    2    1    2    0    0  0.38959966294E+03 -0.20184057870E+03 -0.29695104677E+03  0.53740413258E+03  0.89976446712E+02 0.  0.
         13    1    3    3    0    0  0.27841121677E+03 -0.15231883335E+03 -0.16426762281E+03  0.35734812791E+03  0.00000000000E+00 0.  1.
        -13    1    3    3    0    0  0.11118844616E+03 -0.49521745348E+02 -0.13268342396E+03  0.18005600466E+03  0.00000000000E+00 0. -1.
         22    1    1    2    0    0 -0.38959966294E+03  0.20184057870E+03 -0.23709114582E+04  0.24111716362E+04  0.00000000000E+00 0.  1.
<mgrwt>
<rscale>  0 0.12556308E+04</rscale>
<asrwt>0</asrwt>
<pdfrwt beam="1">  1        2 0.43203374E+00 0.12556308E+04</pdfrwt>
<pdfrwt beam="2">  1       -2 0.21593327E-01 0.12556308E+04</pdfrwt>
<totfact> 0.42351646E+01</totfact>
</mgrwt>
</event>
<event>
 6    1  0.2436515E-005  0.1001506E+04  0.7818608E-02  0.9306894E-01
          2   -1    0    0  501    0  0.00000000000E+00  0.00000000000E+00  0.12531301622E+04  0.12531301622E+04  0.00000000000E+00 0.  1.
         -2   -1    0    0    0  501 -0.00000000000E+00 -0.00000000000E+00 -0.20010194961E+03  0.20010194961E+03  0.00000000000E+00 0. -1.
         23    2    1    2    0    0 -0.10822727986E+03 -0.46868058790E+03  0.35116766002E+03  0.60236028079E+03  0.90247132042E+02 0.  0.
         13    1    3    3    0    0 -0.61216595976E+02 -0.17729299073E+03  0.18591603482E+03  0.26409287796E+03  0.00000000000E+00 0.  1.
        -13    1    3    3    0    0 -0.47010683884E+02 -0.29138759717E+03  0.16525162520E+03  0.33826740282E+03  0.00000000000E+00 0. -1.
         22    1    1    2    0    0  0.10822727986E+03  0.46868058790E+03  0.70186055258E+03  0.85087183104E+03  0.00000000000E+00 0. -1.
<mgrwt>
<rscale>  0 0.10015064E+04</rscale>
<asrwt>0</asrwt>
<pdfrwt beam="1">  1        2 0.19278925E+00 0.10015064E+04</pdfrwt>
<pdfrwt beam="2">  1       -2 0.30784916E-01 0.10015064E+04</pdfrwt>
<totfact> 0.17154860E+02</totfact>
</mgrwt>
</event>
<event>
 6    1  0.2436515E-005  0.8009970E+03  0.7818608E-02  0.9558575E-01
         -2   -1    0    0    0  501 -0.00000000000E+00  0.00000000000E+00  0.21110902174E+03  0.21110902174E+03  0.00000000000E+00 0. -1.
          2   -1    0    0  501    0  0.00000000000E+00 -0.00000000000E+00 -0.75979251705E+03  0.75979251705E+03  0.00000000000E+00 0.  1.
         23    2    1    2    0    0  0.12077109577E+03 -0.64205298890E+02 -0.72729921814E+03  0.74593141984E+03  0.93496269544E+02 0.  0.
         11    1    3    3    0    0  0.60164583189E+02 -0.82626988739E+02 -0.46292282501E+03  0.47407229223E+03  0.00000000000E+00 0.  1.
        -11    1    3    3    0    0  0.60606512586E+02  0.18421689849E+02 -0.26437639313E+03  0.27185912762E+03  0.00000000000E+00 0. -1.
         22    1    1    2    0    0 -0.12077109577E+03  0.64205298890E+02  0.17861572283E+03  0.22497011895E+03  0.00000000000E+00 0. -1.
<mgrwt>
<rscale>  0 0.80099702E+03</rscale>
<asrwt>0</asrwt>
<pdfrwt beam="1">  1        2 0.11689116E+00 0.80099702E+03</pdfrwt>
<pdfrwt beam="2">  1       -2 0.32478311E-01 0.80099702E+03</pdfrwt>
<totfact> 0.32720230E+02</totfact>
</mgrwt>
</event>
<event>
 6    1  0.2436515E-005  0.1612073E+04  0.7818608E-02  0.8813166E-01
         -2   -1    0    0    0  501 -0.00000000000E+00  0.00000000000E+00  0.77596298196E+03  0.77596298196E+03  0.00000000000E+00 0. -1.
          2   -1    0    0  501    0  0.00000000000E+00 -0.00000000000E+00 -0.83727512729E+03  0.83727512729E+03  0.00000000000E+00 0.  1.
         23    2    1    2    0    0  0.13211967829E+03 -0.48759864508E+03 -0.65586036459E+03  0.83304862387E+03  0.92785471934E+02 0.  0.
         13    1    3    3    0    0  0.13671166235E+03 -0.40539150107E+03 -0.58279983698E+03  0.72297164380E+03  0.00000000000E+00 0. -1.
        -13    1    3    3    0    0 -0.45919840592E+01 -0.82207144011E+02 -0.73060527617E+02  0.11007698006E+03  0.00000000000E+00 0.  1.
         22    1    1    2    0    0 -0.13211967829E+03  0.48759864508E+03  0.59454821927E+03  0.78018948539E+03  0.00000000000E+00 0. -1.
<mgrwt>
<rscale>  0 0.16120726E+04</rscale>
<asrwt>0</asrwt>
<pdfrwt beam="1">  1        2 0.12881156E+00 0.16120726E+04</pdfrwt>
<pdfrwt beam="2">  1       -2 0.11937892E+00 0.16120726E+04</pdfrwt>
<totfact> 0.16695319E+01</totfact>
</mgrwt>
</event>
<event>
 6    1  0.2436515E-005  0.2909462E+03  0.7818608E-02  0.1089856E+00
          1   -1    0    0  501    0  0.00000000000E+00  0.00000000000E+00  0.11046524238E+02  0.11046524238E+02  0.00000000000E+00 0.  1.
         -1   -1    0    0    0  501 -0.00000000000E+00 -0.00000000000E+00 -0.19157541863E+04  0.19157541863E+04  0.00000000000E+00 0. -1.
         23    2    1    2    0    0  0.40016952797E+02 -0.98412891879E+02 -0.15530819491E+04  0.15594764726E+04  0.92827118891E+02 0.  0.
         11    1    3    3    0    0  0.17797452887E+02 -0.12788161616E+02 -0.91818365912E+03  0.91844516346E+03  0.00000000000E+00 0.  1.
        -11    1    3    3    0    0  0.22219499910E+02 -0.85624730262E+02 -0.63489829003E+03  0.64103130913E+03  0.00000000000E+00 0. -1.
         22    1    1    2    0    0 -0.40016952797E+02  0.98412891879E+02 -0.35162571289E+03  0.36732423792E+03  0.00000000000E+00 0.  1.
<mgrwt>
<rscale>  0 0.29094622E+03</rscale>
<asrwt>0</asrwt>
<pdfrwt beam="1">  1        1 0.16994656E-02 0.29094622E+03</pdfrwt>
<pdfrwt beam="2">  1       -1 0.29473135E+00 0.29094622E+03</pdfrwt>
<totfact> 0.31724545E+02</totfact>
</mgrwt>
</event>
<event>
 6    1  0.2436515E-005  0.1234754E+04  0.7818608E-02  0.9082969E-01
          2   -1    0    0  501    0  0.00000000000E+00  0.00000000000E+00  0.99456172967E+03  0.99456172967E+03  0.00000000000E+00 0.  1.
         -2   -1    0    0    0  501 -0.00000000000E+00 -0.00000000000E+00 -0.38323833206E+03  0.38323833206E+03  0.00000000000E+00 0. -1.
         23    2    1    2    0    0  0.88193965780E+02  0.40823958768E+03 -0.19496072026E+03  0.46976271928E+03  0.90717106587E+02 0.  0.
         13    1    3    3    0    0 -0.12571095433E+02  0.13755009176E+03 -0.53211557108E+02  0.14801868123E+03  0.00000000000E+00 0. -1.
        -13    1    3    3    0    0  0.10076506121E+03  0.27068949592E+03 -0.14174916315E+03  0.32174403805E+03  0.00000000000E+00 0.  1.
         22    1    1    2    0    0 -0.88193965780E+02 -0.40823958768E+03  0.80628411788E+03  0.90803734245E+03  0.00000000000E+00 0.  1.
<mgrwt>
<rscale>  0 0.12347537E+04</rscale>
<asrwt>0</asrwt>
<pdfrwt beam="1">  1        2 0.15300950E+00 0.12347537E+04</pdfrwt>
<pdfrwt beam="2">  1       -2 0.58959743E-01 0.12347537E+04</pdfrwt>
<totfact> 0.67190771E+01</totfact>
</mgrwt>
</event>
<event>
 6    1  0.2436515E-005  0.2610605E+04  0.7818608E-02  0.8364608E-01
         -2   -1    0    0    0  501 -0.00000000000E+00  0.00000000000E+00  0.90243226531E+03  0.90243226531E+03  0.00000000000E+00 0. -1.
          2   -1    0    0  501    0  0.00000000000E+00 -0.00000000000E+00 -0.18880246716E+04  0.18880246716E+04  0.00000000000E+00 0.  1.
         23    2    1    2    0    0 -0.96991951003E+02  0.95199321329E+03 -0.14399229597E+04  0.17311577495E+04  0.88490151981E+02 0.  0.
         13    1    3    3    0    0 -0.72125297143E+01  0.52681479663E+02 -0.48452749226E+02  0.71937666017E+02  0.00000000000E+00 0. -1.
        -13    1    3    3    0    0 -0.89779421289E+02  0.89931173363E+03 -0.13914702105E+04  0.16592200835E+04  0.00000000000E+00 0.  1.
         22    1    1    2    0    0  0.96991951003E+02 -0.95199321329E+03  0.45433055341E+03  0.10592991874E+04  0.00000000000E+00 0. -1.
<mgrwt>
<rscale>  0 0.26106048E+04</rscale>
<asrwt>0</asrwt>
<pdfrwt beam="1">  1        2 0.29046533E+00 0.26106048E+04</pdfrwt>
<pdfrwt beam="2">  1       -2 0.13883573E+00 0.26106048E+04</pdfrwt>
<totfact> 0.25014336E+00</totfact>
</mgrwt>
</event>
<event>
 6    1  0.2436515E-005  0.2754588E+04  0.7818608E-02  0.8317507E-01
         -2   -1    0    0    0  501 -0.00000000000E+00  0.00000000000E+00  0.88677310481E+03  0.88677310481E+03  0.00000000000E+00 0. -1.
          2   -1    0    0  501    0  0.00000000000E+00 -0.00000000000E+00 -0.21391475705E+04  0.21391475705E+04  0.00000000000E+00 0.  1.
         23    2    1    2    0    0  0.11698686126E+04 -0.24310132483E+03 -0.13760208419E+04  0.18246799620E+04  0.91284069837E+02 0.  0.
         11    1    3    3    0    0  0.41690873959E+03 -0.12941799767E+03 -0.48137202325E+03  0.64983147049E+03  0.00000000000E+00 0. -1.
        -11    1    3    3    0    0  0.75295987305E+03 -0.11368332716E+03 -0.89464881868E+03  0.11748484915E+04  0.00000000000E+00 0.  1.
         22    1    1    2    0    0 -0.11698686126E+04  0.24310132483E+03  0.12364637621E+03  0.12012407133E+04  0.00000000000E+00 0. -1.
<mgrwt>
<rscale>  0 0.27545878E+04</rscale>
<asrwt>0</asrwt>
<pdfrwt beam="1">  1        2 0.32909962E+00 0.27545878E+04</pdfrwt>
<pdfrwt beam="2">  1       -2 0.13642663E+00 0.27545878E+04</pdfrwt>
<totfact> 0.18738109E+00</totfact>
</mgrwt>
</event>
<event>
 6    1  0.2436515E-005  0.3121157E+04  0.7818608E-02  0.8209955E-01
         -2   -1    0    0    0  501 -0.00000000000E+00  0.00000000000E+00  0.19380976599E+04  0.19380976599E+04  0.00000000000E+00 0. -1.
          2   -1    0    0  501    0  0.00000000000E+00 -0.00000000000E+00 -0.12565956487E+04  0.12565956487E+04  0.00000000000E+00 0.  1.
         23    2    1    2    0    0  0.13335840095E+03 -0.14944913139E+04  0.77524814587E+03  0.16913380318E+04  0.91246369269E+02 0.  0.
         13    1    3    3    0    0  0.82329318526E+02 -0.66943212381E+03  0.39279191208E+03  0.78051455545E+03  0.00000000000E+00 0. -1.
        -13    1    3    3    0    0  0.51029082423E+02 -0.82505919008E+03  0.38245623379E+03  0.91082347639E+03  0.00000000000E+00 0.  1.
         22    1    1    2    0    0 -0.13335840095E+03  0.14944913139E+04 -0.93746134637E+02  0.15033552767E+04  0.00000000000E+00 0.  1.
<mgrwt>
<rscale>  0 0.31211569E+04</rscale>
<asrwt>0</asrwt>
<pdfrwt beam="1">  1        2 0.19332241E+00 0.31211569E+04</pdfrwt>
<pdfrwt beam="2">  1       -2 0.29816887E+00 0.31211569E+04</pdfrwt>
<totfact> 0.48452053E-01</totfact>
</mgrwt>
</event>
<event>
 6    1  0.2436515E-005  0.3563235E+04  0.7818608E-02  0.8098966E-01
          2   -1    0    0  501    0  0.00000000000E+00  0.00000000000E+00  0.15077592634E+04  0.15077592634E+04  0.00000000000E+00 0.  1.
         -2   -1    0    0    0  501 -0.00000000000E+00 -0.00000000000E+00 -0.21052167719E+04  0.21052167719E+04  0.00000000000E+00 0. -1.
         23    2    1    2    0    0  0.13608274322E+04  0.44467087636E+03 -0.13722469469E+04  0.19851301697E+04  0.89981213880E+02 0.  0.
         11    1    3    3    0    0  0.10479149288E+04  0.30715167043E+03 -0.10704905016E+04  0.15291885955E+04  0.00000000000E+00 0. -1.
        -11    1    3    3    0    0  0.31291250342E+03  0.13751920593E+03 -0.30175644531E+03  0.45594157420E+03  0.00000000000E+00 0.  1.
         22    1    1    2    0    0 -0.13608274322E+04 -0.44467087636E+03  0.77478943841E+03  0.16278458657E+04  0.00000000000E+00 0.  1.
<mgrwt>
<rscale>  0 0.35632345E+04</rscale>
<asrwt>0</asrwt>
<pdfrwt beam="1">  1        2 0.23196296E+00 0.35632345E+04</pdfrwt>
<pdfrwt beam="2">  1       -2 0.32387950E+00 0.35632345E+04</pdfrwt>
<totfact> 0.23269120E-01</totfact>
</mgrwt>
</event>
<event>
 6    1  0.2436515E-005  0.2156484E+04  0.7818608E-02  0.8536762E-01
         -2   -1    0    0    0  501 -0.00000000000E+00  0.00000000000E+00  0.53098491547E+03  0.53098491547E+03  0.00000000000E+00 0. -1.
          2   -1    0    0  501    0  0.00000000000E+00 -0.00000000000E+00 -0.21895269396E+04  0.21895269396E+04  0.00000000000E+00 0.  1.
         23    2    1    2    0    0 -0.72920092955E+03 -0.78495346358E+03 -0.70177682856E+03  0.12840977173E+04  0.92359595951E+02 0.  0.
         13    1    3    3    0    0 -0.63220214475E+02 -0.10864952264E+03 -0.94875531921E+02  0.15748930391E+03  0.00000000000E+00 0. -1.
        -13    1    3    3    0    0 -0.66598071507E+03 -0.67630394094E+03 -0.60690129664E+03  0.11266084134E+04  0.00000000000E+00 0.  1.
         22    1    1    2    0    0  0.72920092955E+03  0.78495346358E+03 -0.95676519561E+03  0.14364141378E+04  0.00000000000E+00 0. -1.
<mgrwt>
<rscale>  0 0.21564840E+04</rscale>
<asrwt>0</asrwt>
<pdfrwt beam="1">  1        2 0.33685030E+00 0.21564840E+04</pdfrwt>
<pdfrwt beam="2">  1       -2 0.81689987E-01 0.21564840E+04</pdfrwt>
<totfact> 0.63307405E+00</totfact>
</mgrwt>
</event>
<event>
 6    1  0.2436515E-005  0.1142243E+04  0.7818608E-02  0.9164969E-01
         -2   -1    0    0    0  501 -0.00000000000E+00  0.00000000000E+00  0.90898345076E+02  0.90898345076E+02  0.00000000000E+00 0. -1.
          2   -1    0    0  501    0  0.00000000000E+00 -0.00000000000E+00 -0.35884031558E+04  0.35884031558E+04  0.00000000000E+00 0.  1.
         23    2    1    2    0    0 -0.45103910942E+03 -0.30054429705E+03 -0.12190141436E+04  0.13372334248E+04  0.91840064473E+02 0.  0.
         13    1    3    3    0    0 -0.40150675283E+03 -0.22954459267E+03 -0.10497656883E+04  0.11471296321E+04  0.00000000000E+00 0.  1.
        -13    1    3    3    0    0 -0.49532356589E+02 -0.70999704379E+02 -0.16924845530E+03  0.19010379269E+03  0.00000000000E+00 0. -1.
         22    1    1    2    0    0  0.45103910942E+03  0.30054429705E+03 -0.22784906672E+04  0.23420680761E+04  0.00000000000E+00 0. -1.
<mgrwt>
<rscale>  0 0.11422432E+04</rscale>
<asrwt>0</asrwt>
<pdfrwt beam="1">  1        2 0.55206207E+00 0.11422432E+04</pdfrwt>
<pdfrwt beam="2">  1       -2 0.13984360E-01 0.11422432E+04</pdfrwt>
<totfact> 0.28433618E+01</totfact>
</mgrwt>
</event>
<event>
 6    1  0.2436515E-005  0.2474560E+04  0.7818608E-02  0.8412105E-01
         -1   -1    0    0    0  501 -0.00000000000E+00  0.00000000000E+00  0.10487598853E+04  0.10487598853E+04  0.00000000000E+00 0. -1.
          1   -1    0    0  501    0  0.00000000000E+00 -0.00000000000E+00 -0.14596878068E+04  0.14596878068E+04  0.00000000000E+00 0.  1.
         23    2    1    2    0    0  0.41558554786E+03  0.66272893719E+03  0.76394121042E+03  0.10969809128E+04  0.88543539280E+02 0.  0.
         11    1    3    3    0    0  0.35520638041E+03  0.49898979987E+03  0.58347409998E+03  0.84593405086E+03  0.00000000000E+00 0.  1.
        -11    1    3    3    0    0  0.60379167450E+02  0.16373913732E+03  0.18046711044E+03  0.25104686196E+03  0.00000000000E+00 0. -1.
         22    1    1    2    0    0 -0.41558554786E+03 -0.66272893719E+03 -0.11748691319E+04  0.14114667793E+04  0.00000000000E+00 0.  1.
<mgrwt>
<rscale>  0 0.24745602E+04</rscale>
<asrwt>0</asrwt>
<pdfrwt beam="1">  1        1 0.22456736E+00 0.24745602E+04</pdfrwt>
<pdfrwt beam="2">  1       -1 0.16134767E+00 0.24745602E+04</pdfrwt>
<totfact> 0.17736210E+00</totfact>
</mgrwt>
</event>
<event>
 6    1  0.2436515E-005  0.1719538E+04  0.7818608E-02  0.8750299E-01
          2   -1    0    0  501    0  0.00000000000E+00  0.00000000000E+00  0.38104196547E+04  0.38104196547E+04  0.00000000000E+00 0.  1.
         -2   -1    0    0    0  501 -0.00000000000E+00 -0.00000000000E+00 -0.19399517412E+03  0.19399517412E+03  0.00000000000E+00 0. -1.
         23    2    1    2    0    0  0.61476910590E+03  0.37193366874E+02  0.32021846511E+04  0.32621756245E+04  0.92080753235E+02 0.  0.
         13    1    3    3    0    0  0.39232625255E+03  0.59101323036E+02  0.19054169616E+04  0.19462853471E+04  0.00000000000E+00 0.  1.
        -13    1    3    3    0    0  0.22244285335E+03 -0.21907956162E+02  0.12967676895E+04  0.13158902774E+04  0.00000000000E+00 0. -1.
         22    1    1    2    0    0 -0.61476910590E+03 -0.37193366874E+02  0.41423982947E+03  0.74223920432E+03  0.00000000000E+00 0. -1.
<mgrwt>
<rscale>  0 0.17195383E+04</rscale>
<asrwt>0</asrwt>
<pdfrwt beam="1">  1        2 0.58621835E+00 0.17195383E+04</pdfrwt>
<pdfrwt beam="2">  1       -2 0.29845414E-01 0.17195383E+04</pdfrwt>
<totfact> 0.48094360E+00</totfact>
</mgrwt>
</event>
<event>
 6    1  0.2436515E-005  0.6806355E+03  0.7818608E-02  0.9750933E-01
         -2   -1    0    0    0  501 -0.00000000000E+00  0.00000000000E+00  0.65225594656E+03  0.65225594656E+03  0.00000000000E+00 0. -1.
          2   -1    0    0  501    0  0.00000000000E+00 -0.00000000000E+00 -0.17756247958E+03  0.17756247958E+03  0.00000000000E+00 0.  1.
         23    2    1    2    0    0 -0.29201866033E+03  0.14458712416E+03  0.15264511115E+03  0.37167491375E+03  0.93066519762E+02 0.  0.
         11    1    3    3    0    0 -0.21761729871E+03  0.59362546854E+02  0.10738718152E+03  0.24982635454E+03  0.00000000000E+00 0. -1.
        -11    1    3    3    0    0 -0.74401361616E+02  0.85224577308E+02  0.45257929636E+02  0.12184855921E+03  0.00000000000E+00 0.  1.
         22    1    1    2    0    0  0.29201866033E+03 -0.14458712416E+03  0.32204835583E+03  0.45814351239E+03  0.00000000000E+00 0. -1.
<mgrwt>
<rscale>  0 0.68063554E+03</rscale>
<asrwt>0</asrwt>
<pdfrwt beam="1">  1        2 0.27317305E-01 0.68063554E+03</pdfrwt>
<pdfrwt beam="2">  1       -2 0.10034707E+00 0.68063554E+03</pdfrwt>
<totfact> 0.16393746E+02</totfact>
</mgrwt>
</event>
<event>
 6    1  0.2436515E-005  0.2127574E+03  0.7818608E-02  0.1139401E+00
          2   -1    0    0  501    0  0.00000000000E+00  0.00000000000E+00  0.31520778803E+02  0.31520778803E+02  0.00000000000E+00 0.  1.
         -2   -1    0    0    0  501 -0.00000000000E+00 -0.00000000000E+00 -0.35901481639E+03  0.35901481639E+03  0.00000000000E+00 0. -1.
         23    2    1    2    0    0  0.66975943461E+02  0.16139116630E+02 -0.95593932223E+02  0.14861844624E+03  0.90570384773E+02 0.  0.
         11    1    3    3    0    0 -0.68023376565E+01  0.73376173680E+01  0.13390502061E+02  0.16715800061E+02  0.00000000000E+00 0.  1.
        -11    1    3    3    0    0  0.73778281117E+02  0.88014992617E+01 -0.10898443428E+03  0.13190264618E+03  0.00000000000E+00 0. -1.
         22    1    1    2    0    0 -0.66975943461E+02 -0.16139116630E+02 -0.23190010536E+03  0.24191714895E+03  0.00000000000E+00 0. -1.
<mgrwt>
<rscale>  0 0.21275739E+03</rscale>
<asrwt>0</asrwt>
<pdfrwt beam="1">  1        2 0.48493506E-02 0.21275739E+03</pdfrwt>
<pdfrwt beam="2">  1       -2 0.55233048E-01 0.21275739E+03</pdfrwt>
<totfact> 0.50353834E+03</totfact>
</mgrwt>
</event>
<event>
 6    1  0.2436515E-005  0.4204123E+04  0.7818608E-02  0.7964588E-01
         -2   -1    0    0    0  501 -0.00000000000E+00  0.00000000000E+00  0.13235645677E+04  0.13235645677E+04  0.00000000000E+00 0. -1.
          2   -1    0    0  501    0  0.00000000000E+00 -0.00000000000E+00 -0.33384557792E+04  0.33384557792E+04  0.00000000000E+00 0.  1.
         23    2    1    2    0    0 -0.10149530446E+04  0.17667048048E+04 -0.43835779976E+03  0.20858151632E+04  0.84212733675E+02 0.  0.
         11    1    3    3    0    0 -0.26035242693E+03  0.47830707539E+03 -0.15321811001E+03  0.56571798081E+03  0.00000000000E+00 0.  1.
        -11    1    3    3    0    0 -0.75460061771E+03  0.12883977294E+04 -0.28513968975E+03  0.15200971824E+04  0.00000000000E+00 0. -1.
         22    1    1    2    0    0  0.10149530446E+04 -0.17667048048E+04 -0.15765334117E+04  0.25762051836E+04  0.00000000000E+00 0. -1.
<mgrwt>
<rscale>  0 0.42041226E+04</rscale>
<asrwt>0</asrwt>
<pdfrwt beam="1">  1        2 0.51360858E+00 0.42041226E+04</pdfrwt>
<pdfrwt beam="2">  1       -2 0.20362532E+00 0.42041226E+04</pdfrwt>
<totfact> 0.10243195E-01</totfact>
</mgrwt>
</event>
<event>
 6    1  0.2436515E-005  0.3598067E+04  0.7818608E-02  0.8090935E-01
          2   -1    0    0  501    0  0.00000000000E+00  0.00000000000E+00  0.27315828066E+04  0.27315828066E+04  0.00000000000E+00 0.  1.
         -2   -1    0    0    0  501 -0.00000000000E+00 -0.00000000000E+00 -0.11848522038E+04  0.11848522038E+04  0.00000000000E+00 0. -1.
         23    2    1    2    0    0  0.76783229619E+03  0.50828021514E+02 -0.99486248125E+03  0.12609039284E+04  0.89316499991E+02 0.  0.
         11    1    3    3    0    0  0.34916600334E+03  0.41421435762E+02 -0.52057504323E+03  0.62819663232E+03  0.00000000000E+00 0. -1.
        -11    1    3    3    0    0  0.41866629285E+03  0.94065857526E+01 -0.47428743803E+03  0.63270729607E+03  0.00000000000E+00 0.  1.
         22    1    1    2    0    0 -0.76783229619E+03 -0.50828021514E+02  0.25415930841E+04  0.26555310821E+04  0.00000000000E+00 0.  1.
<mgrwt>
<rscale>  0 0.35980672E+04</rscale>
<asrwt>0</asrwt>
<pdfrwt beam="1">  1        2 0.42024351E+00 0.35980672E+04</pdfrwt>
<pdfrwt beam="2">  1       -2 0.18228496E+00 0.35980672E+04</pdfrwt>
<totfact> 0.36232649E-01</totfact>
</mgrwt>
</event>
<event>
 6    1  0.2436515E-005  0.2459764E+04  0.7818608E-02  0.8417462E-01
          2   -1    0    0  501    0  0.00000000000E+00  0.00000000000E+00  0.13378485205E+04  0.13378485205E+04  0.00000000000E+00 0.  1.
         -2   -1    0    0    0  501 -0.00000000000E+00 -0.00000000000E+00 -0.11306284396E+04  0.11306284396E+04  0.00000000000E+00 0. -1.
         23    2    1    2    0    0  0.34428027331E+02  0.12274812478E+04  0.12334988226E+03  0.12376521500E+04  0.93124369887E+02 0.  0.
         13    1    3    3    0    0 -0.98899974829E+01  0.66244481755E+03  0.29603823750E+02  0.66317971526E+03  0.00000000000E+00 0.  1.
        -13    1    3    3    0    0  0.44318024814E+02  0.56503643026E+03  0.93746058507E+02  0.57447243479E+03  0.00000000000E+00 0. -1.
         22    1    1    2    0    0 -0.34428027331E+02 -0.12274812478E+04  0.83870198731E+02  0.12308248100E+04  0.00000000000E+00 0. -1.
<mgrwt>
<rscale>  0 0.24597639E+04</rscale>
<asrwt>0</asrwt>
<pdfrwt beam="1">  1        2 0.20582285E+00 0.24597639E+04</pdfrwt>
<pdfrwt beam="2">  1       -2 0.17394284E+00 0.24597639E+04</pdfrwt>
<totfact> 0.28108389E+00</totfact>
</mgrwt>
</event>
<event>
 6    1  0.2436515E-005  0.4816741E+04  0.7818608E-02  0.7857416E-01
         -2   -1    0    0    0  501 -0.00000000000E+00  0.00000000000E+00  0.18293553456E+04  0.18293553456E+04  0.00000000000E+00 0. -1.
          2   -1    0    0  501    0  0.00000000000E+00 -0.00000000000E+00 -0.31706520244E+04  0.31706520244E+04  0.00000000000E+00 0.  1.
         23    2    1    2    0    0 -0.60869481826E+03 -0.19776393392E+04 -0.19484758908E+04  0.28435674027E+04  0.88037144438E+02 0.  0.
         13    1    3    3    0    0 -0.40428661439E+03 -0.12475326503E+04 -0.12860753982E+04  0.18367839584E+04  0.00000000000E+00 0. -1.
        -13    1    3    3    0    0 -0.20440820387E+03 -0.73010668891E+03 -0.66240049266E+03  0.10067834443E+04  0.00000000000E+00 0.  1.
         22    1    1    2    0    0  0.60869481826E+03  0.19776393392E+04  0.60717921203E+03  0.21564399674E+04  0.00000000000E+00 0. -1.
<mgrwt>
<rscale>  0 0.48167413E+04</rscale>
<asrwt>0</asrwt>
<pdfrwt beam="1">  1        2 0.48779261E+00 0.48167413E+04</pdfrwt>
<pdfrwt beam="2">  1       -2 0.28143929E+00 0.48167413E+04</pdfrwt>
<totfact> 0.41273512E-02</totfact>
</mgrwt>
</event>
<event>
 6    1  0.2436515E-005  0.4929063E+03  0.7818608E-02  0.1015647E+00
          2   -1    0    0  501    0  0.00000000000E+00  0.00000000000E+00  0.62286486353E+03  0.62286486353E+03  0.00000000000E+00 0.  1.
         -2   -1    0    0    0  501 -0.00000000000E+00 -0.00000000000E+00 -0.97515773427E+02  0.97515773427E+02  0.00000000000E+00 0. -1.
         23    2    1    2    0    0 -0.16974001113E+03 -0.72040779437E+02  0.49129918419E+03  0.53286812705E+03  0.92585134626E+02 0.  0.
         11    1    3    3    0    0 -0.14642000725E+03 -0.77873826545E+02  0.47674689153E+03  0.50476801599E+03  0.00000000000E+00 0.  1.
        -11    1    3    3    0    0 -0.23320003885E+02  0.58330471074E+01  0.14552292665E+02  0.28100111059E+02  0.00000000000E+00 0. -1.
         22    1    1    2    0    0  0.16974001113E+03  0.72040779437E+02  0.34049905911E+02  0.18751250991E+03  0.00000000000E+00 0. -1.
<mgrwt>
<rscale>  0 0.49290627E+03</rscale>
<asrwt>0</asrwt>
<pdfrwt beam="1">  1        2 0.95825361E-01 0.49290627E+03</pdfrwt>
<pdfrwt beam="2">  1       -2 0.15002427E-01 0.49290627E+03</pdfrwt>
<totfact> 0.16590378E+03</totfact>
</mgrwt>
</event>
<event>
 6    1  0.2436515E-005  0.2698523E+04  0.7818608E-02  0.8335484E-01
          2   -1    0    0  501    0  0.00000000000E+00  0.00000000000E+00  0.25881147131E+04  0.25881147131E+04  0.00000000000E+00 0.  1.
         -2   -1    0    0    0  501 -0.00000000000E+00 -0.00000000000E+00 -0.70341009639E+03  0.70341009639E+03  0.00000000000E+00 0. -1.
         23    2    1    2    0    0  0.33240261423E+03  0.68888756310E+03 -0.40995655861E+03  0.87273844396E+03  0.92468584298E+02 0.  0.
         13    1    3    3    0    0  0.24726908276E+03  0.49824025564E+03 -0.25054220118E+03  0.61004651151E+03  0.00000000000E+00 0. -1.
        -13    1    3    3    0    0  0.85133531470E+02  0.19064730745E+03 -0.15941435743E+03  0.26269193245E+03  0.00000000000E+00 0.  1.
         22    1    1    2    0    0 -0.33240261423E+03 -0.68888756310E+03  0.22946611753E+04  0.24187863655E+04  0.00000000000E+00 0.  1.
<mgrwt>
<rscale>  0 0.26985226E+04</rscale>
<asrwt>0</asrwt>
<pdfrwt beam="1">  1        2 0.39817149E+00 0.26985226E+04</pdfrwt>
<pdfrwt beam="2">  1       -2 0.10821694E+00 0.26985226E+04</pdfrwt>
<totfact> 0.18541643E+00</totfact>
</mgrwt>
</event>
<event>
 6    1  0.2436515E-005  0.3981324E+04  0.7818608E-02  0.8008325E-01
         -2   -1    0    0    0  501 -0.00000000000E+00  0.00000000000E+00  0.23611291066E+04  0.23611291066E+04  0.00000000000E+00 0. -1.
          2   -1    0    0  501    0  0.00000000000E+00 -0.00000000000E+00 -0.16783224522E+04  0.16783224522E+04  0.00000000000E+00 0.  1.
         23    2    1    2    0    0  0.65617688868E+03 -0.17936150267E+04 -0.22396406656E+03  0.19252481359E+04  0.93795035415E+02 0.  0.
         11    1    3    3    0    0  0.32898990743E+03 -0.82814844522E+03 -0.14465233984E+03  0.90276713826E+03  0.00000000000E+00 0.  1.
        -11    1    3    3    0    0  0.32718698125E+03 -0.96546658144E+03 -0.79311726724E+02  0.10224809977E+04  0.00000000000E+00 0. -1.
         22    1    1    2    0    0 -0.65617688868E+03  0.17936150267E+04  0.90677072088E+03  0.21142034229E+04  0.00000000000E+00 0.  1.
<mgrwt>
<rscale>  0 0.39813244E+04</rscale>
<asrwt>0</asrwt>
<pdfrwt beam="1">  1        2 0.25820345E+00 0.39813244E+04</pdfrwt>
<pdfrwt beam="2">  1       -2 0.36325063E+00 0.39813244E+04</pdfrwt>
<totfact> 0.10211072E-01</totfact>
</mgrwt>
</event>
<event>
 6    1  0.2436515E-005  0.2672086E+04  0.7818608E-02  0.8344119E-01
          2   -1    0    0  501    0  0.00000000000E+00  0.00000000000E+00  0.13711424388E+04  0.13711424388E+04  0.00000000000E+00 0.  1.
         -2   -1    0    0    0  501 -0.00000000000E+00 -0.00000000000E+00 -0.13018419889E+04  0.13018419889E+04  0.00000000000E+00 0. -1.
         23    2    1    2    0    0 -0.10491853810E+04  0.81783200692E+03  0.14118598719E+03  0.13407657197E+04  0.89889247920E+02 0.  0.
         13    1    3    3    0    0 -0.38708017196E+03  0.27161663032E+03  0.14141073436E+02  0.47308204716E+03  0.00000000000E+00 0. -1.
        -13    1    3    3    0    0 -0.66210520906E+03  0.54621537660E+03  0.12704491376E+03  0.86768367255E+03  0.00000000000E+00 0.  1.
         22    1    1    2    0    0  0.10491853810E+04 -0.81783200692E+03 -0.71885537282E+02  0.13322187079E+04  0.00000000000E+00 0. -1.
<mgrwt>
<rscale>  0 0.26720859E+04</rscale>
<asrwt>0</asrwt>
<pdfrwt beam="1">  1        2 0.21094499E+00 0.26720859E+04</pdfrwt>
<pdfrwt beam="2">  1       -2 0.20028338E+00 0.26720859E+04</pdfrwt>
<totfact> 0.17507639E+00</totfact>
</mgrwt>
</event>
<event>
 6    1  0.2436515E-005  0.3051576E+04  0.7818608E-02  0.8229155E-01
          2   -1    0    0  501    0  0.00000000000E+00  0.00000000000E+00  0.11297507403E+04  0.11297507403E+04  0.00000000000E+00 0. -1.
         -2   -1    0    0    0  501 -0.00000000000E+00 -0.00000000000E+00 -0.20606570873E+04  0.20606570873E+04  0.00000000000E+00 0.  1.
         23    2    1    2    0    0  0.54508402686E+03  0.14235926013E+04 -0.48409346836E+03  0.16018946110E+04  0.89372074309E+02 0.  0.
         11    1    3    3    0    0  0.13063836311E+03  0.38295076435E+03 -0.16712841013E+03  0.43777799774E+03  0.00000000000E+00 0. -1.
        -11    1    3    3    0    0  0.41444566375E+03  0.10406418370E+04 -0.31696505823E+03  0.11641166133E+04  0.00000000000E+00 0.  1.
         22    1    1    2    0    0 -0.54508402686E+03 -0.14235926013E+04 -0.44681287858E+03  0.15885132166E+04  0.00000000000E+00 0.  1.
<mgrwt>
<rscale>  0 0.30515759E+04</rscale>
<asrwt>0</asrwt>
<pdfrwt beam="1">  1        2 0.17380781E+00 0.30515759E+04</pdfrwt>
<pdfrwt beam="2">  1       -2 0.31702416E+00 0.30515759E+04</pdfrwt>
<totfact> 0.44467938E-01</totfact>
</mgrwt>
</event>
<event>
 6    1  0.2436515E-005  0.3068103E+04  0.7818608E-02  0.8224547E-01
         -2   -1    0    0    0  501 -0.00000000000E+00  0.00000000000E+00  0.55901195877E+03  0.55901195877E+03  0.00000000000E+00 0. -1.
          2   -1    0    0  501    0  0.00000000000E+00 -0.00000000000E+00 -0.42097742318E+04  0.42097742318E+04  0.00000000000E+00 0.  1.
         23    2    1    2    0    0  0.10151146844E+04 -0.11127423729E+04 -0.13837904621E+04  0.20470561153E+04  0.83122110204E+02 0.  0.
         13    1    3    3    0    0  0.48277964579E+03 -0.52837944598E+03 -0.71398344761E+03  0.10109566701E+04  0.00000000000E+00 0.  1.
        -13    1    3    3    0    0  0.53233503865E+03 -0.58436292691E+03 -0.66980701445E+03  0.10360994452E+04  0.00000000000E+00 0. -1.
         22    1    1    2    0    0 -0.10151146844E+04  0.11127423729E+04 -0.22669718109E+04  0.27217300753E+04  0.00000000000E+00 0.  1.
<mgrwt>
<rscale>  0 0.30681031E+04</rscale>
<asrwt>0</asrwt>
<pdfrwt beam="1">  1        2 0.64765759E+00 0.30681031E+04</pdfrwt>
<pdfrwt beam="2">  1       -2 0.86001838E-01 0.30681031E+04</pdfrwt>
<totfact> 0.22745325E-01</totfact>
</mgrwt>
</event>
<event>
 6    1  0.2436515E-005  0.2237722E+04  0.7818608E-02  0.8502889E-01
         -2   -1    0    0    0  501 -0.00000000000E+00  0.00000000000E+00  0.39219613375E+03  0.39219613375E+03  0.00000000000E+00 0. -1.
          2   -1    0    0  501    0  0.00000000000E+00 -0.00000000000E+00 -0.31918990142E+04  0.31918990142E+04  0.00000000000E+00 0.  1.
         23    2    1    2    0    0 -0.60913950383E+03  0.27016194340E+03  0.34465676792E+02  0.67264365056E+03  0.84989334393E+02 0.  0.
         13    1    3    3    0    0 -0.46494333723E+03  0.24195730029E+03  0.39583995336E+02  0.52562585047E+03  0.00000000000E+00 0.  1.
        -13    1    3    3    0    0 -0.14419616660E+03  0.28204643114E+02 -0.51183185444E+01  0.14701780008E+03  0.00000000000E+00 0. -1.
         22    1    1    2    0    0  0.60913950383E+03 -0.27016194340E+03 -0.28341685573E+04  0.29114514974E+04  0.00000000000E+00 0.  1.
<mgrwt>
<rscale>  0 0.22377225E+04</rscale>
<asrwt>0</asrwt>
<pdfrwt beam="1">  1        2 0.49106138E+00 0.22377225E+04</pdfrwt>
<pdfrwt beam="2">  1       -2 0.60337867E-01 0.22377225E+04</pdfrwt>
<totfact> 0.30665293E+00</totfact>
</mgrwt>
</event>
<event>
 6    1  0.2436515E-005  0.2108528E+04  0.7818608E-02  0.8557496E-01
          2   -1    0    0  501    0  0.00000000000E+00  0.00000000000E+00  0.38505259176E+04  0.38505259176E+04  0.00000000000E+00 0.  1.
         -2   -1    0    0    0  501 -0.00000000000E+00 -0.00000000000E+00 -0.28865483144E+03  0.28865483144E+03  0.00000000000E+00 0. -1.
         23    2    1    2    0    0  0.76062065808E+03 -0.52745648996E+03  0.80135087201E+03  0.12276131323E+04  0.90092442263E+02 0.  0.
         11    1    3    3    0    0  0.58184193226E+03 -0.37183881082E+03  0.63444451534E+03  0.93772276202E+03  0.00000000000E+00 0. -1.
        -11    1    3    3    0    0  0.17877872582E+03 -0.15561767914E+03  0.16690635667E+03  0.28989037025E+03  0.00000000000E+00 0.  1.
         22    1    1    2    0    0 -0.76062065808E+03  0.52745648996E+03  0.27605202141E+04  0.29115676168E+04  0.00000000000E+00 0.  1.
<mgrwt>
<rscale>  0 0.21085283E+04</rscale>
<asrwt>0</asrwt>
<pdfrwt beam="1">  1        2 0.59238857E+00 0.21085283E+04</pdfrwt>
<pdfrwt beam="2">  1       -2 0.44408438E-01 0.21085283E+04</pdfrwt>
<totfact> 0.20037395E+00</totfact>
</mgrwt>
</event>
<event>
 6    1  0.2436515E-005  0.1375912E+04  0.7818608E-02  0.8971442E-01
          2   -1    0    0  501    0  0.00000000000E+00  0.00000000000E+00  0.60926237610E+03  0.60926237610E+03  0.00000000000E+00 0.  1.
         -2   -1    0    0    0  501 -0.00000000000E+00 -0.00000000000E+00 -0.77681387023E+03  0.77681387023E+03  0.00000000000E+00 0. -1.
         23    2    1    2    0    0  0.28208676496E+03 -0.20098021074E+03  0.51112080970E+03  0.62412999885E+03  0.91256699981E+02 0.  0.
         11    1    3    3    0    0  0.20732469201E+03 -0.17864295377E+03  0.34312672708E+03  0.43889951433E+03  0.00000000000E+00 0. -1.
        -11    1    3    3    0    0  0.74762072948E+02 -0.22337256974E+02  0.16799408262E+03  0.18523048452E+03  0.00000000000E+00 0.  1.
         22    1    1    2    0    0 -0.28208676496E+03  0.20098021074E+03 -0.67867230382E+03  0.76194624748E+03  0.00000000000E+00 0. -1.
<mgrwt>
<rscale>  0 0.13759120E+04</rscale>
<asrwt>0</asrwt>
<pdfrwt beam="1">  1        2 0.93732674E-01 0.13759120E+04</pdfrwt>
<pdfrwt beam="2">  1       -2 0.11950983E+00 0.13759120E+04</pdfrwt>
<totfact> 0.25456542E+01</totfact>
</mgrwt>
</event>
<event>
 6    1  0.2436515E-005  0.1449178E+04  0.7818608E-02  0.8918971E-01
         -2   -1    0    0    0  501 -0.00000000000E+00  0.00000000000E+00  0.19177738302E+03  0.19177738302E+03  0.00000000000E+00 0. -1.
          2   -1    0    0  501    0  0.00000000000E+00 -0.00000000000E+00 -0.27377014304E+04  0.27377014304E+04  0.00000000000E+00 0.  1.
         23    2    1    2    0    0 -0.29485639588E+02  0.69213762039E+03 -0.86888397969E+03  0.11149851438E+04  0.91151589159E+02 0.  0.
         13    1    3    3    0    0 -0.61509204299E+02  0.37838031043E+03 -0.47798665083E+03  0.61272039292E+03  0.00000000000E+00 0. -1.
        -13    1    3    3    0    0  0.32023564710E+02  0.31375730996E+03 -0.39089732886E+03  0.50226475086E+03  0.00000000000E+00 0.  1.
         22    1    1    2    0    0  0.29485639588E+02 -0.69213762039E+03 -0.16770400677E+04  0.18144936696E+04  0.00000000000E+00 0.  1.
<mgrwt>
<rscale>  0 0.14491780E+04</rscale>
<asrwt>0</asrwt>
<pdfrwt beam="1">  1        2 0.42118479E+00 0.14491780E+04</pdfrwt>
<pdfrwt beam="2">  1       -2 0.29504216E-01 0.14491780E+04</pdfrwt>
<totfact> 0.26003201E+01</totfact>
</mgrwt>
</event>
<event>
 6    1  0.2436515E-005  0.1356485E+04  0.7818608E-02  0.8985934E-01
          2   -1    0    0  501    0  0.00000000000E+00  0.00000000000E+00  0.12619363442E+04  0.12619363442E+04  0.00000000000E+00 0. -1.
         -2   -1    0    0    0  501 -0.00000000000E+00 -0.00000000000E+00 -0.36452929696E+03  0.36452929696E+03  0.00000000000E+00 0.  1.
         23    2    1    2    0    0 -0.50755704112E+03  0.25736903339E+03  0.16756480631E+02  0.57794363861E+03  0.99423842333E+02 0.  0.
         11    1    3    3    0    0 -0.33474271749E+03  0.19176700631E+03 -0.31006880537E+02  0.38702544912E+03  0.00000000000E+00 0.  1.
        -11    1    3    3    0    0 -0.17281432363E+03  0.65602027077E+02  0.47763361168E+02  0.19091818949E+03  0.00000000000E+00 0. -1.
         22    1    1    2    0    0  0.50755704112E+03 -0.25736903339E+03  0.88065056657E+03  0.10485220025E+04  0.00000000000E+00 0. -1.
<mgrwt>
<rscale>  0 0.13564848E+04</rscale>
<asrwt>0</asrwt>
<pdfrwt beam="1">  1        2 0.19414405E+00 0.13564848E+04</pdfrwt>
<pdfrwt beam="2">  1       -2 0.56081431E-01 0.13564848E+04</pdfrwt>
<totfact> 0.50717625E+01</totfact>
</mgrwt>
</event>
<event>
 6    1  0.2436515E-005  0.4878053E+04  0.7818608E-02  0.7847599E-01
         -2   -1    0    0    0  501 -0.00000000000E+00  0.00000000000E+00  0.16776553273E+04  0.16776553273E+04  0.00000000000E+00 0. -1.
          2   -1    0    0  501    0  0.00000000000E+00 -0.00000000000E+00 -0.35459308707E+04  0.35459308707E+04  0.00000000000E+00 0.  1.
         23    2    1    2    0    0  0.19893390523E+04  0.20244295986E+03  0.55943539058E+03  0.20783940901E+04  0.91109935934E+02 0.  0.
         11    1    3    3    0    0  0.12502908378E+04  0.13848340381E+03  0.39597082232E+03  0.13187864589E+04  0.00000000000E+00 0. -1.
        -11    1    3    3    0    0  0.73904821452E+03  0.63959556042E+02  0.16346456826E+03  0.75960763113E+03  0.00000000000E+00 0.  1.
         22    1    1    2    0    0 -0.19893390523E+04 -0.20244295986E+03 -0.24277109339E+04  0.31451921079E+04  0.00000000000E+00 0.  1.
<mgrwt>
<rscale>  0 0.48780528E+04</rscale>
<asrwt>0</asrwt>
<pdfrwt beam="1">  1        2 0.54552782E+00 0.48780528E+04</pdfrwt>
<pdfrwt beam="2">  1       -2 0.25810082E+00 0.48780528E+04</pdfrwt>
<totfact> 0.31719384E-02</totfact>
</mgrwt>
</event>
<event>
 6    1  0.2436515E-005  0.1404795E+04  0.7818608E-02  0.8950355E-01
          2   -1    0    0  501    0  0.00000000000E+00  0.00000000000E+00  0.62947194764E+03  0.62947194764E+03  0.00000000000E+00 0.  1.
         -2   -1    0    0    0  501 -0.00000000000E+00 -0.00000000000E+00 -0.78377121928E+03  0.78377121928E+03  0.00000000000E+00 0. -1.
         23    2    1    2    0    0  0.40846578108E+03  0.55884729221E+03 -0.17765795474E+03  0.72063922642E+03  0.92757508843E+02 0.  0.
         13    1    3    3    0    0  0.25145876149E+03  0.41292115827E+03 -0.13664528563E+03  0.50240155828E+03  0.00000000000E+00 0. -1.
        -13    1    3    3    0    0  0.15700701958E+03  0.14592613394E+03 -0.41012669106E+02  0.21823766813E+03  0.00000000000E+00 0.  1.
         22    1    1    2    0    0 -0.40846578108E+03 -0.55884729221E+03  0.23358683093E+02  0.69260394050E+03  0.00000000000E+00 0. -1.
<mgrwt>
<rscale>  0 0.14047946E+04</rscale>
<asrwt>0</asrwt>
<pdfrwt beam="1">  1        2 0.96841839E-01 0.14047946E+04</pdfrwt>
<pdfrwt beam="2">  1       -2 0.12058019E+00 0.14047946E+04</pdfrwt>
<totfact> 0.23874762E+01</totfact>
</mgrwt>
</event>
<event>
 6    1  0.2436515E-005  0.1733111E+04  0.7818608E-02  0.8742702E-01
          2   -1    0    0  501    0  0.00000000000E+00  0.00000000000E+00  0.29386206448E+04  0.29386206448E+04  0.00000000000E+00 0.  1.
         -2   -1    0    0    0  501 -0.00000000000E+00 -0.00000000000E+00 -0.25553437389E+03  0.25553437389E+03  0.00000000000E+00 0. -1.
         23    2    1    2    0    0  0.67381270572E+03  0.28987487048E+02  0.23412736712E+04  0.24380467658E+04  0.87440219594E+02 0.  0.
         13    1    3    3    0    0  0.45063416548E+03 -0.12231002315E+02  0.14594770722E+04  0.15275123806E+04  0.00000000000E+00 0. -1.
        -13    1    3    3    0    0  0.22317854024E+03  0.41218489363E+02  0.88179659896E+03  0.91053438520E+03  0.00000000000E+00 0.  1.
         22    1    1    2    0    0 -0.67381270572E+03 -0.28987487048E+02  0.34181259975E+03  0.75610825293E+03  0.00000000000E+00 0. -1.
<mgrwt>
<rscale>  0 0.17331112E+04</rscale>
<asrwt>0</asrwt>
<pdfrwt beam="1">  1        2 0.45209546E+00 0.17331112E+04</pdfrwt>
<pdfrwt beam="2">  1       -2 0.39312983E-01 0.17331112E+04</pdfrwt>
<totfact> 0.11086934E+01</totfact>
</mgrwt>
</event>
<event>
 6    1  0.2436515E-005  0.1943643E+04  0.7818608E-02  0.8633432E-01
          2   -1    0    0  501    0  0.00000000000E+00  0.00000000000E+00  0.99913702734E+03  0.99913702734E+03  0.00000000000E+00 0.  1.
         -2   -1    0    0    0  501 -0.00000000000E+00 -0.00000000000E+00 -0.94525252131E+03  0.94525252131E+03  0.00000000000E+00 0. -1.
         23    2    1    2    0    0  0.82989193414E+03  0.28934051012E+03 -0.38347808756E+03  0.96269479394E+03  0.85365505280E+02 0.  0.
         11    1    3    3    0    0  0.30012347224E+03  0.97897859689E+02 -0.94094056672E+02  0.32941126426E+03  0.00000000000E+00 0.  1.
        -11    1    3    3    0    0  0.52976846190E+03  0.19144265043E+03 -0.28938403089E+03  0.63328352968E+03  0.00000000000E+00 0. -1.
         22    1    1    2    0    0 -0.82989193414E+03 -0.28934051012E+03  0.43736259360E+03  0.98169475471E+03  0.00000000000E+00 0. -1.
<mgrwt>
<rscale>  0 0.19436428E+04</rscale>
<asrwt>0</asrwt>
<pdfrwt beam="1">  1        2 0.15371339E+00 0.19436428E+04</pdfrwt>
<pdfrwt beam="2">  1       -2 0.14542347E+00 0.19436428E+04</pdfrwt>
<totfact> 0.76534037E+00</totfact>
</mgrwt>
</event>
<event>
 6    1  0.2436515E-005  0.1246616E+04  0.7818608E-02  0.9073004E-01
          2   -1    0    0  501    0  0.00000000000E+00  0.00000000000E+00  0.26263094134E+04  0.26263094134E+04  0.00000000000E+00 0.  1.
         -2   -1    0    0    0  501 -0.00000000000E+00 -0.00000000000E+00 -0.14793110949E+03  0.14793110949E+03  0.00000000000E+00 0. -1.
         23    2    1    2    0    0  0.87592579745E+02  0.51280633641E+03  0.19962870231E+04  0.20649769600E+04  0.91242357724E+02 0.  0.
         11    1    3    3    0    0  0.91967700345E+02  0.45327401199E+03  0.16506446418E+04  0.17142179328E+04  0.00000000000E+00 0.  1.
        -11    1    3    3    0    0 -0.43751205995E+01  0.59532324421E+02  0.34564238135E+03  0.35075902714E+03  0.00000000000E+00 0. -1.
         22    1    1    2    0    0 -0.87592579745E+02 -0.51280633641E+03  0.48209128082E+03  0.70926356296E+03  0.00000000000E+00 0. -1.
<mgrwt>
<rscale>  0 0.12466160E+04</rscale>
<asrwt>0</asrwt>
<pdfrwt beam="1">  1        2 0.40404757E+00 0.12466160E+04</pdfrwt>
<pdfrwt beam="2">  1       -2 0.22758634E-01 0.12466160E+04</pdfrwt>
<totfact> 0.49445115E+01</totfact>
</mgrwt>
</event>
<event>
 6    1  0.2436515E-005  0.3492290E+04  0.7818608E-02  0.8115620E-01
          2   -1    0    0  501    0  0.00000000000E+00  0.00000000000E+00  0.14000798823E+04  0.14000798823E+04  0.00000000000E+00 0.  1.
         -2   -1    0    0    0  501 -0.00000000000E+00 -0.00000000000E+00 -0.21777488480E+04  0.21777488480E+04  0.00000000000E+00 0. -1.
         23    2    1    2    0    0 -0.14438466071E+03 -0.60516174152E+03  0.12810386481E+04  0.14271672733E+04  0.93159777877E+02 0.  0.
         11    1    3    3    0    0 -0.11965828116E+02 -0.22840695644E+03  0.50608017631E+03  0.55536480231E+03  0.00000000000E+00 0.  1.
        -11    1    3    3    0    0 -0.13241883260E+03 -0.37675478508E+03  0.77495847183E+03  0.87180247096E+03  0.00000000000E+00 0. -1.
         22    1    1    2    0    0  0.14438466071E+03  0.60516174152E+03 -0.20587076138E+04  0.21506614570E+04  0.00000000000E+00 0. -1.
<mgrwt>
<rscale>  0 0.34922900E+04</rscale>
<asrwt>0</asrwt>
<pdfrwt beam="1">  1        2 0.21539691E+00 0.34922900E+04</pdfrwt>
<pdfrwt beam="2">  1       -2 0.33503828E+00 0.34922900E+04</pdfrwt>
<totfact> 0.22967707E-01</totfact>
</mgrwt>
</event>
<event>
 6    1  0.2436515E-005  0.2740495E+04  0.7818608E-02  0.8321984E-01
         -2   -1    0    0    0  501 -0.00000000000E+00  0.00000000000E+00  0.80985426557E+03  0.80985426557E+03  0.00000000000E+00 0. -1.
          2   -1    0    0  501    0  0.00000000000E+00 -0.00000000000E+00 -0.23184150296E+04  0.23184150296E+04  0.00000000000E+00 0.  1.
         23    2    1    2    0    0  0.31942749109E+03 -0.37140838160E+03 -0.22140161520E+04  0.22694064351E+04  0.91432699167E+02 0.  0.
         13    1    3    3    0    0  0.16968499282E+03 -0.24687574620E+03 -0.11975366157E+04  0.12344369473E+04  0.00000000000E+00 0.  1.
        -13    1    3    3    0    0  0.14974249827E+03 -0.12453263541E+03 -0.10164795362E+04  0.10349694878E+04  0.00000000000E+00 0. -1.
         22    1    1    2    0    0 -0.31942749109E+03  0.37140838160E+03  0.70545538795E+03  0.85886286005E+03  0.00000000000E+00 0. -1.
<mgrwt>
<rscale>  0 0.27404951E+04</rscale>
<asrwt>0</asrwt>
<pdfrwt beam="1">  1        2 0.35667923E+00 0.27404951E+04</pdfrwt>
<pdfrwt beam="2">  1       -2 0.12459297E+00 0.27404951E+04</pdfrwt>
<totfact> 0.18705037E+00</totfact>
</mgrwt>
</event>
<event>
 6    1  0.2436515E-005  0.4886811E+04  0.7818608E-02  0.7846209E-01
          2   -1    0    0  501    0  0.00000000000E+00  0.00000000000E+00  0.38125677264E+04  0.38125677264E+04  0.00000000000E+00 0.  1.
         -2   -1    0    0    0  501 -0.00000000000E+00 -0.00000000000E+00 -0.15659342590E+04  0.15659342590E+04  0.00000000000E+00 0. -1.
         23    2    1    2    0    0  0.21604680191E+04  0.62402015150E+03  0.73856478430E+02  0.22515253218E+04  0.82995687180E+02 0.  0.
         13    1    3    3    0    0  0.10783175955E+04  0.28191031045E+03  0.66878519190E+02  0.11165639239E+04  0.00000000000E+00 0. -1.
        -13    1    3    3    0    0  0.10821504236E+04  0.34210984105E+03  0.69779592408E+01  0.11349613978E+04  0.00000000000E+00 0.  1.
         22    1    1    2    0    0 -0.21604680191E+04 -0.62402015150E+03  0.21727769889E+04  0.31269766636E+04  0.00000000000E+00 0.  1.
<mgrwt>
<rscale>  0 0.48868110E+04</rscale>
<asrwt>0</asrwt>
<pdfrwt beam="1">  1        2 0.58654888E+00 0.48868110E+04</pdfrwt>
<pdfrwt beam="2">  1       -2 0.24091296E+00 0.48868110E+04</pdfrwt>
<totfact> 0.25714658E-02</totfact>
</mgrwt>
</event>
<event>
 6    1  0.2436515E-005  0.8611248E+03  0.7818608E-02  0.9475526E-01
         -2   -1    0    0    0  501 -0.00000000000E+00  0.00000000000E+00  0.23234070307E+03  0.23234070307E+03  0.00000000000E+00 0. -1.
          2   -1    0    0  501    0  0.00000000000E+00 -0.00000000000E+00 -0.79789717151E+03  0.79789717151E+03  0.00000000000E+00 0.  1.
         23    2    1    2    0    0 -0.14506654953E+03  0.29879331837E+03 -0.60461762767E+03  0.69580174457E+03  0.90861659508E+02 0.  0.
         11    1    3    3    0    0 -0.12742138954E+03  0.18091254676E+03 -0.34121666074E+03  0.40668706600E+03  0.00000000000E+00 0. -1.
        -11    1    3    3    0    0 -0.17645159993E+02  0.11788077161E+03 -0.26340096693E+03  0.28911467857E+03  0.00000000000E+00 0.  1.
         22    1    1    2    0    0  0.14506654953E+03 -0.29879331837E+03  0.39061159234E+02  0.33443613001E+03  0.00000000000E+00 0. -1.
<mgrwt>
<rscale>  0 0.86112482E+03</rscale>
<asrwt>0</asrwt>
<pdfrwt beam="1">  1        2 0.12275341E+00 0.86112482E+03</pdfrwt>
<pdfrwt beam="2">  1       -2 0.35744724E-01 0.86112482E+03</pdfrwt>
<totfact> 0.25515241E+02</totfact>
</mgrwt>
</event>
<event>
 6    1  0.2436515E-005  0.2776120E+04  0.7818608E-02  0.8310721E-01
          2   -1    0    0  501    0  0.00000000000E+00  0.00000000000E+00  0.13667032964E+04  0.13667032964E+04  0.00000000000E+00 0.  1.
         -2   -1    0    0    0  501 -0.00000000000E+00 -0.00000000000E+00 -0.14097504763E+04  0.14097504763E+04  0.00000000000E+00 0. -1.
         23    2    1    2    0    0  0.12151402114E+04 -0.58502462601E+03  0.30070634904E+03  0.13846973159E+04  0.90237475589E+02 0.  0.
         13    1    3    3    0    0  0.83536669457E+03 -0.44788762768E+03  0.20786578690E+03  0.97038601947E+03  0.00000000000E+00 0. -1.
        -13    1    3    3    0    0  0.37977351679E+03 -0.13713699832E+03  0.92840562136E+02  0.41431129642E+03  0.00000000000E+00 0.  1.
         22    1    1    2    0    0 -0.12151402114E+04  0.58502462601E+03 -0.34375352896E+03  0.13917564568E+04  0.00000000000E+00 0. -1.
<mgrwt>
<rscale>  0 0.27761200E+04</rscale>
<asrwt>0</asrwt>
<pdfrwt beam="1">  1        2 0.21026204E+00 0.27761200E+04</pdfrwt>
<pdfrwt beam="2">  1       -2 0.21688469E+00 0.27761200E+04</pdfrwt>
<totfact> 0.13639561E+00</totfact>
</mgrwt>
</event>
<event>
 6    1  0.2436515E-005  0.2076409E+04  0.7818608E-02  0.8571707E-01
          2   -1    0    0  501    0  0.00000000000E+00  0.00000000000E+00  0.22729754243E+04  0.22729754243E+04  0.00000000000E+00 0.  1.
         -2   -1    0    0    0  501 -0.00000000000E+00 -0.00000000000E+00 -0.47421018318E+03  0.47421018318E+03  0.00000000000E+00 0. -1.
         23    2    1    2    0    0 -0.21819560602E+03 -0.10077566653E+04  0.10368786314E+04  0.14651348967E+04  0.91214858933E+02 0.  0.
         11    1    3    3    0    0 -0.25150618009E+02 -0.31360461378E+03  0.32007173774E+03  0.44880544190E+03  0.00000000000E+00 0. -1.
        -11    1    3    3    0    0 -0.19304498801E+03 -0.69415205150E+03  0.71680689363E+03  0.10163294548E+04  0.00000000000E+00 0.  1.
         22    1    1    2    0    0  0.21819560602E+03  0.10077566653E+04  0.76188660979E+03  0.12820507108E+04  0.00000000000E+00 0. -1.
<mgrwt>
<rscale>  0 0.20764085E+04</rscale>
<asrwt>0</asrwt>
<pdfrwt beam="1">  1        2 0.34968852E+00 0.20764085E+04</pdfrwt>
<pdfrwt beam="2">  1       -2 0.72955414E-01 0.20764085E+04</pdfrwt>
<totfact> 0.73611389E+00</totfact>
</mgrwt>
</event>
<event>
 6    1  0.2436515E-005  0.5445955E+04  0.7818608E-02  0.7763170E-01
         -2   -1    0    0    0  501 -0.00000000000E+00  0.00000000000E+00  0.35704552373E+04  0.35704552373E+04  0.00000000000E+00 0. -1.
          2   -1    0    0  501    0  0.00000000000E+00 -0.00000000000E+00 -0.20766555760E+04  0.20766555760E+04  0.00000000000E+00 0.  1.
         23    2    1    2    0    0  0.26003245650E+04 -0.80542874910E+03  0.75632798886E+03  0.28267796659E+04  0.90818167338E+02 0.  0.
         13    1    3    3    0    0  0.10850852652E+04 -0.36324254052E+03  0.27995481373E+03  0.11780194709E+04  0.00000000000E+00 0.  1.
        -13    1    3    3    0    0  0.15152392998E+04 -0.44218620859E+03  0.47637317514E+03  0.16487601950E+04  0.00000000000E+00 0. -1.
         22    1    1    2    0    0 -0.26003245650E+04  0.80542874910E+03  0.73747167244E+03  0.28203311474E+04  0.00000000000E+00 0.  1.
<mgrwt>
<rscale>  0 0.54459547E+04</rscale>
<asrwt>0</asrwt>
<pdfrwt beam="1">  1        2 0.31948547E+00 0.54459547E+04</pdfrwt>
<pdfrwt beam="2">  1       -2 0.54930081E+00 0.54459547E+04</pdfrwt>
<totfact> 0.37142949E-03</totfact>
</mgrwt>
</event>
<event>
 6    1  0.2436515E-005  0.2604684E+04  0.7818608E-02  0.8366612E-01
         -2   -1    0    0    0  501 -0.00000000000E+00  0.00000000000E+00  0.79482528396E+03  0.79482528396E+03  0.00000000000E+00 0. -1.
          2   -1    0    0  501    0  0.00000000000E+00 -0.00000000000E+00 -0.21339214793E+04  0.21339214793E+04  0.00000000000E+00 0.  1.
         23    2    1    2    0    0  0.81137570927E+03 -0.83217591212E+03 -0.12022028691E+02  0.11646682123E+04  0.73893336775E+02 0.  0.
         11    1    3    3    0    0  0.54077194463E+03 -0.50850525380E+03  0.73143644922E+01  0.74233778643E+03  0.00000000000E+00 0. -1.
        -11    1    3    3    0    0  0.27060376464E+03 -0.32367065832E+03 -0.19336393183E+02  0.42233042584E+03  0.00000000000E+00 0.  1.
         22    1    1    2    0    0 -0.81137570927E+03  0.83217591212E+03 -0.13270741667E+04  0.17640785510E+04  0.00000000000E+00 0.  1.
<mgrwt>
<rscale>  0 0.26046840E+04</rscale>
<asrwt>0</asrwt>
<pdfrwt beam="1">  1        2 0.32829562E+00 0.26046840E+04</pdfrwt>
<pdfrwt beam="2">  1       -2 0.12228081E+00 0.26046840E+04</pdfrwt>
<totfact> 0.25195626E+00</totfact>
</mgrwt>
</event>
<event>
 6    1  0.2436515E-005  0.1007973E+04  0.7818608E-02  0.9299843E-01
          2   -1    0    0  501    0  0.00000000000E+00  0.00000000000E+00  0.11257061229E+04  0.11257061229E+04  0.00000000000E+00 0.  1.
         -2   -1    0    0    0  501 -0.00000000000E+00 -0.00000000000E+00 -0.22563814832E+03  0.22563814832E+03  0.00000000000E+00 0. -1.
         23    2    1    2    0    0  0.33240016990E+03  0.37339776112E+03  0.47662557844E+03  0.69619602552E+03  0.87184878085E+02 0.  0.
         13    1    3    3    0    0  0.21748909550E+03  0.29953905646E+03  0.36398261007E+03  0.51914207443E+03  0.00000000000E+00 0. -1.
        -13    1    3    3    0    0  0.11491107441E+03  0.73858704661E+02  0.11264296836E+03  0.17705395109E+03  0.00000000000E+00 0.  1.
         22    1    1    2    0    0 -0.33240016990E+03 -0.37339776112E+03  0.42344239611E+03  0.65514824565E+03  0.00000000000E+00 0. -1.
<mgrwt>
<rscale>  0 0.10079727E+04</rscale>
<asrwt>0</asrwt>
<pdfrwt beam="1">  1        2 0.17318555E+00 0.10079727E+04</pdfrwt>
<pdfrwt beam="2">  1       -2 0.34713562E-01 0.10079727E+04</pdfrwt>
<totfact> 0.16294397E+02</totfact>
</mgrwt>
</event>
<event>
 6    1  0.2436515E-005  0.3956369E+04  0.7818608E-02  0.8013407E-01
         -2   -1    0    0    0  501 -0.00000000000E+00  0.00000000000E+00  0.11140074792E+04  0.11140074792E+04  0.00000000000E+00 0.  1.
          2   -1    0    0  501    0  0.00000000000E+00 -0.00000000000E+00 -0.35127358074E+04  0.35127358074E+04  0.00000000000E+00 0. -1.
         23    2    1    2    0    0  0.28175710993E+03  0.18503995986E+04 -0.19448835365E+04  0.27007783757E+04  0.90918208121E+02 0.  0.
         11    1    3    3    0    0  0.18585385394E+03  0.13747271629E+04 -0.13934716953E+04  0.19662603574E+04  0.00000000000E+00 0. -1.
        -11    1    3    3    0    0  0.95903255991E+02  0.47567243564E+03 -0.55141184117E+03  0.73451801824E+03  0.00000000000E+00 0.  1.
         22    1    1    2    0    0 -0.28175710993E+03 -0.18503995986E+04 -0.45384479176E+03  0.19259649110E+04  0.00000000000E+00 0.  1.
<mgrwt>
<rscale>  0 0.39563690E+04</rscale>
<asrwt>0</asrwt>
<pdfrwt beam="1">  1        2 0.54042088E+00 0.39563690E+04</pdfrwt>
<pdfrwt beam="2">  1       -2 0.17138577E+00 0.39563690E+04</pdfrwt>
<totfact> 0.13112388E-01</totfact>
</mgrwt>
</event>
<event>
 6    1  0.2436515E-005  0.2834570E+04  0.7818608E-02  0.8292615E-01
          2   -1    0    0  501    0  0.00000000000E+00  0.00000000000E+00  0.30795831395E+04  0.30795831395E+04  0.00000000000E+00 0.  1.
         -2   -1    0    0    0  501 -0.00000000000E+00 -0.00000000000E+00 -0.65226258015E+03  0.65226258015E+03  0.00000000000E+00 0. -1.
         23    2    1    2    0    0  0.11540450916E+04 -0.13138240927E+03  0.22808179757E+04  0.25611431879E+04  0.90787553412E+02 0.  0.
         11    1    3    3    0    0  0.46590367657E+03 -0.85386800527E+02  0.99726588126E+03  0.11040364031E+04  0.00000000000E+00 0. -1.
        -11    1    3    3    0    0  0.68814141499E+03 -0.45995608747E+02  0.12835520944E+04  0.14571067847E+04  0.00000000000E+00 0.  1.
         22    1    1    2    0    0 -0.11540450916E+04  0.13138240927E+03  0.14650258365E+03  0.11707025317E+04  0.00000000000E+00 0. -1.
<mgrwt>
<rscale>  0 0.28345701E+04</rscale>
<asrwt>0</asrwt>
<pdfrwt beam="1">  1        2 0.47378201E+00 0.28345701E+04</pdfrwt>
<pdfrwt beam="2">  1       -2 0.10034809E+00 0.28345701E+04</pdfrwt>
<totfact> 0.11017915E+00</totfact>
</mgrwt>
</event>
<event>
 6    1  0.2436515E-005  0.2233977E+04  0.7818608E-02  0.8504418E-01
          2   -1    0    0  501    0  0.00000000000E+00  0.00000000000E+00  0.98819301924E+03  0.98819301924E+03  0.00000000000E+00 0.  1.
         -2   -1    0    0    0  501 -0.00000000000E+00 -0.00000000000E+00 -0.12625702154E+04  0.12625702154E+04  0.00000000000E+00 0. -1.
         23    2    1    2    0    0 -0.99789935995E+03 -0.48692073686E+03 -0.24042146065E+03  0.11398861358E+04  0.92967668390E+02 0.  0.
         11    1    3    3    0    0 -0.35447930821E+03 -0.22095381444E+03 -0.10330925021E+03  0.43028940174E+03  0.00000000000E+00 0. -1.
        -11    1    3    3    0    0 -0.64342005174E+03 -0.26596692242E+03 -0.13711221043E+03  0.70959673410E+03  0.00000000000E+00 0.  1.
         22    1    1    2    0    0  0.99789935995E+03  0.48692073686E+03 -0.33955735473E+02  0.11108770988E+04  0.00000000000E+00 0. -1.
<mgrwt>
<rscale>  0 0.22339768E+04</rscale>
<asrwt>0</asrwt>
<pdfrwt beam="1">  1        2 0.15202970E+00 0.22339768E+04</pdfrwt>
<pdfrwt beam="2">  1       -2 0.19424157E+00 0.22339768E+04</pdfrwt>
<totfact> 0.33918033E+00</totfact>
</mgrwt>
</event>
<event>
 6    1  0.2436515E-005  0.7107118E+04  0.7818608E-02  0.7566488E-01
          2   -1    0    0  501    0  0.00000000000E+00  0.00000000000E+00  0.36222261968E+04  0.36222261968E+04  0.00000000000E+00 0.  1.
         -2   -1    0    0    0  501 -0.00000000000E+00 -0.00000000000E+00 -0.34861939217E+04  0.34861939217E+04  0.00000000000E+00 0. -1.
         23    2    1    2    0    0  0.14679697082E+03  0.91524909917E+03 -0.33625042373E+04  0.34891677105E+04  0.92877886572E+02 0.  0.
         13    1    3    3    0    0  0.24168417656E+02  0.41558190677E+03 -0.14318713878E+04  0.14911566332E+04  0.00000000000E+00 0. -1.
        -13    1    3    3    0    0  0.12262855317E+03  0.49966719240E+03 -0.19306328495E+04  0.19980110772E+04  0.00000000000E+00 0.  1.
         22    1    1    2    0    0 -0.14679697082E+03 -0.91524909917E+03  0.34985365124E+04  0.36192524080E+04  0.00000000000E+00 0.  1.
<mgrwt>
<rscale>  0 0.71071184E+04</rscale>
<asrwt>0</asrwt>
<pdfrwt beam="1">  1        2 0.55726557E+00 0.71071184E+04</pdfrwt>
<pdfrwt beam="2">  1       -2 0.53633752E+00 0.71071184E+04</pdfrwt>
<totfact> 0.42366744E-04</totfact>
</mgrwt>
</event>
<event>
 6    1  0.2436515E-005  0.1102692E+04  0.7818608E-02  0.9202572E-01
          4   -1    0    0  501    0  0.00000000000E+00  0.00000000000E+00  0.30511651379E+03  0.30511651379E+03  0.00000000000E+00 0.  1.
         -4   -1    0    0    0  501 -0.00000000000E+00 -0.00000000000E+00 -0.99628229819E+03  0.99628229819E+03  0.00000000000E+00 0. -1.
         23    2    1    2    0    0 -0.40541299717E+03 -0.63185998898E+01  0.86194027812E+02  0.42465033001E+03  0.92189312662E+02 0.  0.
         13    1    3    3    0    0 -0.24615070656E+03  0.34941839706E+02  0.75292856072E+02  0.25976935285E+03  0.00000000000E+00 0. -1.
        -13    1    3    3    0    0 -0.15926229061E+03 -0.41260439596E+02  0.10901171740E+02  0.16488097716E+03  0.00000000000E+00 0.  1.
         22    1    1    2    0    0  0.40541299717E+03  0.63185998898E+01 -0.77735981222E+03  0.87674848197E+03  0.00000000000E+00 0. -1.
<mgrwt>
<rscale>  0 0.11026916E+04</rscale>
<asrwt>0</asrwt>
<pdfrwt beam="1">  1        4 0.46941003E-01 0.11026916E+04</pdfrwt>
<pdfrwt beam="2">  1       -4 0.15327420E+00 0.11026916E+04</pdfrwt>
<totfact> 0.24462182E+00</totfact>
</mgrwt>
</event>
<event>
 6    1  0.2436515E-005  0.2362122E+04  0.7818608E-02  0.8453822E-01
          2   -1    0    0  501    0  0.00000000000E+00  0.00000000000E+00  0.15564270623E+04  0.15564270623E+04  0.00000000000E+00 0.  1.
         -2   -1    0    0    0  501 -0.00000000000E+00 -0.00000000000E+00 -0.89622246500E+03  0.89622246500E+03  0.00000000000E+00 0. -1.
         23    2    1    2    0    0 -0.85288455373E+03  0.58976917239E+03  0.91383233785E+03  0.13851446001E+04  0.91083933227E+02 0.  0.
         13    1    3    3    0    0 -0.71384087902E+03  0.47575811854E+03  0.79520206495E+03  0.11697268536E+04  0.00000000000E+00 0. -1.
        -13    1    3    3    0    0 -0.13904367472E+03  0.11401105385E+03  0.11863027290E+03  0.21541774655E+03  0.00000000000E+00 0.  1.
         22    1    1    2    0    0  0.85288455373E+03 -0.58976917239E+03 -0.25362774056E+03  0.10675049271E+04  0.00000000000E+00 0. -1.
<mgrwt>
<rscale>  0 0.23621218E+04</rscale>
<asrwt>0</asrwt>
<pdfrwt beam="1">  1        2 0.23945032E+00 0.23621218E+04</pdfrwt>
<pdfrwt beam="2">  1       -2 0.13788038E+00 0.23621218E+04</pdfrwt>
<totfact> 0.39771208E+00</totfact>
</mgrwt>
</event>
<event>
 6    1  0.2436515E-005  0.5815741E+04  0.7818608E-02  0.7713677E-01
          2   -1    0    0  501    0  0.00000000000E+00  0.00000000000E+00  0.15149467754E+04  0.15149467754E+04  0.00000000000E+00 0.  1.
         -2   -1    0    0    0  501 -0.00000000000E+00 -0.00000000000E+00 -0.55815225268E+04  0.55815225268E+04  0.00000000000E+00 0. -1.
         23    2    1    2    0    0  0.17770576581E+03 -0.20617849320E+04  0.45768087252E+03  0.21213879517E+04  0.90986897087E+02 0.  0.
         11    1    3    3    0    0  0.48101113119E+02 -0.26824646058E+03  0.41854793194E+02  0.27572033732E+03  0.00000000000E+00 0. -1.
        -11    1    3    3    0    0  0.12960465269E+03 -0.17935384714E+04  0.41582607933E+03  0.18456676143E+04  0.00000000000E+00 0.  1.
         22    1    1    2    0    0 -0.17770576581E+03  0.20617849320E+04 -0.45242566240E+04  0.49750813506E+04  0.00000000000E+00 0. -1.
<mgrwt>
<rscale>  0 0.58157406E+04</rscale>
<asrwt>0</asrwt>
<pdfrwt beam="1">  1        2 0.23306873E+00 0.58157406E+04</pdfrwt>
<pdfrwt beam="2">  1       -2 0.85869578E+00 0.58157406E+04</pdfrwt>
<totfact> 0.22917796E-04</totfact>
</mgrwt>
</event>
<event>
 6    1  0.2436515E-005  0.5931927E+03  0.7818608E-02  0.9919631E-01
         -2   -1    0    0    0  501 -0.00000000000E+00  0.00000000000E+00  0.11246107988E+03  0.11246107988E+03  0.00000000000E+00 0. -1.
          2   -1    0    0  501    0  0.00000000000E+00 -0.00000000000E+00 -0.78222082788E+03  0.78222082788E+03  0.00000000000E+00 0.  1.
         23    2    1    2    0    0  0.20876855415E+03 -0.19366725905E+03 -0.26328590002E+03  0.39838330256E+03  0.91095961391E+02 0.  0.
         13    1    3    3    0    0  0.72863084178E+02 -0.29179454312E+02 -0.11224218197E+03  0.13696268471E+03  0.00000000000E+00 0.  1.
        -13    1    3    3    0    0  0.13590546997E+03 -0.16448780474E+03 -0.15104371805E+03  0.26142061785E+03  0.00000000000E+00 0. -1.
         22    1    1    2    0    0 -0.20876855415E+03  0.19366725905E+03 -0.40647384798E+03  0.49629860520E+03  0.00000000000E+00 0.  1.
<mgrwt>
<rscale>  0 0.59319271E+03</rscale>
<asrwt>0</asrwt>
<pdfrwt beam="1">  1        2 0.12034167E+00 0.59319271E+03</pdfrwt>
<pdfrwt beam="2">  1       -2 0.17301704E-01 0.59319271E+03</pdfrwt>
<totfact> 0.97941584E+02</totfact>
</mgrwt>
</event>
<event>
 6    1  0.2436515E-005  0.2194778E+04  0.7818608E-02  0.8520605E-01
         -1   -1    0    0    0  501 -0.00000000000E+00  0.00000000000E+00  0.12427354598E+04  0.12427354598E+04  0.00000000000E+00 0. -1.
          1   -1    0    0  501    0  0.00000000000E+00 -0.00000000000E+00 -0.96904170706E+03  0.96904170706E+03  0.00000000000E+00 0.  1.
         23    2    1    2    0    0 -0.34800616333E+02 -0.94215682747E+03 -0.42392909746E+03  0.10389394920E+04  0.10396546519E+03 0.  0.
         11    1    3    3    0    0  0.18778509582E+02 -0.68138803223E+03 -0.28743379853E+03  0.73977055323E+03  0.00000000000E+00 0. -1.
        -11    1    3    3    0    0 -0.53579125915E+02 -0.26076879524E+03 -0.13649529892E+03  0.29916893878E+03  0.00000000000E+00 0.  1.
         22    1    1    2    0    0  0.34800616333E+02  0.94215682747E+03  0.69762285020E+03  0.11728376749E+04  0.00000000000E+00 0. -1.
<mgrwt>
<rscale>  0 0.21947779E+04</rscale>
<asrwt>0</asrwt>
<pdfrwt beam="1">  1        1 0.14908334E+00 0.21947779E+04</pdfrwt>
<pdfrwt beam="2">  1       -1 0.19119007E+00 0.21947779E+04</pdfrwt>
<totfact> 0.25304749E+00</totfact>
</mgrwt>
</event>
<event>
 6    1  0.2436515E-005  0.5622212E+04  0.7818608E-02  0.7739093E-01
         -2   -1    0    0    0  501 -0.00000000000E+00  0.00000000000E+00  0.17939428813E+04  0.17939428813E+04  0.00000000000E+00 0. -1.
          2   -1    0    0  501    0  0.00000000000E+00 -0.00000000000E+00 -0.44049985840E+04  0.44049985840E+04  0.00000000000E+00 0.  1.
         23    2    1    2    0    0  0.31322577311E+03 -0.80661857623E+03  0.16422740030E+04  0.18584855564E+04  0.90336870082E+02 0.  0.
         13    1    3    3    0    0  0.19707022804E+03 -0.48540256625E+03  0.10850925424E+04  0.12049390656E+04  0.00000000000E+00 0.  1.
        -13    1    3    3    0    0  0.11615554507E+03 -0.32121600999E+03  0.55718146052E+03  0.65354649082E+03  0.00000000000E+00 0. -1.
         22    1    1    2    0    0 -0.31322577311E+03  0.80661857623E+03 -0.42533297056E+04  0.43404559089E+04  0.00000000000E+00 0.  1.
<mgrwt>
<rscale>  0 0.56222116E+04</rscale>
<asrwt>0</asrwt>
<pdfrwt beam="1">  1        2 0.67769208E+00 0.56222116E+04</pdfrwt>
<pdfrwt beam="2">  1       -2 0.27599122E+00 0.56222116E+04</pdfrwt>
<totfact> 0.46428346E-03</totfact>
</mgrwt>
</event>
<event>
 6    1  0.2436515E-005  0.4376502E+04  0.7818608E-02  0.7932622E-01
          2   -1    0    0  501    0  0.00000000000E+00  0.00000000000E+00  0.19755018374E+04  0.19755018374E+04  0.00000000000E+00 0.  1.
         -2   -1    0    0    0  501 -0.00000000000E+00 -0.00000000000E+00 -0.24239118759E+04  0.24239118759E+04  0.00000000000E+00 0. -1.
         23    2    1    2    0    0  0.15729823252E+04 -0.12331858724E+04 -0.11187967341E+04  0.22912298711E+04  0.54839755130E+02 0.  0.
         11    1    3    3    0    0  0.10714920478E+04 -0.85251166778E+03 -0.79319627310E+03  0.15824132456E+04  0.00000000000E+00 0. -1.
        -11    1    3    3    0    0  0.50149027737E+03 -0.38067420459E+03 -0.32560046102E+03  0.70881662548E+03  0.00000000000E+00 0.  1.
         22    1    1    2    0    0 -0.15729823252E+04  0.12331858724E+04  0.67038669564E+03  0.21081838423E+04  0.00000000000E+00 0. -1.
<mgrwt>
<rscale>  0 0.43765020E+04</rscale>
<asrwt>0</asrwt>
<pdfrwt beam="1">  1        2 0.30392336E+00 0.43765020E+04</pdfrwt>
<pdfrwt beam="2">  1       -2 0.37290952E+00 0.43765020E+04</pdfrwt>
<totfact> 0.58673379E-02</totfact>
</mgrwt>
</event>
<event>
 6    1  0.2436515E-005  0.2718120E+04  0.7818608E-02  0.8329149E-01
         -2   -1    0    0    0  501 -0.00000000000E+00  0.00000000000E+00  0.23359774541E+04  0.23359774541E+04  0.00000000000E+00 0. -1.
          2   -1    0    0  501    0  0.00000000000E+00 -0.00000000000E+00 -0.79069445949E+03  0.79069445949E+03  0.00000000000E+00 0.  1.
         23    2    1    2    0    0 -0.26369581684E+03 -0.16034349051E+03  0.22942010659E+04  0.23166572246E+04  0.91085930819E+02 0.  0.
         13    1    3    3    0    0 -0.90602750664E+02 -0.10381552297E+03  0.86567109083E+03  0.87656885567E+03  0.00000000000E+00 0. -1.
        -13    1    3    3    0    0 -0.17309306617E+03 -0.56527967535E+02  0.14285299751E+04  0.14400883690E+04  0.00000000000E+00 0.  1.
         22    1    1    2    0    0  0.26369581684E+03  0.16034349051E+03 -0.74891807132E+03  0.81001468895E+03  0.00000000000E+00 0.  1.
<mgrwt>
<rscale>  0 0.27181203E+04</rscale>
<asrwt>0</asrwt>
<pdfrwt beam="1">  1        2 0.12164530E+00 0.27181203E+04</pdfrwt>
<pdfrwt beam="2">  1       -2 0.35938114E+00 0.27181203E+04</pdfrwt>
<totfact> 0.41590652E-01</totfact>
</mgrwt>
</event>
<event>
 6    1  0.2436515E-005  0.3137406E+04  0.7818608E-02  0.8205546E-01
          2   -1    0    0  501    0  0.00000000000E+00  0.00000000000E+00  0.37547783996E+04  0.37547783996E+04  0.00000000000E+00 0.  1.
         -2   -1    0    0    0  501 -0.00000000000E+00 -0.00000000000E+00 -0.65538615667E+03  0.65538615667E+03  0.00000000000E+00 0. -1.
         23    2    1    2    0    0  0.11161039125E+04 -0.11001541076E+04  0.15405794701E+04  0.21997518652E+04  0.97448247763E+02 0.  0.
         13    1    3    3    0    0  0.16131152531E+03 -0.17501092876E+03  0.18938164681E+03  0.30416383994E+03  0.00000000000E+00 0. -1.
        -13    1    3    3    0    0  0.95479238716E+03 -0.92514317886E+03  0.13511978233E+04  0.18955880253E+04  0.00000000000E+00 0.  1.
         22    1    1    2    0    0 -0.11161039125E+04  0.11001541076E+04  0.15588127728E+04  0.22104126910E+04  0.00000000000E+00 0.  1.
<mgrwt>
<rscale>  0 0.31374064E+04</rscale>
<asrwt>0</asrwt>
<pdfrwt beam="1">  1        2 0.57765820E+00 0.31374064E+04</pdfrwt>
<pdfrwt beam="2">  1       -2 0.10082864E+00 0.31374064E+04</pdfrwt>
<totfact> 0.36379977E-01</totfact>
</mgrwt>
</event>
<event>
 6    1  0.2436515E-005  0.2451390E+04  0.7818608E-02  0.8420511E-01
         -1   -1    0    0    0  501 -0.00000000000E+00  0.00000000000E+00  0.49156056608E+03  0.49156056608E+03  0.00000000000E+00 0.  1.
          1   -1    0    0  501    0  0.00000000000E+00 -0.00000000000E+00 -0.30562421530E+04  0.30562421530E+04  0.00000000000E+00 0. -1.
         23    2    1    2    0    0  0.66044037186E+03  0.10280566253E+04 -0.13949172845E+04  0.18562264031E+04  0.81855478863E+02 0.  0.
         11    1    3    3    0    0  0.31282943098E+03  0.55952027395E+03 -0.74776489806E+03  0.98492514062E+03  0.00000000000E+00 0. -1.
        -11    1    3    3    0    0  0.34761094088E+03  0.46853635134E+03 -0.64715238640E+03  0.87130126246E+03  0.00000000000E+00 0.  1.
         22    1    1    2    0    0 -0.66044037186E+03 -0.10280566253E+04 -0.11697643025E+04  0.16915763160E+04  0.00000000000E+00 0.  1.
<mgrwt>
<rscale>  0 0.24513899E+04</rscale>
<asrwt>0</asrwt>
<pdfrwt beam="1">  1        1 0.47019109E+00 0.24513899E+04</pdfrwt>
<pdfrwt beam="2">  1       -1 0.75624705E-01 0.24513899E+04</pdfrwt>
<totfact> 0.85230852E-01</totfact>
</mgrwt>
</event>
<event>
 6    1  0.2436515E-005  0.3502517E+04  0.7818608E-02  0.8113194E-01
         -2   -1    0    0    0  501 -0.00000000000E+00  0.00000000000E+00  0.12322036415E+04  0.12322036415E+04  0.00000000000E+00 0. -1.
          2   -1    0    0  501    0  0.00000000000E+00 -0.00000000000E+00 -0.24889599078E+04  0.24889599078E+04  0.00000000000E+00 0.  1.
         23    2    1    2    0    0  0.10898508230E+04  0.68378643323E+03  0.63167146408E+03  0.14361038137E+04  0.89702968001E+02 0.  0.
         13    1    3    3    0    0  0.64598954780E+03  0.42630166015E+03  0.42430044150E+03  0.88264741883E+03  0.00000000000E+00 0. -1.
        -13    1    3    3    0    0  0.44386127522E+03  0.25748477307E+03  0.20737102258E+03  0.55345639486E+03  0.00000000000E+00 0.  1.
         22    1    1    2    0    0 -0.10898508230E+04 -0.68378643323E+03 -0.18884277303E+04  0.22850597356E+04  0.00000000000E+00 0.  1.
<mgrwt>
<rscale>  0 0.35025165E+04</rscale>
<asrwt>0</asrwt>
<pdfrwt beam="1">  1        2 0.38291690E+00 0.35025165E+04</pdfrwt>
<pdfrwt beam="2">  1       -2 0.18956979E+00 0.35025165E+04</pdfrwt>
<totfact> 0.45282271E-01</totfact>
</mgrwt>
</event>
<event>
 6    1  0.2436515E-005  0.2329101E+04  0.7818608E-02  0.8466535E-01
         -2   -1    0    0    0  501 -0.00000000000E+00  0.00000000000E+00  0.32523519886E+03  0.32523519886E+03  0.00000000000E+00 0. -1.
          2   -1    0    0  501    0  0.00000000000E+00 -0.00000000000E+00 -0.41698369724E+04  0.41698369724E+04  0.00000000000E+00 0.  1.
         23    2    1    2    0    0 -0.48911625290E+03  0.95321066784E+03 -0.10531524951E+04  0.15050831478E+04  0.91103335880E+02 0.  0.
         11    1    3    3    0    0 -0.29369073014E+03  0.55541029439E+03 -0.67876214042E+03  0.92490695930E+03  0.00000000000E+00 0.  1.
        -11    1    3    3    0    0 -0.19542552276E+03  0.39780037345E+03 -0.37439035465E+03  0.58017618851E+03  0.00000000000E+00 0. -1.
         22    1    1    2    0    0  0.48911625290E+03 -0.95321066784E+03 -0.27914492785E+04  0.29899890235E+04  0.00000000000E+00 0.  1.
<mgrwt>
<rscale>  0 0.23291009E+04</rscale>
<asrwt>0</asrwt>
<pdfrwt beam="1">  1        2 0.64151333E+00 0.23291009E+04</pdfrwt>
<pdfrwt beam="2">  1       -2 0.50036188E-01 0.23291009E+04</pdfrwt>
<totfact> 0.84943190E-01</totfact>
</mgrwt>
</event>
<event>
 6    1  0.2436515E-005  0.2174171E+04  0.7818608E-02  0.8529256E-01
          2   -1    0    0  501    0  0.00000000000E+00  0.00000000000E+00  0.17457534539E+04  0.17457534539E+04  0.00000000000E+00 0.  1.
         -2   -1    0    0    0  501 -0.00000000000E+00 -0.00000000000E+00 -0.67693128915E+03  0.67693128915E+03  0.00000000000E+00 0. -1.
         23    2    1    2    0    0  0.20346293480E+03 -0.10595033832E+04  0.66544664900E+03  0.12708790339E+04  0.91486017689E+02 0.  0.
         11    1    3    3    0    0  0.10503603289E+02 -0.22948331098E+03  0.12091978367E+03  0.25960452574E+03  0.00000000000E+00 0.  1.
        -11    1    3    3    0    0  0.19295933151E+03 -0.83002007220E+03  0.54452686533E+03  0.10112745082E+04  0.00000000000E+00 0. -1.
         22    1    1    2    0    0 -0.20346293480E+03  0.10595033832E+04  0.40337551575E+03  0.11518057091E+04  0.00000000000E+00 0.  1.
<mgrwt>
<rscale>  0 0.21741712E+04</rscale>
<asrwt>0</asrwt>
<pdfrwt beam="1">  1        2 0.26857745E+00 0.21741712E+04</pdfrwt>
<pdfrwt beam="2">  1       -2 0.10414328E+00 0.21741712E+04</pdfrwt>
<totfact> 0.63513330E+00</totfact>
</mgrwt>
</event>
<event>
 6    1  0.2436515E-005  0.2233368E+04  0.7818608E-02  0.8504666E-01
         -2   -1    0    0    0  501 -0.00000000000E+00  0.00000000000E+00  0.79604020414E+03  0.79604020414E+03  0.00000000000E+00 0. -1.
          2   -1    0    0  501    0  0.00000000000E+00 -0.00000000000E+00 -0.15664830382E+04  0.15664830382E+04  0.00000000000E+00 0.  1.
         23    2    1    2    0    0  0.85305707828E+03 -0.66442435847E+03 -0.67188305803E+03  0.12767607746E+04  0.97596746341E+02 0.  0.
         13    1    3    3    0    0  0.31784857501E+03 -0.26964594994E+03 -0.20742515135E+03  0.46557689844E+03  0.00000000000E+00 0. -1.
        -13    1    3    3    0    0  0.53520850327E+03 -0.39477840853E+03 -0.46445790668E+03  0.81118387613E+03  0.00000000000E+00 0.  1.
         22    1    1    2    0    0 -0.85305707828E+03  0.66442435847E+03 -0.98559776007E+02  0.10857624677E+04  0.00000000000E+00 0. -1.
<mgrwt>
<rscale>  0 0.22333683E+04</rscale>
<asrwt>0</asrwt>
<pdfrwt beam="1">  1        2 0.24099739E+00 0.22333683E+04</pdfrwt>
<pdfrwt beam="2">  1       -2 0.12246773E+00 0.22333683E+04</pdfrwt>
<totfact> 0.53584266E+00</totfact>
</mgrwt>
</event>
<event>
 6    1  0.2436515E-005  0.3445163E+04  0.7818608E-02  0.8126910E-01
         -2   -1    0    0    0  501 -0.00000000000E+00  0.00000000000E+00  0.12429550946E+04  0.12429550946E+04  0.00000000000E+00 0. -1.
          2   -1    0    0  501    0  0.00000000000E+00 -0.00000000000E+00 -0.23872847490E+04  0.23872847490E+04  0.00000000000E+00 0.  1.
         23    2    1    2    0    0  0.16443509986E+04  0.36395752375E+02 -0.37286605332E+02  0.16476256174E+04  0.89805493256E+02 0.  0.
         11    1    3    3    0    0  0.59581899408E+03 -0.11304096217E+02  0.22042657739E+02  0.59633374469E+03  0.00000000000E+00 0.  1.
        -11    1    3    3    0    0  0.10485320045E+04  0.47699848592E+02 -0.59329263070E+02  0.10512918727E+04  0.00000000000E+00 0. -1.
         22    1    1    2    0    0 -0.16443509986E+04 -0.36395752375E+02 -0.11070430491E+04  0.19826142262E+04  0.00000000000E+00 0.  1.
<mgrwt>
<rscale>  0 0.34451634E+04</rscale>
<asrwt>0</asrwt>
<pdfrwt beam="1">  1        2 0.36727457E+00 0.34451634E+04</pdfrwt>
<pdfrwt beam="2">  1       -2 0.19122386E+00 0.34451634E+04</pdfrwt>
<totfact> 0.50750806E-01</totfact>
</mgrwt>
</event>
<event>
 6    1  0.2436515E-005  0.3434515E+04  0.7818608E-02  0.8129487E-01
          1   -1    0    0  501    0  0.00000000000E+00  0.00000000000E+00  0.10649948384E+04  0.10649948384E+04  0.00000000000E+00 0.  1.
         -1   -1    0    0    0  501 -0.00000000000E+00 -0.00000000000E+00 -0.27690027853E+04  0.27690027853E+04  0.00000000000E+00 0. -1.
         23    2    1    2    0    0 -0.10143555471E+04  0.46096768422E+03 -0.23095367174E+04  0.25658992545E+04  0.92036696616E+02 0.  0.
         13    1    3    3    0    0 -0.54516672546E+03  0.27260207651E+03 -0.13532891065E+04  0.14842203530E+04  0.00000000000E+00 0.  1.
        -13    1    3    3    0    0 -0.46918882169E+03  0.18836560771E+03 -0.95624761094E+03  0.10816789015E+04  0.00000000000E+00 0. -1.
         22    1    1    2    0    0  0.10143555471E+04 -0.46096768422E+03  0.60552877051E+03  0.12680983692E+04  0.00000000000E+00 0.  1.
<mgrwt>
<rscale>  0 0.34345152E+04</rscale>
<asrwt>0</asrwt>
<pdfrwt beam="1">  1        1 0.16384536E+00 0.34345152E+04</pdfrwt>
<pdfrwt beam="2">  1       -1 0.42600043E+00 0.34345152E+04</pdfrwt>
<totfact> 0.52355164E-02</totfact>
</mgrwt>
</event>
<event>
 6    1  0.2436515E-005  0.1675013E+04  0.7818608E-02  0.8775745E-01
         -2   -1    0    0    0  501 -0.00000000000E+00  0.00000000000E+00  0.99339532024E+03  0.99339532024E+03  0.00000000000E+00 0. -1.
          2   -1    0    0  501    0  0.00000000000E+00 -0.00000000000E+00 -0.70608087892E+03  0.70608087892E+03  0.00000000000E+00 0.  1.
         23    2    1    2    0    0  0.28565636572E+03 -0.42056508429E+03 -0.52760304754E+03  0.73897369366E+03  0.96138414564E+02 0.  0.
         11    1    3    3    0    0  0.13573777742E+03 -0.18847191964E+03 -0.30952473311E+03  0.38697799565E+03  0.00000000000E+00 0.  1.
        -11    1    3    3    0    0  0.14991858829E+03 -0.23209316465E+03 -0.21807831443E+03  0.35199569801E+03  0.00000000000E+00 0. -1.
         22    1    1    2    0    0 -0.28565636572E+03  0.42056508429E+03  0.81491748886E+03  0.96050250549E+03  0.00000000000E+00 0. -1.
<mgrwt>
<rscale>  0 0.16750134E+04</rscale>
<asrwt>0</asrwt>
<pdfrwt beam="1">  1        2 0.10862783E+00 0.16750134E+04</pdfrwt>
<pdfrwt beam="2">  1       -2 0.15283005E+00 0.16750134E+04</pdfrwt>
<totfact> 0.11008182E+01</totfact>
</mgrwt>
</event>
<event>
 6    1  0.2436515E-005  0.3352794E+04  0.7818608E-02  0.8149590E-01
          2   -1    0    0  501    0  0.00000000000E+00  0.00000000000E+00  0.14681999308E+04  0.14681999308E+04  0.00000000000E+00 0. -1.
         -2   -1    0    0    0  501 -0.00000000000E+00 -0.00000000000E+00 -0.19141171966E+04  0.19141171966E+04  0.00000000000E+00 0.  1.
         23    2    1    2    0    0  0.76296766542E+03 -0.13551393174E+04 -0.85108213414E+03  0.17752450075E+04  0.92907533062E+02 0.  0.
         11    1    3    3    0    0  0.60323332172E+03 -0.99228351384E+03 -0.62149415864E+03  0.13171074373E+04  0.00000000000E+00 0.  1.
        -11    1    3    3    0    0  0.15973434371E+03 -0.36285580356E+03 -0.22958797549E+03  0.45813757020E+03  0.00000000000E+00 0. -1.
         22    1    1    2    0    0 -0.76296766542E+03  0.13551393174E+04  0.40516486829E+03  0.16070721199E+04  0.00000000000E+00 0. -1.
<mgrwt>
<rscale>  0 0.33527939E+04</rscale>
<asrwt>0</asrwt>
<pdfrwt beam="1">  1        2 0.22587691E+00 0.33527939E+04</pdfrwt>
<pdfrwt beam="2">  1       -2 0.29447957E+00 0.33527939E+04</pdfrwt>
<totfact> 0.37798302E-01</totfact>
</mgrwt>
</event>
<event>
 6    1  0.2436515E-005  0.1323614E+04  0.7818608E-02  0.9011046E-01
         -2   -1    0    0    0  501 -0.00000000000E+00  0.00000000000E+00  0.85979419905E+03  0.85979419905E+03  0.00000000000E+00 0. -1.
          2   -1    0    0  501    0  0.00000000000E+00 -0.00000000000E+00 -0.50941063830E+03  0.50941063830E+03  0.00000000000E+00 0.  1.
         23    2    1    2    0    0 -0.26448884357E+03 -0.42027289227E+03 -0.27167942292E+03  0.57324880338E+03  0.90668789502E+02 0.  0.
         13    1    3    3    0    0 -0.12151034064E+03 -0.13882754246E+03 -0.63548757201E+02  0.19513147868E+03  0.00000000000E+00 0.  1.
        -13    1    3    3    0    0 -0.14297850292E+03 -0.28144534981E+03 -0.20813066572E+03  0.37811732470E+03  0.00000000000E+00 0. -1.
         22    1    1    2    0    0  0.26448884357E+03  0.42027289227E+03  0.62206298368E+03  0.79595603397E+03  0.00000000000E+00 0. -1.
<mgrwt>
<rscale>  0 0.13236137E+04</rscale>
<asrwt>0</asrwt>
<pdfrwt beam="1">  1        2 0.78370867E-01 0.13236137E+04</pdfrwt>
<pdfrwt beam="2">  1       -2 0.13227603E+00 0.13236137E+04</pdfrwt>
<totfact> 0.24489740E+01</totfact>
</mgrwt>
</event>
<event>
 6    1  0.2436515E-005  0.3878379E+04  0.7818608E-02  0.8029541E-01
          2   -1    0    0  501    0  0.00000000000E+00  0.00000000000E+00  0.45858107964E+04  0.45858107964E+04  0.00000000000E+00 0.  1.
         -2   -1    0    0    0  501 -0.00000000000E+00 -0.00000000000E+00 -0.82001980093E+03  0.82001980093E+03  0.00000000000E+00 0. -1.
         23    2    1    2    0    0  0.46257183252E+02  0.18606668346E+04  0.26371205256E+04  0.32291087901E+04  0.92293637474E+02 0.  0.
         11    1    3    3    0    0 -0.22229898389E+01  0.13911801574E+04  0.19410811754E+04  0.23881338534E+04  0.00000000000E+00 0. -1.
        -11    1    3    3    0    0  0.48480173091E+02  0.46948667722E+03  0.69603935018E+03  0.84097493677E+03  0.00000000000E+00 0.  1.
         22    1    1    2    0    0 -0.46257183252E+02 -0.18606668346E+04  0.11286704699E+04  0.21767218072E+04  0.00000000000E+00 0. -1.
<mgrwt>
<rscale>  0 0.38783789E+04</rscale>
<asrwt>0</asrwt>
<pdfrwt beam="1">  1        2 0.70550934E+00 0.38783789E+04</pdfrwt>
<pdfrwt beam="2">  1       -2 0.12615689E+00 0.38783789E+04</pdfrwt>
<totfact> 0.37435785E-02</totfact>
</mgrwt>
</event>
<event>
 6    1  0.2436515E-005  0.6734361E+03  0.7818608E-02  0.9763770E-01
         -2   -1    0    0    0  501 -0.00000000000E+00  0.00000000000E+00  0.42708140722E+03  0.42708140722E+03  0.00000000000E+00 0. -1.
          2   -1    0    0  501    0  0.00000000000E+00 -0.00000000000E+00 -0.26547409346E+03  0.26547409346E+03  0.00000000000E+00 0.  1.
         23    2    1    2    0    0 -0.26001984587E+02  0.31057381706E+03 -0.31165603127E+02  0.32609459345E+03  0.90742437775E+02 0.  0.
         11    1    3    3    0    0  0.10654553858E+02  0.18192159891E+03  0.19008768592E+02  0.18322205367E+03  0.00000000000E+00 0. -1.
        -11    1    3    3    0    0 -0.36656538445E+02  0.12865221815E+03 -0.50174371719E+02  0.14287253978E+03  0.00000000000E+00 0.  1.
         22    1    1    2    0    0  0.26001984587E+02 -0.31057381706E+03  0.19277291688E+03  0.36646090723E+03  0.00000000000E+00 0. -1.
<mgrwt>
<rscale>  0 0.67343611E+03</rscale>
<asrwt>0</asrwt>
<pdfrwt beam="1">  1        2 0.40842168E-01 0.67343611E+03</pdfrwt>
<pdfrwt beam="2">  1       -2 0.65704832E-01 0.67343611E+03</pdfrwt>
<totfact> 0.27111565E+02</totfact>
</mgrwt>
</event>
<event>
 6    1  0.2436515E-005  0.1847534E+04  0.7818608E-02  0.8681422E-01
          2   -1    0    0  501    0  0.00000000000E+00  0.00000000000E+00  0.32566104016E+04  0.32566104016E+04  0.00000000000E+00 0.  1.
         -2   -1    0    0    0  501 -0.00000000000E+00 -0.00000000000E+00 -0.26203499128E+03  0.26203499128E+03  0.00000000000E+00 0. -1.
         23    2    1    2    0    0  0.71652615260E+03  0.53636486911E+03  0.10824841958E+04  0.14074396206E+04  0.89539105023E+02 0.  0.
         13    1    3    3    0    0  0.64307777247E+03  0.46028319190E+03  0.91534459940E+03  0.12096550640E+04  0.00000000000E+00 0. -1.
        -13    1    3    3    0    0  0.73448380128E+02  0.76081677209E+02  0.16713959642E+03  0.19778455663E+03  0.00000000000E+00 0.  1.
         22    1    1    2    0    0 -0.71652615260E+03 -0.53636486911E+03  0.19120912145E+04  0.21112057722E+04  0.00000000000E+00 0.  1.
<mgrwt>
<rscale>  0 0.18475344E+04</rscale>
<asrwt>0</asrwt>
<pdfrwt beam="1">  1        2 0.50101696E+00 0.18475344E+04</pdfrwt>
<pdfrwt beam="2">  1       -2 0.40313078E-01 0.18475344E+04</pdfrwt>
<totfact> 0.65551012E+00</totfact>
</mgrwt>
</event>
<event>
 6    1  0.2436515E-005  0.2327584E+04  0.7818608E-02  0.8467124E-01
          2   -1    0    0  501    0  0.00000000000E+00  0.00000000000E+00  0.89620695152E+03  0.89620695152E+03  0.00000000000E+00 0. -1.
         -2   -1    0    0    0  501 -0.00000000000E+00 -0.00000000000E+00 -0.15112718857E+04  0.15112718857E+04  0.00000000000E+00 0.  1.
         23    2    1    2    0    0 -0.47285632049E+03  0.10319263458E+04 -0.50931059055E+02  0.11399173547E+04  0.91392120894E+02 0.  0.
         11    1    3    3    0    0 -0.10851750995E+03  0.26176052749E+03  0.25451260171E+02  0.28450376159E+03  0.00000000000E+00 0. -1.
        -11    1    3    3    0    0 -0.36433881055E+03  0.77016581829E+03 -0.76382319226E+02  0.85541359308E+03  0.00000000000E+00 0.  1.
         22    1    1    2    0    0  0.47285632049E+03 -0.10319263458E+04 -0.56413387511E+03  0.12675614825E+04  0.00000000000E+00 0.  1.
<mgrwt>
<rscale>  0 0.23275845E+04</rscale>
<asrwt>0</asrwt>
<pdfrwt beam="1">  1        2 0.13787799E+00 0.23275845E+04</pdfrwt>
<pdfrwt beam="2">  1       -2 0.23250337E+00 0.23275845E+04</pdfrwt>
<totfact> 0.21998863E+00</totfact>
</mgrwt>
</event>
<event>
 6    1  0.2436515E-005  0.1759833E+04  0.7818608E-02  0.8727956E-01
          2   -1    0    0  501    0  0.00000000000E+00  0.00000000000E+00  0.12421058235E+04  0.12421058235E+04  0.00000000000E+00 0.  1.
         -2   -1    0    0    0  501 -0.00000000000E+00 -0.00000000000E+00 -0.62333936168E+03  0.62333936168E+03  0.00000000000E+00 0. -1.
         23    2    1    2    0    0  0.48337309251E+02  0.94534877805E+02  0.12334324607E+04  0.12416762946E+04  0.95556511976E+02 0.  0.
         11    1    3    3    0    0  0.56677144526E+02  0.44056440990E+02  0.38061406476E+03  0.38732458610E+03  0.00000000000E+00 0.  1.
        -11    1    3    3    0    0 -0.83398352749E+01  0.50478436816E+02  0.85281839594E+03  0.85435170854E+03  0.00000000000E+00 0. -1.
         22    1    1    2    0    0 -0.48337309251E+02 -0.94534877805E+02 -0.61466599889E+03  0.62376889052E+03  0.00000000000E+00 0. -1.
<mgrwt>
<rscale>  0 0.17598335E+04</rscale>
<asrwt>0</asrwt>
<pdfrwt beam="1">  1        2 0.19109320E+00 0.17598335E+04</pdfrwt>
<pdfrwt beam="2">  1       -2 0.95898364E-01 0.17598335E+04</pdfrwt>
<totfact> 0.15439887E+01</totfact>
</mgrwt>
</event>
<event>
 6    1  0.2436515E-005  0.1933696E+04  0.7818608E-02  0.8638263E-01
          2   -1    0    0  501    0  0.00000000000E+00  0.00000000000E+00  0.73095666796E+03  0.73095666796E+03  0.00000000000E+00 0.  1.
         -2   -1    0    0    0  501 -0.00000000000E+00 -0.00000000000E+00 -0.12788647327E+04  0.12788647327E+04  0.00000000000E+00 0. -1.
         23    2    1    2    0    0 -0.29076329494E+03  0.89510091388E+03 -0.55249594841E+02  0.94753080592E+03  0.94937720274E+02 0.  0.
         13    1    3    3    0    0 -0.14717211344E+03  0.56386926265E+03 -0.65071519387E+02  0.58638083100E+03  0.00000000000E+00 0. -1.
        -13    1    3    3    0    0 -0.14359118150E+03  0.33123165123E+03  0.98219245456E+01  0.36114997492E+03  0.00000000000E+00 0.  1.
         22    1    1    2    0    0  0.29076329494E+03 -0.89510091388E+03 -0.49265846990E+03  0.10622905947E+04  0.00000000000E+00 0. -1.
<mgrwt>
<rscale>  0 0.19336956E+04</rscale>
<asrwt>0</asrwt>
<pdfrwt beam="1">  1        2 0.11245487E+00 0.19336956E+04</pdfrwt>
<pdfrwt beam="2">  1       -2 0.19674842E+00 0.19336956E+04</pdfrwt>
<totfact> 0.50567436E+00</totfact>
</mgrwt>
</event>
<event>
 6    1  0.2436515E-005  0.2748126E+04  0.7818608E-02  0.8319556E-01
         -2   -1    0    0    0  501 -0.00000000000E+00  0.00000000000E+00  0.96478186108E+03  0.96478186108E+03  0.00000000000E+00 0. -1.
          2   -1    0    0  501    0  0.00000000000E+00 -0.00000000000E+00 -0.19569706200E+04  0.19569706200E+04  0.00000000000E+00 0.  1.
         23    2    1    2    0    0  0.10451571672E+04  0.45941792483E+03  0.31339177773E+03  0.11874056670E+04  0.91101470528E+02 0.  0.
         11    1    3    3    0    0  0.14539343638E+03  0.31298646002E+02  0.47286635311E+02  0.15606050898E+03  0.00000000000E+00 0.  1.
        -11    1    3    3    0    0  0.89976373080E+03  0.42811927883E+03  0.26610514242E+03  0.10313451580E+04  0.00000000000E+00 0. -1.
         22    1    1    2    0    0 -0.10451571672E+04 -0.45941792483E+03 -0.13055805366E+04  0.17343468141E+04  0.00000000000E+00 0.  1.
<mgrwt>
<rscale>  0 0.27481265E+04</rscale>
<asrwt>0</asrwt>
<pdfrwt beam="1">  1        2 0.30107240E+00 0.27481265E+04</pdfrwt>
<pdfrwt beam="2">  1       -2 0.14842798E+00 0.27481265E+04</pdfrwt>
<totfact> 0.19008934E+00</totfact>
</mgrwt>
</event>
<event>
 6    1  0.2436515E-005  0.1251908E+04  0.7818608E-02  0.9068596E-01
          2   -1    0    0  501    0  0.00000000000E+00  0.00000000000E+00  0.24335995684E+03  0.24335995684E+03  0.00000000000E+00 0.  1.
         -2   -1    0    0    0  501 -0.00000000000E+00 -0.00000000000E+00 -0.16100372832E+04  0.16100372832E+04  0.00000000000E+00 0. -1.
         23    2    1    2    0    0 -0.61022728461E+03 -0.12050787795E+03 -0.73534366667E+03  0.96712319810E+03  0.87735310244E+02 0.  0.
         11    1    3    3    0    0 -0.14543540905E+03 -0.66059626065E+02 -0.17119872179E+03  0.23414596888E+03  0.00000000000E+00 0. -1.
        -11    1    3    3    0    0 -0.46479187557E+03 -0.54448251888E+02 -0.56414494488E+03  0.73297722922E+03  0.00000000000E+00 0.  1.
         22    1    1    2    0    0  0.61022728461E+03  0.12050787795E+03 -0.63133365964E+03  0.88627404189E+03  0.00000000000E+00 0. -1.
<mgrwt>
<rscale>  0 0.12519083E+04</rscale>
<asrwt>0</asrwt>
<pdfrwt beam="1">  1        2 0.37439994E-01 0.12519083E+04</pdfrwt>
<pdfrwt beam="2">  1       -2 0.24769804E+00 0.12519083E+04</pdfrwt>
<totfact> 0.90754377E+00</totfact>
</mgrwt>
</event>
<event>
 6    1  0.2436515E-005  0.2768963E+04  0.7818608E-02  0.8312969E-01
         -2   -1    0    0    0  501 -0.00000000000E+00  0.00000000000E+00  0.10276950250E+04  0.10276950250E+04  0.00000000000E+00 0. -1.
          2   -1    0    0  501    0  0.00000000000E+00 -0.00000000000E+00 -0.18651337721E+04  0.18651337721E+04  0.00000000000E+00 0.  1.
         23    2    1    2    0    0 -0.45462885243E+03  0.63173055922E+02 -0.17821183448E+04  0.18425441829E+04  0.91351203197E+02 0.  0.
         13    1    3    3    0    0 -0.17810515335E+03  0.61897402046E+02 -0.82549737597E+03  0.84675772908E+03  0.00000000000E+00 0. -1.
        -13    1    3    3    0    0 -0.27652369908E+03  0.12756538759E+01 -0.95662096887E+03  0.99578645378E+03  0.00000000000E+00 0.  1.
         22    1    1    2    0    0  0.45462885243E+03 -0.63173055922E+02  0.94467959781E+03  0.10502846143E+04  0.00000000000E+00 0. -1.
<mgrwt>
<rscale>  0 0.27689628E+04</rscale>
<asrwt>0</asrwt>
<pdfrwt beam="1">  1        2 0.28694365E+00 0.27689628E+04</pdfrwt>
<pdfrwt beam="2">  1       -2 0.15810693E+00 0.27689628E+04</pdfrwt>
<totfact> 0.18022841E+00</totfact>
</mgrwt>
</event>
<event>
 6    1  0.2436515E-005  0.2048436E+04  0.7818608E-02  0.8584304E-01
         -2   -1    0    0    0  501 -0.00000000000E+00  0.00000000000E+00  0.41956443579E+03  0.41956443579E+03  0.00000000000E+00 0. -1.
          2   -1    0    0  501    0  0.00000000000E+00 -0.00000000000E+00 -0.25002665768E+04  0.25002665768E+04  0.00000000000E+00 0.  1.
         23    2    1    2    0    0 -0.72428611263E+03 -0.65674981170E+03 -0.14672583977E+04  0.17656109667E+04  0.92866528051E+02 0.  0.
         11    1    3    3    0    0 -0.44941503030E+03 -0.40570579169E+03 -0.82598840194E+03  0.10241229902E+04  0.00000000000E+00 0.  1.
        -11    1    3    3    0    0 -0.27487108233E+03 -0.25104402002E+03 -0.64126999573E+03  0.74148797651E+03  0.00000000000E+00 0. -1.
         22    1    1    2    0    0  0.72428611263E+03  0.65674981170E+03 -0.61344374333E+03  0.11542200459E+04  0.00000000000E+00 0. -1.
<mgrwt>
<rscale>  0 0.20484364E+04</rscale>
<asrwt>0</asrwt>
<pdfrwt beam="1">  1        2 0.38465639E+00 0.20484364E+04</pdfrwt>
<pdfrwt beam="2">  1       -2 0.64548375E-01 0.20484364E+04</pdfrwt>
<totfact> 0.71398155E+00</totfact>
</mgrwt>
</event>
<event>
 6    1  0.2436515E-005  0.3468617E+04  0.7818608E-02  0.8121268E-01
          2   -1    0    0  501    0  0.00000000000E+00  0.00000000000E+00  0.26364728809E+04  0.26364728809E+04  0.00000000000E+00 0.  1.
         -2   -1    0    0    0  501 -0.00000000000E+00 -0.00000000000E+00 -0.11408519064E+04  0.11408519064E+04  0.00000000000E+00 0. -1.
         23    2    1    2    0    0  0.55509060208E+03  0.16327190580E+04  0.93641554670E+03  0.19644244014E+04  0.90509965960E+02 0.  0.
         11    1    3    3    0    0  0.22713615745E+03  0.79963918208E+03  0.43278500614E+03  0.93718542300E+03  0.00000000000E+00 0. -1.
        -11    1    3    3    0    0  0.32795444463E+03  0.83307987590E+03  0.50363054056E+03  0.10272389784E+04  0.00000000000E+00 0.  1.
         22    1    1    2    0    0 -0.55509060208E+03 -0.16327190580E+04  0.55920542782E+03  0.18129003859E+04  0.00000000000E+00 0. -1.
<mgrwt>
<rscale>  0 0.34686165E+04</rscale>
<asrwt>0</asrwt>
<pdfrwt beam="1">  1        2 0.40561121E+00 0.34686165E+04</pdfrwt>
<pdfrwt beam="2">  1       -2 0.17551568E+00 0.34686165E+04</pdfrwt>
<totfact> 0.46479975E-01</totfact>
</mgrwt>
</event>
<event>
 6    1  0.2436515E-005  0.2655356E+04  0.7818608E-02  0.8349638E-01
          2   -1    0    0  501    0  0.00000000000E+00  0.00000000000E+00  0.17414784123E+04  0.17414784123E+04  0.00000000000E+00 0.  1.
         -2   -1    0    0    0  501 -0.00000000000E+00 -0.00000000000E+00 -0.10122023824E+04  0.10122023824E+04  0.00000000000E+00 0. -1.
         23    2    1    2    0    0  0.91306816149E+03  0.25004984176E+03  0.13283097548E+04  0.16333862823E+04  0.85589436477E+02 0.  0.
         13    1    3    3    0    0  0.21170022965E+03  0.89037205338E+02  0.35851710434E+03  0.42576886367E+03  0.00000000000E+00 0. -1.
        -13    1    3    3    0    0  0.70136793184E+03  0.16101263642E+03  0.96979265051E+03  0.12076174187E+04  0.00000000000E+00 0.  1.
         22    1    1    2    0    0 -0.91306816149E+03 -0.25004984176E+03 -0.59903372494E+03  0.11202945124E+04  0.00000000000E+00 0. -1.
<mgrwt>
<rscale>  0 0.26553558E+04</rscale>
<asrwt>0</asrwt>
<pdfrwt beam="1">  1        2 0.26791976E+00 0.26553558E+04</pdfrwt>
<pdfrwt beam="2">  1       -2 0.15572344E+00 0.26553558E+04</pdfrwt>
<totfact> 0.22202379E+00</totfact>
</mgrwt>
</event>
<event>
 6    1  0.2436515E-005  0.1598374E+04  0.7818608E-02  0.8821548E-01
          2   -1    0    0  501    0  0.00000000000E+00  0.00000000000E+00  0.25666408157E+04  0.25666408157E+04  0.00000000000E+00 0.  1.
         -2   -1    0    0    0  501 -0.00000000000E+00 -0.00000000000E+00 -0.24884648029E+03  0.24884648029E+03  0.00000000000E+00 0. -1.
         23    2    1    2    0    0 -0.50281411713E+03 -0.37447723582E+03  0.20281862542E+04  0.21248875007E+04  0.92477957563E+02 0.  0.
         13    1    3    3    0    0 -0.15846835231E+03 -0.14359570003E+03  0.82549749279E+03  0.85274735669E+03  0.00000000000E+00 0. -1.
        -13    1    3    3    0    0 -0.34434576482E+03 -0.23088153579E+03  0.12026887614E+04  0.12721401440E+04  0.00000000000E+00 0.  1.
         22    1    1    2    0    0  0.50281411713E+03  0.37447723582E+03  0.28960808130E+03  0.69059979531E+03  0.00000000000E+00 0. -1.
<mgrwt>
<rscale>  0 0.15983736E+04</rscale>
<asrwt>0</asrwt>
<pdfrwt beam="1">  1        2 0.39486780E+00 0.15983736E+04</pdfrwt>
<pdfrwt beam="2">  1       -2 0.38284076E-01 0.15983736E+04</pdfrwt>
<totfact> 0.19721337E+01</totfact>
</mgrwt>
</event>
<event>
 6    1  0.2436515E-005  0.3759034E+04  0.7818608E-02  0.8055004E-01
          2   -1    0    0  501    0  0.00000000000E+00  0.00000000000E+00  0.28271742590E+04  0.28271742590E+04  0.00000000000E+00 0. -1.
         -2   -1    0    0    0  501 -0.00000000000E+00 -0.00000000000E+00 -0.12495104275E+04  0.12495104275E+04  0.00000000000E+00 0.  1.
         23    2    1    2    0    0 -0.16296243312E+04 -0.66437803963E+03  0.15016147289E+04  0.23151918235E+04  0.90513784030E+02 0.  0.
         13    1    3    3    0    0 -0.45447879616E+03 -0.22071207598E+03  0.39886770910E+03  0.64370819942E+03  0.00000000000E+00 0.  1.
        -13    1    3    3    0    0 -0.11751455351E+04 -0.44366596365E+03  0.11027470198E+04  0.16714836241E+04  0.00000000000E+00 0. -1.
         22    1    1    2    0    0  0.16296243312E+04  0.66437803963E+03  0.76049102517E+02  0.17614928630E+04  0.00000000000E+00 0.  1.
<mgrwt>
<rscale>  0 0.37590338E+04</rscale>
<asrwt>0</asrwt>
<pdfrwt beam="1">  1        2 0.43494989E+00 0.37590338E+04</pdfrwt>
<pdfrwt beam="2">  1       -2 0.19223237E+00 0.37590338E+04</pdfrwt>
<totfact> 0.26810916E-01</totfact>
</mgrwt>
</event>
<event>
 6    1  0.2436515E-005  0.1301465E+04  0.7818608E-02  0.9028404E-01
          2   -1    0    0  501    0  0.00000000000E+00  0.00000000000E+00  0.14880484504E+04  0.14880484504E+04  0.00000000000E+00 0.  1.
         -2   -1    0    0    0  501 -0.00000000000E+00 -0.00000000000E+00 -0.28456907517E+03  0.28456907517E+03  0.00000000000E+00 0. -1.
         23    2    1    2    0    0  0.17554304452E+03  0.62320929413E+03  0.61946709982E+03  0.90067972814E+03  0.90990659724E+02 0.  0.
         13    1    3    3    0    0  0.22604324798E+02  0.21260143635E+03  0.23561102619E+03  0.31815543670E+03  0.00000000000E+00 0.  1.
        -13    1    3    3    0    0  0.15293871972E+03  0.41060785778E+03  0.38385607363E+03  0.58252429145E+03  0.00000000000E+00 0. -1.
         22    1    1    2    0    0 -0.17554304452E+03 -0.62320929413E+03  0.58401227546E+03  0.87193779747E+03  0.00000000000E+00 0. -1.
<mgrwt>
<rscale>  0 0.13014647E+04</rscale>
<asrwt>0</asrwt>
<pdfrwt beam="1">  1        2 0.22893053E+00 0.13014647E+04</pdfrwt>
<pdfrwt beam="2">  1       -2 0.43779859E-01 0.13014647E+04</pdfrwt>
<totfact> 0.62494529E+01</totfact>
</mgrwt>
</event>
<event>
 6    1  0.2436515E-005  0.2898114E+04  0.7818608E-02  0.8273439E-01
         -2   -1    0    0    0  501 -0.00000000000E+00  0.00000000000E+00  0.67472476544E+03  0.67472476544E+03  0.00000000000E+00 0. -1.
          2   -1    0    0  501    0  0.00000000000E+00 -0.00000000000E+00 -0.31120346004E+04  0.31120346004E+04  0.00000000000E+00 0.  1.
         23    2    1    2    0    0  0.40169017264E+03  0.11628873593E+04 -0.22275955016E+03  0.12534029028E+04  0.87948930232E+02 0.  0.
         13    1    3    3    0    0  0.30467910389E+03  0.98092397799E+03 -0.17988477127E+03  0.10427846076E+04  0.00000000000E+00 0. -1.
        -13    1    3    3    0    0  0.97011068755E+02  0.18196338127E+03 -0.42874778898E+02  0.21061829514E+03  0.00000000000E+00 0.  1.
         22    1    1    2    0    0 -0.40169017264E+03 -0.11628873593E+04 -0.22145502847E+04  0.25333564630E+04  0.00000000000E+00 0.  1.
<mgrwt>
<rscale>  0 0.28981144E+04</rscale>
<asrwt>0</asrwt>
<pdfrwt beam="1">  1        2 0.47877455E+00 0.28981144E+04</pdfrwt>
<pdfrwt beam="2">  1       -2 0.10380381E+00 0.28981144E+04</pdfrwt>
<totfact> 0.96368546E-01</totfact>
</mgrwt>
</event>
<event>
 6    1  0.2436515E-005  0.2375074E+04  0.7818608E-02  0.8448895E-01
         -2   -1    0    0    0  501 -0.00000000000E+00  0.00000000000E+00  0.81587310886E+03  0.81587310886E+03  0.00000000000E+00 0. -1.
          2   -1    0    0  501    0  0.00000000000E+00 -0.00000000000E+00 -0.17285093092E+04  0.17285093092E+04  0.00000000000E+00 0.  1.
         23    2    1    2    0    0 -0.28045738406E+03 -0.10766019368E+03 -0.16858944027E+04  0.17148190937E+04  0.90097311126E+02 0.  0.
         13    1    3    3    0    0 -0.14325189258E+03 -0.22576543993E+02 -0.98179690947E+03  0.99244948310E+03  0.00000000000E+00 0.  1.
        -13    1    3    3    0    0 -0.13720549148E+03 -0.85083649682E+02 -0.70409749324E+03  0.72236961060E+03  0.00000000000E+00 0. -1.
         22    1    1    2    0    0  0.28045738406E+03  0.10766019368E+03  0.77325820238E+03  0.82956332436E+03  0.00000000000E+00 0. -1.
<mgrwt>
<rscale>  0 0.23750741E+04</rscale>
<asrwt>0</asrwt>
<pdfrwt beam="1">  1        2 0.26592451E+00 0.23750741E+04</pdfrwt>
<pdfrwt beam="2">  1       -2 0.12551894E+00 0.23750741E+04</pdfrwt>
<totfact> 0.40432256E+00</totfact>
</mgrwt>
</event>
<event>
 6    1  0.2436515E-005  0.2051409E+04  0.7818608E-02  0.8582955E-01
          2   -1    0    0  501    0  0.00000000000E+00  0.00000000000E+00  0.10859077109E+04  0.10859077109E+04  0.00000000000E+00 0.  1.
         -2   -1    0    0    0  501 -0.00000000000E+00 -0.00000000000E+00 -0.96883932331E+03  0.96883932331E+03  0.00000000000E+00 0. -1.
         23    2    1    2    0    0  0.15667248842E+03  0.14386825515E+03  0.10615638365E+04  0.10865962213E+04  0.92353807801E+02 0.  0.
         11    1    3    3    0    0  0.18926111086E+02  0.18893663371E+01  0.27070847849E+03  0.27137584216E+03  0.00000000000E+00 0. -1.
        -11    1    3    3    0    0  0.13774637733E+03  0.14197888882E+03  0.79085535801E+03  0.81522037918E+03  0.00000000000E+00 0.  1.
         22    1    1    2    0    0 -0.15667248842E+03 -0.14386825515E+03 -0.94449544890E+03  0.96815081287E+03  0.00000000000E+00 0. -1.
<mgrwt>
<rscale>  0 0.20514094E+04</rscale>
<asrwt>0</asrwt>
<pdfrwt beam="1">  1        2 0.16706272E+00 0.20514094E+04</pdfrwt>
<pdfrwt beam="2">  1       -2 0.14905220E+00 0.20514094E+04</pdfrwt>
<totfact> 0.62662818E+00</totfact>
</mgrwt>
</event>
<event>
 6    1  0.2436515E-005  0.7399007E+03  0.7818608E-02  0.9651329E-01
         -2   -1    0    0    0  501 -0.00000000000E+00  0.00000000000E+00  0.46979038215E+03  0.46979038215E+03  0.00000000000E+00 0. -1.
          2   -1    0    0  501    0  0.00000000000E+00 -0.00000000000E+00 -0.29132837119E+03  0.29132837119E+03  0.00000000000E+00 0.  1.
         23    2    1    2    0    0  0.24990476277E+03 -0.16218039533E+03 -0.12529259124E+03  0.33565226883E+03  0.90605414111E+02 0.  0.
         11    1    3    3    0    0  0.13856432312E+03 -0.78280578970E+02 -0.11403606761E+03  0.19578596835E+03  0.00000000000E+00 0. -1.
        -11    1    3    3    0    0  0.11134043965E+03 -0.83899816356E+02 -0.11256523633E+02  0.13986630048E+03  0.00000000000E+00 0.  1.
         22    1    1    2    0    0 -0.24990476277E+03  0.16218039533E+03  0.30375460221E+03  0.42546648451E+03  0.00000000000E+00 0. -1.
<mgrwt>
<rscale>  0 0.73990071E+03</rscale>
<asrwt>0</asrwt>
<pdfrwt beam="1">  1        2 0.44819749E-01 0.73990071E+03</pdfrwt>
<pdfrwt beam="2">  1       -2 0.72275443E-01 0.73990071E+03</pdfrwt>
<totfact> 0.19840134E+02</totfact>
</mgrwt>
</event>
<event>
 6    1  0.2436515E-005  0.6543577E+03  0.7818608E-02  0.9798636E-01
          2   -1    0    0  501    0  0.00000000000E+00  0.00000000000E+00  0.14774418101E+04  0.14774418101E+04  0.00000000000E+00 0.  1.
         -2   -1    0    0    0  501 -0.00000000000E+00 -0.00000000000E+00 -0.72453619349E+02  0.72453619349E+02  0.00000000000E+00 0. -1.
         23    2    1    2    0    0  0.44423113264E+02 -0.16558159604E+03  0.13578761384E+04  0.13721027878E+04  0.97199666478E+02 0.  0.
         11    1    3    3    0    0 -0.22578721500E+02 -0.10237180882E+03  0.74759240654E+03  0.75490674406E+03  0.00000000000E+00 0.  1.
        -11    1    3    3    0    0  0.67001834764E+02 -0.63209787216E+02  0.61028373182E+03  0.61719604373E+03  0.00000000000E+00 0. -1.
         22    1    1    2    0    0 -0.44423113264E+02  0.16558159604E+03  0.47112052337E+02  0.17779264162E+03  0.00000000000E+00 0. -1.
<mgrwt>
<rscale>  0 0.65435772E+03</rscale>
<asrwt>0</asrwt>
<pdfrwt beam="1">  1        2 0.22729872E+00 0.65435772E+03</pdfrwt>
<pdfrwt beam="2">  1       -2 0.11146712E-01 0.65435772E+03</pdfrwt>
<totfact> 0.76365152E+02</totfact>
</mgrwt>
</event>
<event>
 6    1  0.2436515E-005  0.2048963E+04  0.7818608E-02  0.8584065E-01
         -2   -1    0    0    0  501 -0.00000000000E+00  0.00000000000E+00  0.75274158111E+03  0.75274158111E+03  0.00000000000E+00 0. -1.
          2   -1    0    0  501    0  0.00000000000E+00 -0.00000000000E+00 -0.13943197386E+04  0.13943197386E+04  0.00000000000E+00 0.  1.
         23    2    1    2    0    0 -0.45859183566E+03  0.82583654208E+02  0.63220572339E+03  0.79072363799E+03  0.91832800854E+02 0.  0.
         13    1    3    3    0    0 -0.28601808684E+03  0.75414734441E+01  0.40112451133E+03  0.49271096335E+03  0.00000000000E+00 0. -1.
        -13    1    3    3    0    0 -0.17257374882E+03  0.75042180764E+02  0.23108121206E+03  0.29801267464E+03  0.00000000000E+00 0.  1.
         22    1    1    2    0    0  0.45859183566E+03 -0.82583654208E+02 -0.12737838808E+04  0.13563376817E+04  0.00000000000E+00 0.  1.
<mgrwt>
<rscale>  0 0.20489631E+04</rscale>
<asrwt>0</asrwt>
<pdfrwt beam="1">  1        2 0.21451073E+00 0.20489631E+04</pdfrwt>
<pdfrwt beam="2">  1       -2 0.11580640E+00 0.20489631E+04</pdfrwt>
<totfact> 0.78219263E+00</totfact>
</mgrwt>
</event>
<event>
 6    1  0.2436515E-005  0.2540787E+04  0.7818608E-02  0.8388597E-01
          2   -1    0    0  501    0  0.00000000000E+00  0.00000000000E+00  0.24942367097E+04  0.24942367097E+04  0.00000000000E+00 0.  1.
         -2   -1    0    0    0  501 -0.00000000000E+00 -0.00000000000E+00 -0.64705137170E+03  0.64705137170E+03  0.00000000000E+00 0. -1.
         23    2    1    2    0    0  0.27159866927E+03 -0.98379051643E+03  0.18565830948E+04  0.21206520370E+04  0.93030407650E+02 0.  0.
         11    1    3    3    0    0  0.15946269059E+02 -0.19428138619E+03  0.35839565066E+03  0.40797914522E+03  0.00000000000E+00 0. -1.
        -11    1    3    3    0    0  0.25565240021E+03 -0.78950913024E+03  0.14981874442E+04  0.17126728918E+04  0.00000000000E+00 0.  1.
         22    1    1    2    0    0 -0.27159866927E+03  0.98379051643E+03 -0.93977567796E+01  0.10206360444E+04  0.00000000000E+00 0. -1.
<mgrwt>
<rscale>  0 0.25407867E+04</rscale>
<asrwt>0</asrwt>
<pdfrwt beam="1">  1        2 0.38372872E+00 0.25407867E+04</pdfrwt>
<pdfrwt beam="2">  1       -2 0.99546366E-01 0.25407867E+04</pdfrwt>
<totfact> 0.26030952E+00</totfact>
</mgrwt>
</event>
<event>
 6    1  0.2436515E-005  0.3154720E+04  0.7818608E-02  0.8200879E-01
          2   -1    0    0  501    0  0.00000000000E+00  0.00000000000E+00  0.30680620301E+04  0.30680620301E+04  0.00000000000E+00 0.  1.
         -2   -1    0    0    0  501 -0.00000000000E+00 -0.00000000000E+00 -0.81095635451E+03  0.81095635451E+03  0.00000000000E+00 0. -1.
         23    2    1    2    0    0 -0.97967071128E+02  0.15349282254E+04  0.15522647460E+04  0.21871546370E+04  0.92289546145E+02 0.  0.
         13    1    3    3    0    0 -0.28793283094E+02  0.46555684090E+03  0.53207538026E+03  0.70758493168E+03  0.00000000000E+00 0. -1.
        -13    1    3    3    0    0 -0.69173788034E+02  0.10693713845E+04  0.10201893658E+04  0.14795697054E+04  0.00000000000E+00 0.  1.
         22    1    1    2    0    0  0.97967071128E+02 -0.15349282254E+04  0.70484092956E+03  0.16918637475E+04  0.00000000000E+00 0. -1.
<mgrwt>
<rscale>  0 0.31547199E+04</rscale>
<asrwt>0</asrwt>
<pdfrwt beam="1">  1        2 0.47200954E+00 0.31547199E+04</pdfrwt>
<pdfrwt beam="2">  1       -2 0.12476252E+00 0.31547199E+04</pdfrwt>
<totfact> 0.64170400E-01</totfact>
</mgrwt>
</event>
<event>
 6    1  0.2436515E-005  0.1439067E+04  0.7818608E-02  0.8926016E-01
          2   -1    0    0  501    0  0.00000000000E+00  0.00000000000E+00  0.13150816440E+04  0.13150816440E+04  0.00000000000E+00 0.  1.
         -2   -1    0    0    0  501 -0.00000000000E+00 -0.00000000000E+00 -0.39368522861E+03  0.39368522861E+03  0.00000000000E+00 0. -1.
         23    2    1    2    0    0  0.36289376340E+03 -0.55670270893E+03  0.14424617806E+03  0.68623458412E+03  0.92201707792E+02 0.  0.
         11    1    3    3    0    0  0.30724328351E+03 -0.40454189146E+03  0.12445522196E+03  0.52301212174E+03  0.00000000000E+00 0.  1.
        -11    1    3    3    0    0  0.55650479884E+02 -0.15216081747E+03  0.19790956098E+02  0.16322246239E+03  0.00000000000E+00 0. -1.
         22    1    1    2    0    0 -0.36289376340E+03  0.55670270893E+03  0.77715023737E+03  0.10225322885E+04  0.00000000000E+00 0.  1.
<mgrwt>
<rscale>  0 0.14390667E+04</rscale>
<asrwt>0</asrwt>
<pdfrwt beam="1">  1        2 0.20232025E+00 0.14390667E+04</pdfrwt>
<pdfrwt beam="2">  1       -2 0.60566959E-01 0.14390667E+04</pdfrwt>
<totfact> 0.39915661E+01</totfact>
</mgrwt>
</event>
<event>
 6    1  0.2436515E-005  0.2541226E+04  0.7818608E-02  0.8388444E-01
         -2   -1    0    0    0  501 -0.00000000000E+00  0.00000000000E+00  0.51448803094E+03  0.51448803094E+03  0.00000000000E+00 0. -1.
          2   -1    0    0  501    0  0.00000000000E+00 -0.00000000000E+00 -0.31379874468E+04  0.31379874468E+04  0.00000000000E+00 0.  1.
         23    2    1    2    0    0  0.83514714781E+03 -0.34035775819E+03 -0.30310685301E+02  0.90694420777E+03  0.91186053286E+02 0.  0.
         11    1    3    3    0    0  0.44643614270E+03 -0.15321138441E+03 -0.52820927741E+02  0.47494105764E+03  0.00000000000E+00 0.  1.
        -11    1    3    3    0    0  0.38871100510E+03 -0.18714637378E+03  0.22510242440E+02  0.43200315013E+03  0.00000000000E+00 0. -1.
         22    1    1    2    0    0 -0.83514714781E+03  0.34035775819E+03 -0.25931887305E+04  0.27455312699E+04  0.00000000000E+00 0.  1.
<mgrwt>
<rscale>  0 0.25412257E+04</rscale>
<asrwt>0</asrwt>
<pdfrwt beam="1">  1        2 0.48276730E+00 0.25412257E+04</pdfrwt>
<pdfrwt beam="2">  1       -2 0.79152004E-01 0.25412257E+04</pdfrwt>
<totfact> 0.17908010E+00</totfact>
</mgrwt>
</event>
<event>
 6    1  0.2436515E-005  0.3124339E+04  0.7818608E-02  0.8209090E-01
          2   -1    0    0  501    0  0.00000000000E+00  0.00000000000E+00  0.18424365823E+04  0.18424365823E+04  0.00000000000E+00 0.  1.
         -2   -1    0    0    0  501 -0.00000000000E+00 -0.00000000000E+00 -0.13245360825E+04  0.13245360825E+04  0.00000000000E+00 0. -1.
         23    2    1    2    0    0 -0.49797796157E+02  0.15075149761E+04 -0.14773310736E+03  0.15182915790E+04  0.91120931769E+02 0.  0.
         11    1    3    3    0    0  0.10015743748E+02  0.98103495065E+03 -0.10557662612E+03  0.98675038055E+03  0.00000000000E+00 0. -1.
        -11    1    3    3    0    0 -0.59813539905E+02  0.52648002546E+03 -0.42156481235E+02  0.53154119848E+03  0.00000000000E+00 0.  1.
         22    1    1    2    0    0  0.49797796157E+02 -0.15075149761E+04  0.66563360711E+03  0.16486810858E+04  0.00000000000E+00 0.  1.
<mgrwt>
<rscale>  0 0.31243391E+04</rscale>
<asrwt>0</asrwt>
<pdfrwt beam="1">  1        2 0.28345178E+00 0.31243391E+04</pdfrwt>
<pdfrwt beam="2">  1       -2 0.20377478E+00 0.31243391E+04</pdfrwt>
<totfact> 0.87022448E-01</totfact>
</mgrwt>
</event>
<event>
 6    1  0.2436515E-005  0.3162015E+04  0.7818608E-02  0.8198922E-01
         -2   -1    0    0    0  501 -0.00000000000E+00  0.00000000000E+00  0.63617467166E+03  0.63617467166E+03  0.00000000000E+00 0. -1.
          2   -1    0    0  501    0  0.00000000000E+00 -0.00000000000E+00 -0.39290853383E+04  0.39290853383E+04  0.00000000000E+00 0.  1.
         23    2    1    2    0    0 -0.54952255992E+03  0.12778341794E+04 -0.56670593734E+03  0.15047000187E+04  0.90173681783E+02 0.  0.
         11    1    3    3    0    0 -0.30829649142E+03  0.60281853143E+03 -0.27532677979E+03  0.73091842509E+03  0.00000000000E+00 0.  1.
        -11    1    3    3    0    0 -0.24122606851E+03  0.67501564801E+03 -0.29137915755E+03  0.77378159363E+03  0.00000000000E+00 0. -1.
         22    1    1    2    0    0  0.54952255992E+03 -0.12778341794E+04 -0.27262047293E+04  0.30605599913E+04  0.00000000000E+00 0.  1.
<mgrwt>
<rscale>  0 0.31620149E+04</rscale>
<asrwt>0</asrwt>
<pdfrwt beam="1">  1        2 0.60447465E+00 0.31620149E+04</pdfrwt>
<pdfrwt beam="2">  1       -2 0.97873029E-01 0.31620149E+04</pdfrwt>
<totfact> 0.28582834E-01</totfact>
</mgrwt>
</event>
<event>
 6    1  0.2436515E-005  0.1657086E+04  0.7818608E-02  0.8786226E-01
         -2   -1    0    0    0  501 -0.00000000000E+00  0.00000000000E+00  0.39761932450E+03  0.39761932450E+03  0.00000000000E+00 0. -1.
          2   -1    0    0  501    0  0.00000000000E+00 -0.00000000000E+00 -0.17264834479E+04  0.17264834479E+04  0.00000000000E+00 0.  1.
         23    2    1    2    0    0 -0.13876138922E+03  0.49402753307E+03  0.16360581935E+03  0.54588084358E+03  0.88888158365E+02 0.  0.
         11    1    3    3    0    0 -0.85062154140E+02  0.36044915059E+03  0.78298225014E+02  0.37853635528E+03  0.00000000000E+00 0.  1.
        -11    1    3    3    0    0 -0.53699235080E+02  0.13357838247E+03  0.85307594336E+02  0.16734448830E+03  0.00000000000E+00 0. -1.
         22    1    1    2    0    0  0.13876138922E+03 -0.49402753307E+03 -0.14924699427E+04  0.15782219288E+04  0.00000000000E+00 0.  1.
<mgrwt>
<rscale>  0 0.16570856E+04</rscale>
<asrwt>0</asrwt>
<pdfrwt beam="1">  1        2 0.26561285E+00 0.16570856E+04</pdfrwt>
<pdfrwt beam="2">  1       -2 0.61172202E-01 0.16570856E+04</pdfrwt>
<totfact> 0.22495482E+01</totfact>
</mgrwt>
</event>
<event>
 6    1  0.2436515E-005  0.1604216E+04  0.7818608E-02  0.8817962E-01
          2   -1    0    0  501    0  0.00000000000E+00  0.00000000000E+00  0.14376004038E+04  0.14376004038E+04  0.00000000000E+00 0.  1.
         -2   -1    0    0    0  501 -0.00000000000E+00 -0.00000000000E+00 -0.44753551703E+03  0.44753551703E+03  0.00000000000E+00 0. -1.
         23    2    1    2    0    0  0.52177822452E+03  0.30212662029E+03  0.11152528724E+04  0.12693396541E+04  0.62459409422E+02 0.  0.
         11    1    3    3    0    0  0.17858384224E+03  0.83349625212E+02  0.41458752541E+03  0.45904483981E+03  0.00000000000E+00 0.  1.
        -11    1    3    3    0    0  0.34319438228E+03  0.21877699508E+03  0.70066534700E+03  0.81029481431E+03  0.00000000000E+00 0. -1.
         22    1    1    2    0    0 -0.52177822452E+03 -0.30212662029E+03 -0.12518798569E+03  0.61579626666E+03  0.00000000000E+00 0. -1.
<mgrwt>
<rscale>  0 0.16042160E+04</rscale>
<asrwt>0</asrwt>
<pdfrwt beam="1">  1        2 0.22116929E+00 0.16042160E+04</pdfrwt>
<pdfrwt beam="2">  1       -2 0.68851619E-01 0.16042160E+04</pdfrwt>
<totfact> 0.25443041E+01</totfact>
</mgrwt>
</event>
<event>
 6    1  0.2436515E-005  0.1480048E+04  0.7818608E-02  0.8897830E-01
         -2   -1    0    0    0  501 -0.00000000000E+00  0.00000000000E+00  0.34444908844E+03  0.34444908844E+03  0.00000000000E+00 0. -1.
          2   -1    0    0  501    0  0.00000000000E+00 -0.00000000000E+00 -0.15898880837E+04  0.15898880837E+04  0.00000000000E+00 0.  1.
         23    2    1    2    0    0  0.84674201909E+02  0.32780000241E+03 -0.14809706163E+04  0.15219081400E+04  0.91147452577E+02 0.  0.
         13    1    3    3    0    0  0.58266966061E+01  0.98349555294E+02 -0.28421550632E+03  0.30080731283E+03  0.00000000000E+00 0. -1.
        -13    1    3    3    0    0  0.78847505303E+02  0.22945044712E+03 -0.11967551100E+04  0.12211008271E+04  0.00000000000E+00 0.  1.
         22    1    1    2    0    0 -0.84674201909E+02 -0.32780000241E+03  0.23553162106E+03  0.41242903216E+03  0.00000000000E+00 0. -1.
<mgrwt>
<rscale>  0 0.14800480E+04</rscale>
<asrwt>0</asrwt>
<pdfrwt beam="1">  1        2 0.24459816E+00 0.14800480E+04</pdfrwt>
<pdfrwt beam="2">  1       -2 0.52992169E-01 0.14800480E+04</pdfrwt>
<totfact> 0.36708215E+01</totfact>
</mgrwt>
</event>
<event>
 6    1  0.2436515E-005  0.3029664E+04  0.7818608E-02  0.8235310E-01
         -2   -1    0    0    0  501 -0.00000000000E+00  0.00000000000E+00  0.13786675784E+04  0.13786675784E+04  0.00000000000E+00 0. -1.
          2   -1    0    0  501    0  0.00000000000E+00 -0.00000000000E+00 -0.16644449144E+04  0.16644449144E+04  0.00000000000E+00 0.  1.
         23    2    1    2    0    0 -0.40437643248E+02 -0.46682907348E+03  0.13023419984E+04  0.13873082751E+04  0.94683592838E+02 0.  0.
         13    1    3    3    0    0 -0.55217159681E+02 -0.23405688958E+03  0.56786180334E+03  0.61668354119E+03  0.00000000000E+00 0. -1.
        -13    1    3    3    0    0  0.14779516433E+02 -0.23277218390E+03  0.73448019501E+03  0.77062473395E+03  0.00000000000E+00 0.  1.
         22    1    1    2    0    0  0.40437643248E+02  0.46682907348E+03 -0.15881193344E+04  0.16558042176E+04  0.00000000000E+00 0.  1.
<mgrwt>
<rscale>  0 0.30296642E+04</rscale>
<asrwt>0</asrwt>
<pdfrwt beam="1">  1        2 0.25606845E+00 0.30296642E+04</pdfrwt>
<pdfrwt beam="2">  1       -2 0.21210271E+00 0.30296642E+04</pdfrwt>
<totfact> 0.97301254E-01</totfact>
</mgrwt>
</event>
<event>
 6    1  0.2436515E-005  0.3272436E+04  0.7818608E-02  0.8169945E-01
          2   -1    0    0  501    0  0.00000000000E+00  0.00000000000E+00  0.27174527313E+04  0.27174527313E+04  0.00000000000E+00 0.  1.
         -2   -1    0    0    0  501 -0.00000000000E+00 -0.00000000000E+00 -0.98519053424E+03  0.98519053424E+03  0.00000000000E+00 0. -1.
         23    2    1    2    0    0 -0.39021574951E+03 -0.92540082339E+03  0.23263305294E+04  0.25357875767E+04  0.98842738334E+02 0.  0.
         11    1    3    3    0    0 -0.12129009203E+03 -0.29884683085E+03  0.63547053052E+03  0.71263139833E+03  0.00000000000E+00 0. -1.
        -11    1    3    3    0    0 -0.26892565748E+03 -0.62655399254E+03  0.16908599989E+04  0.18231561783E+04  0.00000000000E+00 0.  1.
         22    1    1    2    0    0  0.39021574951E+03  0.92540082339E+03 -0.59406833235E+03  0.11668556888E+04  0.00000000000E+00 0. -1.
<mgrwt>
<rscale>  0 0.32724356E+04</rscale>
<asrwt>0</asrwt>
<pdfrwt beam="1">  1        2 0.41806965E+00 0.32724356E+04</pdfrwt>
<pdfrwt beam="2">  1       -2 0.15156778E+00 0.32724356E+04</pdfrwt>
<totfact> 0.63225807E-01</totfact>
</mgrwt>
</event>
<event>
 6    1  0.2436515E-005  0.5090673E+04  0.7818608E-02  0.7814670E-01
         -2   -1    0    0    0  501 -0.00000000000E+00  0.00000000000E+00  0.33295298557E+04  0.33295298557E+04  0.00000000000E+00 0. -1.
          2   -1    0    0  501    0  0.00000000000E+00 -0.00000000000E+00 -0.19458420261E+04  0.19458420261E+04  0.00000000000E+00 0.  1.
         23    2    1    2    0    0  0.22604900667E+04 -0.10606407661E+04  0.11993297435E+04  0.27716222777E+04  0.93402571444E+02 0.  0.
         11    1    3    3    0    0  0.14804880649E+04 -0.64587120594E+03  0.76801467199E+03  0.17885304195E+04  0.00000000000E+00 0. -1.
        -11    1    3    3    0    0  0.78000200175E+03 -0.41476956015E+03  0.43131507154E+03  0.98309185822E+03  0.00000000000E+00 0.  1.
         22    1    1    2    0    0 -0.22604900667E+04  0.10606407661E+04  0.18435808611E+03  0.25037496041E+04  0.00000000000E+00 0.  1.
<mgrwt>
<rscale>  0 0.50906735E+04</rscale>
<asrwt>0</asrwt>
<pdfrwt beam="1">  1        2 0.29936031E+00 0.50906735E+04</pdfrwt>
<pdfrwt beam="2">  1       -2 0.51223536E+00 0.50906735E+04</pdfrwt>
<totfact> 0.72492403E-03</totfact>
</mgrwt>
</event>
<event>
 6    1  0.2436515E-005  0.2393044E+04  0.7818608E-02  0.8442112E-01
         -2   -1    0    0    0  501 -0.00000000000E+00  0.00000000000E+00  0.58582744297E+03  0.58582744297E+03  0.00000000000E+00 0. -1.
          2   -1    0    0  501    0  0.00000000000E+00 -0.00000000000E+00 -0.24438334195E+04  0.24438334195E+04  0.00000000000E+00 0.  1.
         23    2    1    2    0    0  0.62501540436E+03 -0.83378258048E+01  0.35889460037E+03  0.72632373064E+03  0.89593819440E+02 0.  0.
         13    1    3    3    0    0  0.29459032120E+03  0.34176048233E+02  0.19600920708E+03  0.35548708679E+03  0.00000000000E+00 0.  1.
        -13    1    3    3    0    0  0.33042508317E+03 -0.42513874038E+02  0.16288539329E+03  0.37083664385E+03  0.00000000000E+00 0. -1.
         22    1    1    2    0    0 -0.62501540436E+03  0.83378258048E+01 -0.22169005769E+04  0.23033371319E+04  0.00000000000E+00 0.  1.
<mgrwt>
<rscale>  0 0.23930438E+04</rscale>
<asrwt>0</asrwt>
<pdfrwt beam="1">  1        2 0.37597438E+00 0.23930438E+04</pdfrwt>
<pdfrwt beam="2">  1       -2 0.90127297E-01 0.23930438E+04</pdfrwt>
<totfact> 0.35549610E+00</totfact>
</mgrwt>
</event>
<event>
 6    1  0.2436515E-005  0.4004926E+04  0.7818608E-02  0.8003554E-01
          1   -1    0    0  501    0  0.00000000000E+00  0.00000000000E+00  0.27983518315E+04  0.27983518315E+04  0.00000000000E+00 0.  1.
         -1   -1    0    0    0  501 -0.00000000000E+00 -0.00000000000E+00 -0.14329352872E+04  0.14329352872E+04  0.00000000000E+00 0. -1.
         23    2    1    2    0    0 -0.13156241756E+04 -0.14502136741E+04  0.24535211671E+03  0.19755098704E+04  0.91950611041E+02 0.  0.
         13    1    3    3    0    0 -0.65321258183E+03 -0.78375731620E+03  0.11094431075E+03  0.10262898459E+04  0.00000000000E+00 0.  1.
        -13    1    3    3    0    0 -0.66241159379E+03 -0.66645635790E+03  0.13440780596E+03  0.94922002448E+03  0.00000000000E+00 0. -1.
         22    1    1    2    0    0  0.13156241756E+04  0.14502136741E+04  0.11200644276E+04  0.22557772483E+04  0.00000000000E+00 0. -1.
<mgrwt>
<rscale>  0 0.40049255E+04</rscale>
<asrwt>0</asrwt>
<pdfrwt beam="1">  1        1 0.43051567E+00 0.40049255E+04</pdfrwt>
<pdfrwt beam="2">  1       -1 0.22045158E+00 0.40049255E+04</pdfrwt>
<totfact> 0.71429957E-02</totfact>
</mgrwt>
</event>
<event>
 6    1  0.2706092E-005  0.2632848E+04  0.7818608E-02  0.8357128E-01
         -2   -1    0    0    0  501 -0.00000000000E+00  0.00000000000E+00  0.14034896037E+04  0.14034896037E+04  0.00000000000E+00 0. -1.
          2   -1    0    0  501    0  0.00000000000E+00 -0.00000000000E+00 -0.12347596971E+04  0.12347596971E+04  0.00000000000E+00 0.  1.
         23    2    1    2    0    0 -0.94420879635E+03  0.84223707461E+03  0.44283999662E+03  0.13436335731E+04  0.91380388086E+02 0.  0.
         11    1    3    3    0    0 -0.59400020703E+03  0.58461716956E+03  0.30633827671E+03  0.88795079856E+03  0.00000000000E+00 0.  1.
        -11    1    3    3    0    0 -0.35020858932E+03  0.25761990505E+03  0.13650171991E+03  0.45568277458E+03  0.00000000000E+00 0. -1.
         22    1    1    2    0    0  0.94420879635E+03 -0.84223707461E+03 -0.27411009004E+03  0.12946157277E+04  0.00000000000E+00 0.  1.
<mgrwt>
<rscale>  0 0.26328482E+04</rscale>
<asrwt>0</asrwt>
<pdfrwt beam="1">  1        2 0.18996303E+00 0.26328482E+04</pdfrwt>
<pdfrwt beam="2">  1       -2 0.21592148E+00 0.26328482E+04</pdfrwt>
<totfact> 0.16714456E+00</totfact>
</mgrwt>
</event>
<event>
 6    1  0.2436515E-005  0.1126536E+04  0.7818608E-02  0.9179707E-01
         -2   -1    0    0    0  501 -0.00000000000E+00  0.00000000000E+00  0.54857133969E+03  0.54857133969E+03  0.00000000000E+00 0. -1.
          2   -1    0    0  501    0  0.00000000000E+00 -0.00000000000E+00 -0.57835810670E+03  0.57835810670E+03  0.00000000000E+00 0.  1.
         23    2    1    2    0    0  0.48133637626E+03  0.10602326991E+03  0.25001927434E+03  0.56016930166E+03  0.91402232512E+02 0.  0.
         13    1    3    3    0    0  0.17696894463E+03  0.16260986801E+02  0.13292589641E+03  0.22192728762E+03  0.00000000000E+00 0.  1.
        -13    1    3    3    0    0  0.30436743163E+03  0.89762283110E+02  0.11709337794E+03  0.33824201405E+03  0.00000000000E+00 0. -1.
         22    1    1    2    0    0 -0.48133637626E+03 -0.10602326991E+03 -0.27980604135E+03  0.56676014473E+03  0.00000000000E+00 0.  1.
<mgrwt>
<rscale>  0 0.11265357E+04</rscale>
<asrwt>0</asrwt>
<pdfrwt beam="1">  1        2 0.88978170E-01 0.11265357E+04</pdfrwt>
<pdfrwt beam="2">  1       -2 0.84395591E-01 0.11265357E+04</pdfrwt>
<totfact> 0.62973232E+01</totfact>
</mgrwt>
</event>
<event>
 6    1  0.2436515E-005  0.2974749E+04  0.7818608E-02  0.8250979E-01
          2   -1    0    0  501    0  0.00000000000E+00  0.00000000000E+00  0.16702940869E+04  0.16702940869E+04  0.00000000000E+00 0.  1.
         -2   -1    0    0    0  501 -0.00000000000E+00 -0.00000000000E+00 -0.13244867935E+04  0.13244867935E+04  0.00000000000E+00 0. -1.
         23    2    1    2    0    0 -0.59523054227E+03  0.73912731868E+03  0.13239186051E+04  0.16319491484E+04  0.99443241694E+02 0.  0.
         11    1    3    3    0    0 -0.22960336873E+03  0.36165975957E+03  0.57428589187E+03  0.71646337954E+03  0.00000000000E+00 0. -1.
        -11    1    3    3    0    0 -0.36562717353E+03  0.37746755911E+03  0.74963271324E+03  0.91548576885E+03  0.00000000000E+00 0.  1.
         22    1    1    2    0    0  0.59523054227E+03 -0.73912731868E+03 -0.97811131176E+03  0.13628317320E+04  0.00000000000E+00 0. -1.
<mgrwt>
<rscale>  0 0.29747487E+04</rscale>
<asrwt>0</asrwt>
<pdfrwt beam="1">  1        2 0.25696832E+00 0.29747487E+04</pdfrwt>
<pdfrwt beam="2">  1       -2 0.20376720E+00 0.29747487E+04</pdfrwt>
<totfact> 0.10982678E+00</totfact>
</mgrwt>
</event>
<event>
 6    1  0.2436515E-005  0.2507816E+04  0.7818608E-02  0.8400206E-01
          2   -1    0    0  501    0  0.00000000000E+00  0.00000000000E+00  0.35354738837E+04  0.35354738837E+04  0.00000000000E+00 0.  1.
         -2   -1    0    0    0  501 -0.00000000000E+00 -0.00000000000E+00 -0.44471699654E+03  0.44471699654E+03  0.00000000000E+00 0. -1.
         23    2    1    2    0    0  0.25049422613E+03  0.72218113413E+03  0.31216269926E+04  0.32151772129E+04  0.92284783388E+02 0.  0.
         11    1    3    3    0    0  0.10370148478E+03  0.25292253717E+03  0.12947266308E+04  0.13232690037E+04  0.00000000000E+00 0. -1.
        -11    1    3    3    0    0  0.14679274135E+03  0.46925859697E+03  0.18269003618E+04  0.18919082091E+04  0.00000000000E+00 0.  1.
         22    1    1    2    0    0 -0.25049422613E+03 -0.72218113413E+03 -0.30870105492E+02  0.76501366735E+03  0.00000000000E+00 0. -1.
<mgrwt>
<rscale>  0 0.25078160E+04</rscale>
<asrwt>0</asrwt>
<pdfrwt beam="1">  1        2 0.54391904E+00 0.25078160E+04</pdfrwt>
<pdfrwt beam="2">  1       -2 0.68418002E-01 0.25078160E+04</pdfrwt>
<totfact> 0.13385926E+00</totfact>
</mgrwt>
</event>
<event>
 6    1  0.2436515E-005  0.2587235E+04  0.7818608E-02  0.8372550E-01
         -2   -1    0    0    0  501 -0.00000000000E+00  0.00000000000E+00  0.13761755143E+04  0.13761755143E+04  0.00000000000E+00 0. -1.
          2   -1    0    0  501    0  0.00000000000E+00 -0.00000000000E+00 -0.12160124831E+04  0.12160124831E+04  0.00000000000E+00 0.  1.
         23    2    1    2    0    0  0.57914537263E+03  0.68815426464E+03  0.10094383628E+04  0.13551616260E+04  0.92366496258E+02 0.  0.
         13    1    3    3    0    0  0.79597230003E+02  0.90312647857E+02  0.91694079893E+02  0.15132712141E+03  0.00000000000E+00 0.  1.
        -13    1    3    3    0    0  0.49954814263E+03  0.59784161678E+03  0.91774428293E+03  0.12038345046E+04  0.00000000000E+00 0. -1.
         22    1    1    2    0    0 -0.57914537263E+03 -0.68815426464E+03 -0.84927533165E+03  0.12370263714E+04  0.00000000000E+00 0.  1.
<mgrwt>
<rscale>  0 0.25872353E+04</rscale>
<asrwt>0</asrwt>
<pdfrwt beam="1">  1        2 0.18707884E+00 0.25872353E+04</pdfrwt>
<pdfrwt beam="2">  1       -2 0.21171931E+00 0.25872353E+04</pdfrwt>
<totfact> 0.18314065E+00</totfact>
</mgrwt>
</event>
<event>
 6    1  0.2436515E-005  0.1170279E+04  0.7818608E-02  0.9139276E-01
         -4   -1    0    0    0  501 -0.00000000000E+00  0.00000000000E+00  0.12068909712E+03  0.12068909712E+03  0.00000000000E+00 0. -1.
          4   -1    0    0  501    0  0.00000000000E+00 -0.00000000000E+00 -0.28369459817E+04  0.28369459817E+04  0.00000000000E+00 0.  1.
         23    2    1    2    0    0 -0.30439429707E+03 -0.24073611019E+03 -0.24608611079E+04  0.24930527227E+04  0.94152658187E+02 0.  0.
         11    1    3    3    0    0 -0.19352269267E+03 -0.19284717357E+03 -0.18820178594E+04  0.19017445381E+04  0.00000000000E+00 0. -1.
        -11    1    3    3    0    0 -0.11087160441E+03 -0.47888936626E+02 -0.57884324851E+03  0.59130818467E+03  0.00000000000E+00 0.  1.
         22    1    1    2    0    0  0.30439429707E+03  0.24073611019E+03 -0.25539577666E+03  0.46458235608E+03  0.00000000000E+00 0. -1.
<mgrwt>
<rscale>  0 0.11702794E+04</rscale>
<asrwt>0</asrwt>
<pdfrwt beam="1">  1        4 0.43645319E+00 0.11702794E+04</pdfrwt>
<pdfrwt beam="2">  1       -4 0.18567555E-01 0.11702794E+04</pdfrwt>
<totfact> 0.20222147E-01</totfact>
</mgrwt>
</event>
<event>
 6    1  0.2436515E-005  0.3472482E+04  0.7818608E-02  0.8120342E-01
          2   -1    0    0  501    0  0.00000000000E+00  0.00000000000E+00  0.23054021320E+04  0.23054021320E+04  0.00000000000E+00 0.  1.
         -2   -1    0    0    0  501 -0.00000000000E+00 -0.00000000000E+00 -0.13075951885E+04  0.13075951885E+04  0.00000000000E+00 0. -1.
         23    2    1    2    0    0  0.99050648089E+03  0.37165871280E+03 -0.93154910432E+03  0.14126227962E+04  0.92120264925E+02 0.  0.
         13    1    3    3    0    0  0.37905714860E+03  0.13432674510E+03 -0.29621525656E+03  0.49947119494E+03  0.00000000000E+00 0.  1.
        -13    1    3    3    0    0  0.61144933230E+03  0.23733196770E+03 -0.63533384776E+03  0.91315160131E+03  0.00000000000E+00 0. -1.
         22    1    1    2    0    0 -0.99050648089E+03 -0.37165871280E+03  0.19293560479E+04  0.22003745242E+04  0.00000000000E+00 0.  1.
<mgrwt>
<rscale>  0 0.34724820E+04</rscale>
<asrwt>0</asrwt>
<pdfrwt beam="1">  1        2 0.35467725E+00 0.34724820E+04</pdfrwt>
<pdfrwt beam="2">  1       -2 0.20116849E+00 0.34724820E+04</pdfrwt>
<totfact> 0.48444829E-01</totfact>
</mgrwt>
</event>
<event>
 6    1  0.2436515E-005  0.3774797E+04  0.7818608E-02  0.8051585E-01
          2   -1    0    0  501    0  0.00000000000E+00  0.00000000000E+00  0.22153644503E+04  0.22153644503E+04  0.00000000000E+00 0.  1.
         -2   -1    0    0    0  501 -0.00000000000E+00 -0.00000000000E+00 -0.16079854973E+04  0.16079854973E+04  0.00000000000E+00 0. -1.
         23    2    1    2    0    0  0.13065019016E+04 -0.21409263763E+03 -0.10570383102E+04  0.16965994445E+04  0.91306129545E+02 0.  0.
         13    1    3    3    0    0  0.10639756166E+04 -0.16469230721E+03 -0.81409905960E+03  0.13497870009E+04  0.00000000000E+00 0.  1.
        -13    1    3    3    0    0  0.24252628499E+03 -0.49400330422E+02 -0.24293925062E+03  0.34681244362E+03  0.00000000000E+00 0. -1.
         22    1    1    2    0    0 -0.13065019016E+04  0.21409263763E+03  0.16644172632E+04  0.21267505031E+04  0.00000000000E+00 0.  1.
<mgrwt>
<rscale>  0 0.37747974E+04</rscale>
<asrwt>0</asrwt>
<pdfrwt beam="1">  1        2 0.34082530E+00 0.37747974E+04</pdfrwt>
<pdfrwt beam="2">  1       -2 0.24738238E+00 0.37747974E+04</pdfrwt>
<totfact> 0.27126446E-01</totfact>
</mgrwt>
</event>
<event>
 6    1  0.2436515E-005  0.2238593E+04  0.7818608E-02  0.8502534E-01
         -2   -1    0    0    0  501 -0.00000000000E+00  0.00000000000E+00  0.41227375100E+03  0.41227375100E+03  0.00000000000E+00 0. -1.
          2   -1    0    0  501    0  0.00000000000E+00 -0.00000000000E+00 -0.30388181306E+04  0.30388181306E+04  0.00000000000E+00 0.  1.
         23    2    1    2    0    0 -0.75699796075E+03  0.74860017020E+03 -0.79182338441E+03  0.13298542104E+04  0.89887827137E+02 0.  0.
         11    1    3    3    0    0 -0.17091376997E+03  0.22228440298E+03 -0.22200248209E+03  0.35764084586E+03  0.00000000000E+00 0.  1.
        -11    1    3    3    0    0 -0.58608419078E+03  0.52631576722E+03 -0.56982090232E+03  0.97221336456E+03  0.00000000000E+00 0. -1.
         22    1    1    2    0    0  0.75699796075E+03 -0.74860017020E+03 -0.18347209952E+04  0.21212376711E+04  0.00000000000E+00 0.  1.
<mgrwt>
<rscale>  0 0.22385933E+04</rscale>
<asrwt>0</asrwt>
<pdfrwt beam="1">  1        2 0.46751046E+00 0.22385933E+04</pdfrwt>
<pdfrwt beam="2">  1       -2 0.63426734E-01 0.22385933E+04</pdfrwt>
<totfact> 0.34548378E+00</totfact>
</mgrwt>
</event>
<event>
 6    1  0.2436515E-005  0.3300157E+04  0.7818608E-02  0.8162855E-01
         -2   -1    0    0    0  501 -0.00000000000E+00  0.00000000000E+00  0.18674726520E+04  0.18674726520E+04  0.00000000000E+00 0. -1.
          2   -1    0    0  501    0  0.00000000000E+00 -0.00000000000E+00 -0.14579912437E+04  0.14579912437E+04  0.00000000000E+00 0.  1.
         23    2    1    2    0    0  0.16460923851E+04  0.76196325948E+02  0.26105253026E+03  0.16709376336E+04  0.91968100009E+02 0.  0.
         11    1    3    3    0    0  0.89571400808E+03 -0.43987713265E+01  0.14108926697E+03  0.90676850117E+03  0.00000000000E+00 0. -1.
        -11    1    3    3    0    0  0.75037837700E+03  0.80595097275E+02  0.11996326329E+03  0.76416913240E+03  0.00000000000E+00 0.  1.
         22    1    1    2    0    0 -0.16460923851E+04 -0.76196325948E+02  0.14842887808E+03  0.16545262621E+04  0.00000000000E+00 0.  1.
<mgrwt>
<rscale>  0 0.33001568E+04</rscale>
<asrwt>0</asrwt>
<pdfrwt beam="1">  1        2 0.22430635E+00 0.33001568E+04</pdfrwt>
<pdfrwt beam="2">  1       -2 0.28730349E+00 0.33001568E+04</pdfrwt>
<totfact> 0.42559240E-01</totfact>
</mgrwt>
</event>
<event>
 6    1  0.2436515E-005  0.6437741E+04  0.7818608E-02  0.7638376E-01
          2   -1    0    0  501    0  0.00000000000E+00  0.00000000000E+00  0.30132310430E+04  0.30132310430E+04  0.00000000000E+00 0.  1.
         -2   -1    0    0    0  501 -0.00000000000E+00 -0.00000000000E+00 -0.34385435044E+04  0.34385435044E+04  0.00000000000E+00 0. -1.
         23    2    1    2    0    0  0.21607058960E+04  0.36538665698E+03  0.21494473239E+04  0.30707177111E+04  0.83821743698E+02 0.  0.
         11    1    3    3    0    0  0.13479683640E+04  0.25555784417E+03  0.13871682117E+04  0.19510418165E+04  0.00000000000E+00 0. -1.
        -11    1    3    3    0    0  0.81273753197E+03  0.10982881281E+03  0.76227911224E+03  0.11196758946E+04  0.00000000000E+00 0.  1.
         22    1    1    2    0    0 -0.21607058960E+04 -0.36538665698E+03 -0.25747597854E+04  0.33810568363E+04  0.00000000000E+00 0. -1.
<mgrwt>
<rscale>  0 0.64377406E+04</rscale>
<asrwt>0</asrwt>
<pdfrwt beam="1">  1        2 0.46357401E+00 0.64377406E+04</pdfrwt>
<pdfrwt beam="2">  1       -2 0.52900669E+00 0.64377406E+04</pdfrwt>
<totfact> 0.12544355E-03</totfact>
</mgrwt>
</event>
<event>
 6    1  0.2436515E-005  0.1927195E+04  0.7818608E-02  0.8641437E-01
          2   -1    0    0  501    0  0.00000000000E+00  0.00000000000E+00  0.42846740286E+04  0.42846740286E+04  0.00000000000E+00 0.  1.
         -2   -1    0    0    0  501 -0.00000000000E+00 -0.00000000000E+00 -0.21670735099E+03  0.21670735099E+03  0.00000000000E+00 0. -1.
         23    2    1    2    0    0  0.40860561297E+03 -0.67848572142E+03  0.76555772699E+03  0.11053239157E+04  0.91437979321E+02 0.  0.
         13    1    3    3    0    0  0.10081317783E+03 -0.22752168435E+03  0.20048106027E+03  0.31956543806E+03  0.00000000000E+00 0. -1.
        -13    1    3    3    0    0  0.30779243514E+03 -0.45096403707E+03  0.56507666672E+03  0.78575847761E+03  0.00000000000E+00 0.  1.
         22    1    1    2    0    0 -0.40860561297E+03  0.67848572142E+03  0.33024089506E+04  0.33960574639E+04  0.00000000000E+00 0.  1.
<mgrwt>
<rscale>  0 0.19271952E+04</rscale>
<asrwt>0</asrwt>
<pdfrwt beam="1">  1        2 0.65918056E+00 0.19271952E+04</pdfrwt>
<pdfrwt beam="2">  1       -2 0.33339596E-01 0.19271952E+04</pdfrwt>
<totfact> 0.15620386E+00</totfact>
</mgrwt>
</event>
<event>
 6    1  0.2436515E-005  0.2715219E+04  0.7818608E-02  0.8330084E-01
         -2   -1    0    0    0  501 -0.00000000000E+00  0.00000000000E+00  0.10377271503E+04  0.10377271503E+04  0.00000000000E+00 0. -1.
          2   -1    0    0  501    0  0.00000000000E+00 -0.00000000000E+00 -0.17760960551E+04  0.17760960551E+04  0.00000000000E+00 0.  1.
         23    2    1    2    0    0 -0.12994910885E+04 -0.67263298454E+02  0.25913819345E+02  0.13047408607E+04  0.92063820358E+02 0.  0.
         13    1    3    3    0    0 -0.10085520935E+04 -0.76708061431E+02 -0.94439081340E+01  0.10115090901E+04  0.00000000000E+00 0. -1.
        -13    1    3    3    0    0 -0.29093899504E+03  0.94447629769E+01  0.35357727479E+02  0.29323177058E+03  0.00000000000E+00 0.  1.
         22    1    1    2    0    0  0.12994910885E+04  0.67263298454E+02 -0.76428272416E+03  0.15090823447E+04  0.00000000000E+00 0.  1.
<mgrwt>
<rscale>  0 0.27152187E+04</rscale>
<asrwt>0</asrwt>
<pdfrwt beam="1">  1        2 0.27324555E+00 0.27152187E+04</pdfrwt>
<pdfrwt beam="2">  1       -2 0.15965033E+00 0.27152187E+04</pdfrwt>
<totfact> 0.19756037E+00</totfact>
</mgrwt>
</event>
<event>
 6    1  0.2436515E-005  0.3330658E+04  0.7818608E-02  0.8155138E-01
         -2   -1    0    0    0  501 -0.00000000000E+00  0.00000000000E+00  0.52716437226E+03  0.52716437226E+03  0.00000000000E+00 0. -1.
          2   -1    0    0  501    0  0.00000000000E+00 -0.00000000000E+00 -0.52608260417E+04  0.52608260417E+04  0.00000000000E+00 0.  1.
         23    2    1    2    0    0 -0.12615410222E+04 -0.94077783077E+03 -0.33092473141E+04  0.36653729418E+04  0.85395190640E+02 0.  0.
         13    1    3    3    0    0 -0.60552439566E+03 -0.49265585599E+03 -0.17032700916E+04  0.18736324589E+04  0.00000000000E+00 0.  1.
        -13    1    3    3    0    0 -0.65601662656E+03 -0.44812197478E+03 -0.16059772225E+04  0.17917404828E+04  0.00000000000E+00 0. -1.
         22    1    1    2    0    0  0.12615410222E+04  0.94077783077E+03 -0.14244143553E+04  0.21226174722E+04  0.00000000000E+00 0. -1.
<mgrwt>
<rscale>  0 0.33306576E+04</rscale>
<asrwt>0</asrwt>
<pdfrwt beam="1">  1        2 0.80935783E+00 0.33306576E+04</pdfrwt>
<pdfrwt beam="2">  1       -2 0.81102214E-01 0.33306576E+04</pdfrwt>
<totfact> 0.16624374E-02</totfact>
</mgrwt>
</event>
<event>
 6    1  0.2436515E-005  0.3471189E+04  0.7818608E-02  0.8120652E-01
         -2   -1    0    0    0  501 -0.00000000000E+00  0.00000000000E+00  0.15986875294E+04  0.15986875294E+04  0.00000000000E+00 0. -1.
          2   -1    0    0  501    0  0.00000000000E+00 -0.00000000000E+00 -0.18842253599E+04  0.18842253599E+04  0.00000000000E+00 0.  1.
         23    2    1    2    0    0 -0.13905450459E+04  0.96280395214E+03  0.24223567707E+03  0.17111477101E+04  0.93495388275E+02 0.  0.
         11    1    3    3    0    0 -0.65356248294E+03  0.39686598379E+03  0.10084832996E+03  0.77124374477E+03  0.00000000000E+00 0. -1.
        -11    1    3    3    0    0 -0.73698256292E+03  0.56593796835E+03  0.14138734711E+03  0.93990396530E+03  0.00000000000E+00 0.  1.
         22    1    1    2    0    0  0.13905450459E+04 -0.96280395214E+03 -0.52777350761E+03  0.17717651792E+04  0.00000000000E+00 0.  1.
<mgrwt>
<rscale>  0 0.34711886E+04</rscale>
<asrwt>0</asrwt>
<pdfrwt beam="1">  1        2 0.28988082E+00 0.34711886E+04</pdfrwt>
<pdfrwt beam="2">  1       -2 0.24595193E+00 0.34711886E+04</pdfrwt>
<totfact> 0.43437000E-01</totfact>
</mgrwt>
</event>
<event>
 6    1  0.2436515E-005  0.1378773E+04  0.7818608E-02  0.8969329E-01
          2   -1    0    0  501    0  0.00000000000E+00  0.00000000000E+00  0.19763969828E+04  0.19763969828E+04  0.00000000000E+00 0.  1.
         -2   -1    0    0    0  501 -0.00000000000E+00 -0.00000000000E+00 -0.24046469011E+03  0.24046469011E+03  0.00000000000E+00 0. -1.
         23    2    1    2    0    0 -0.24180840627E+03 -0.60065353125E+03  0.12379816917E+04  0.14000319655E+04  0.90746158633E+02 0.  0.
         11    1    3    3    0    0 -0.88989649604E+02 -0.32010583115E+03  0.57482007514E+03  0.66393148717E+03  0.00000000000E+00 0. -1.
        -11    1    3    3    0    0 -0.15281875666E+03 -0.28054770010E+03  0.66316161659E+03  0.73610047829E+03  0.00000000000E+00 0.  1.
         22    1    1    2    0    0  0.24180840627E+03  0.60065353125E+03  0.49795060091E+03  0.81682970740E+03  0.00000000000E+00 0. -1.
<mgrwt>
<rscale>  0 0.13787729E+04</rscale>
<asrwt>0</asrwt>
<pdfrwt beam="1">  1        2 0.30406106E+00 0.13787729E+04</pdfrwt>
<pdfrwt beam="2">  1       -2 0.36994569E-01 0.13787729E+04</pdfrwt>
<totfact> 0.46248123E+01</totfact>
</mgrwt>
</event>
<event>
 6    1  0.2436515E-005  0.1959731E+04  0.7818608E-02  0.8625682E-01
         -2   -1    0    0    0  501 -0.00000000000E+00  0.00000000000E+00  0.13042190238E+04  0.13042190238E+04  0.00000000000E+00 0. -1.
          2   -1    0    0  501    0  0.00000000000E+00 -0.00000000000E+00 -0.73617762910E+03  0.73617762910E+03  0.00000000000E+00 0.  1.
         23    2    1    2    0    0  0.11917155140E+03 -0.62533805954E+03 -0.48801855223E+03  0.80730616196E+03  0.91277513367E+02 0.  0.
         11    1    3    3    0    0  0.12215545305E+03 -0.49870116124E+03 -0.35903448228E+03  0.62652259528E+03  0.00000000000E+00 0.  1.
        -11    1    3    3    0    0 -0.29839016547E+01 -0.12663689830E+03 -0.12898406995E+03  0.18078356668E+03  0.00000000000E+00 0. -1.
         22    1    1    2    0    0 -0.11917155140E+03  0.62533805954E+03  0.10560599470E+04  0.12330904910E+04  0.00000000000E+00 0. -1.
<mgrwt>
<rscale>  0 0.19597315E+04</rscale>
<asrwt>0</asrwt>
<pdfrwt beam="1">  1        2 0.11325810E+00 0.19597315E+04</pdfrwt>
<pdfrwt beam="2">  1       -2 0.20064908E+00 0.19597315E+04</pdfrwt>
<totfact> 0.47127312E+00</totfact>
</mgrwt>
</event>
<event>
 6    1  0.2436515E-005  0.4625957E+04  0.7818608E-02  0.7888949E-01
          1   -1    0    0  501    0  0.00000000000E+00  0.00000000000E+00  0.34362647502E+04  0.34362647502E+04  0.00000000000E+00 0. -1.
         -1   -1    0    0    0  501 -0.00000000000E+00 -0.00000000000E+00 -0.15568853466E+04  0.15568853466E+04  0.00000000000E+00 0.  1.
         23    2    1    2    0    0  0.40499791860E+03  0.22586726241E+04  0.63438685429E+03  0.23824735973E+04  0.90046787266E+02 0.  0.
         13    1    3    3    0    0  0.36137664974E+02  0.35159613696E+03  0.11730259175E+03  0.37240525290E+03  0.00000000000E+00 0. -1.
        -13    1    3    3    0    0  0.36886025363E+03  0.19070764872E+04  0.51708426254E+03  0.20100683444E+04  0.00000000000E+00 0.  1.
         22    1    1    2    0    0 -0.40499791860E+03 -0.22586726241E+04  0.12449925493E+04  0.26106764995E+04  0.00000000000E+00 0.  1.
<mgrwt>
<rscale>  0 0.46259573E+04</rscale>
<asrwt>0</asrwt>
<pdfrwt beam="1">  1        1 0.52865612E+00 0.46259573E+04</pdfrwt>
<pdfrwt beam="2">  1       -1 0.23952082E+00 0.46259573E+04</pdfrwt>
<totfact> 0.17012160E-02</totfact>
</mgrwt>
</event>
<event>
 6    1  0.2436515E-005  0.1827554E+04  0.7818608E-02  0.8691782E-01
         -2   -1    0    0    0  501 -0.00000000000E+00  0.00000000000E+00  0.16179209729E+04  0.16179209729E+04  0.00000000000E+00 0. -1.
          2   -1    0    0  501    0  0.00000000000E+00 -0.00000000000E+00 -0.51608704598E+03  0.51608704598E+03  0.00000000000E+00 0.  1.
         23    2    1    2    0    0  0.14962244304E+03 -0.13976029287E+03  0.15893733768E+04  0.16052221170E+04  0.93330054426E+02 0.  0.
         11    1    3    3    0    0  0.94355807434E+02 -0.13848619232E+03  0.10914468332E+04  0.11042362218E+04  0.00000000000E+00 0. -1.
        -11    1    3    3    0    0  0.55266635606E+02 -0.12741005585E+01  0.49792654361E+03  0.50098589519E+03  0.00000000000E+00 0.  1.
         22    1    1    2    0    0 -0.14962244304E+03  0.13976029287E+03 -0.48753944984E+03  0.52878590193E+03  0.00000000000E+00 0.  1.
<mgrwt>
<rscale>  0 0.18275536E+04</rscale>
<asrwt>0</asrwt>
<pdfrwt beam="1">  1        2 0.79398008E-01 0.18275536E+04</pdfrwt>
<pdfrwt beam="2">  1       -2 0.24891092E+00 0.18275536E+04</pdfrwt>
<totfact> 0.36477058E+00</totfact>
</mgrwt>
</event>
<event>
 6    1  0.2436515E-005  0.4652136E+04  0.7818608E-02  0.7884530E-01
         -2   -1    0    0    0  501 -0.00000000000E+00  0.00000000000E+00  0.12538803243E+04  0.12538803243E+04  0.00000000000E+00 0. -1.
          2   -1    0    0  501    0  0.00000000000E+00 -0.00000000000E+00 -0.43150788028E+04  0.43150788028E+04  0.00000000000E+00 0.  1.
         23    2    1    2    0    0 -0.22442044845E+03  0.23138421397E+04 -0.15875660968E+04  0.28165379418E+04  0.91048782069E+02 0.  0.
         11    1    3    3    0    0 -0.27726382552E+02  0.69582702544E+03 -0.49116373593E+03  0.85216536959E+03  0.00000000000E+00 0.  1.
        -11    1    3    3    0    0 -0.19669406589E+03  0.16180151142E+04 -0.10964023609E+04  0.19643725722E+04  0.00000000000E+00 0. -1.
         22    1    1    2    0    0  0.22442044845E+03 -0.23138421397E+04 -0.14736323817E+04  0.27524211853E+04  0.00000000000E+00 0.  1.
<mgrwt>
<rscale>  0 0.46521360E+04</rscale>
<asrwt>0</asrwt>
<pdfrwt beam="1">  1        2 0.66385827E+00 0.46521360E+04</pdfrwt>
<pdfrwt beam="2">  1       -2 0.19290467E+00 0.46521360E+04</pdfrwt>
<totfact> 0.20248400E-02</totfact>
</mgrwt>
</event>
<event>
 6    1  0.2436515E-005  0.3931325E+04  0.7818608E-02  0.8018546E-01
          2   -1    0    0  501    0  0.00000000000E+00  0.00000000000E+00  0.21574780111E+04  0.21574780111E+04  0.00000000000E+00 0.  1.
         -2   -1    0    0    0  501 -0.00000000000E+00 -0.00000000000E+00 -0.17909008048E+04  0.17909008048E+04  0.00000000000E+00 0. -1.
         23    2    1    2    0    0  0.57199609782E+03 -0.15405930769E+04  0.12647130092E+04  0.20756122835E+04  0.89781910588E+02 0.  0.
         13    1    3    3    0    0  0.11668345462E+03 -0.28248464689E+03  0.19442074506E+03  0.36223201186E+03  0.00000000000E+00 0.  1.
        -13    1    3    3    0    0  0.45531264319E+03 -0.12581084300E+04  0.10702922641E+04  0.17133802717E+04  0.00000000000E+00 0. -1.
         22    1    1    2    0    0 -0.57199609782E+03  0.15405930769E+04 -0.89813580279E+03  0.18727665324E+04  0.00000000000E+00 0. -1.
<mgrwt>
<rscale>  0 0.39313250E+04</rscale>
<asrwt>0</asrwt>
<pdfrwt beam="1">  1        2 0.33191969E+00 0.39313250E+04</pdfrwt>
<pdfrwt beam="2">  1       -2 0.27552320E+00 0.39313250E+04</pdfrwt>
<totfact> 0.19410829E-01</totfact>
</mgrwt>
</event>
<event>
 6    1  0.2436515E-005  0.2536357E+04  0.7818608E-02  0.8390146E-01
          2   -1    0    0  501    0  0.00000000000E+00  0.00000000000E+00  0.35979553388E+04  0.35979553388E+04  0.00000000000E+00 0.  1.
         -2   -1    0    0    0  501 -0.00000000000E+00 -0.00000000000E+00 -0.44699745098E+03  0.44699745098E+03  0.00000000000E+00 0. -1.
         23    2    1    2    0    0  0.11056651312E+04  0.17147723287E+03  0.25238174902E+04  0.27622973793E+04  0.93446582754E+02 0.  0.
         13    1    3    3    0    0  0.50110264788E+03  0.95983374463E+02  0.10453801735E+04  0.11632439035E+04  0.00000000000E+00 0.  1.
        -13    1    3    3    0    0  0.60456248333E+03  0.75493858403E+02  0.14784373167E+04  0.15990534758E+04  0.00000000000E+00 0. -1.
         22    1    1    2    0    0 -0.11056651312E+04 -0.17147723287E+03  0.62714039760E+03  0.12826554105E+04  0.00000000000E+00 0. -1.
<mgrwt>
<rscale>  0 0.25363571E+04</rscale>
<asrwt>0</asrwt>
<pdfrwt beam="1">  1        2 0.55353157E+00 0.25363571E+04</pdfrwt>
<pdfrwt beam="2">  1       -2 0.68768841E-01 0.25363571E+04</pdfrwt>
<totfact> 0.11919513E+00</totfact>
</mgrwt>
</event>
<event>
 6    1  0.2436515E-005  0.2792179E+04  0.7818608E-02  0.8305701E-01
         -2   -1    0    0    0  501 -0.00000000000E+00  0.00000000000E+00  0.11174594144E+04  0.11174594144E+04  0.00000000000E+00 0. -1.
          2   -1    0    0  501    0  0.00000000000E+00 -0.00000000000E+00 -0.17441935720E+04  0.17441935720E+04  0.00000000000E+00 0.  1.
         23    2    1    2    0    0  0.13865796736E+04  0.10440257816E+03 -0.20464033929E+03  0.14084956373E+04  0.92082584138E+02 0.  0.
         13    1    3    3    0    0  0.20107449680E+03  0.78285530225E+01 -0.61881581941E+02  0.21052688591E+03  0.00000000000E+00 0. -1.
        -13    1    3    3    0    0  0.11855051768E+04  0.96574025135E+02 -0.14275875735E+03  0.11979687514E+04  0.00000000000E+00 0.  1.
         22    1    1    2    0    0 -0.13865796736E+04 -0.10440257816E+03 -0.42209381831E+03  0.14531573490E+04  0.00000000000E+00 0. -1.
<mgrwt>
<rscale>  0 0.27921787E+04</rscale>
<asrwt>0</asrwt>
<pdfrwt beam="1">  1        2 0.26833747E+00 0.27921787E+04</pdfrwt>
<pdfrwt beam="2">  1       -2 0.17191683E+00 0.27921787E+04</pdfrwt>
<totfact> 0.16670119E+00</totfact>
</mgrwt>
</event>
<event>
 6    1  0.2436515E-005  0.1681972E+04  0.7818608E-02  0.8771713E-01
         -2   -1    0    0    0  501 -0.00000000000E+00  0.00000000000E+00  0.52073411445E+03  0.52073411445E+03  0.00000000000E+00 0. -1.
          2   -1    0    0  501    0  0.00000000000E+00 -0.00000000000E+00 -0.13581936937E+04  0.13581936937E+04  0.00000000000E+00 0.  1.
         23    2    1    2    0    0 -0.39366079031E+03  0.69555296797E+03 -0.13804550812E+03  0.81688129696E+03  0.97343422621E+02 0.  0.
         13    1    3    3    0    0 -0.22079948958E+03  0.41913702841E+03 -0.12792927040E+03  0.49070781674E+03  0.00000000000E+00 0.  1.
        -13    1    3    3    0    0 -0.17286130073E+03  0.27641593956E+03 -0.10116237723E+02  0.32617348022E+03  0.00000000000E+00 0. -1.
         22    1    1    2    0    0  0.39366079031E+03 -0.69555296797E+03 -0.69941407118E+03  0.10620465112E+04  0.00000000000E+00 0.  1.
<mgrwt>
<rscale>  0 0.16819724E+04</rscale>
<asrwt>0</asrwt>
<pdfrwt beam="1">  1        2 0.20895287E+00 0.16819724E+04</pdfrwt>
<pdfrwt beam="2">  1       -2 0.80112942E-01 0.16819724E+04</pdfrwt>
<totfact> 0.20082430E+01</totfact>
</mgrwt>
</event>
<event>
 6    1  0.2436515E-005  0.4562650E+04  0.7818608E-02  0.7899760E-01
          2   -1    0    0  501    0  0.00000000000E+00  0.00000000000E+00  0.40122755303E+04  0.40122755303E+04  0.00000000000E+00 0.  1.
         -2   -1    0    0    0  501 -0.00000000000E+00 -0.00000000000E+00 -0.12971301162E+04  0.12971301162E+04  0.00000000000E+00 0. -1.
         23    2    1    2    0    0  0.47611175979E+03 -0.20031419225E+04  0.24988040796E+04  0.32391246166E+04  0.92986474246E+02 0.  0.
         13    1    3    3    0    0  0.11890883137E+03 -0.34713803209E+03  0.44970863408E+03  0.58041535047E+03  0.00000000000E+00 0.  1.
        -13    1    3    3    0    0  0.35720292842E+03 -0.16560038904E+04  0.20490954455E+04  0.26587092662E+04  0.00000000000E+00 0. -1.
         22    1    1    2    0    0 -0.47611175979E+03  0.20031419225E+04  0.21634133455E+03  0.20702810299E+04  0.00000000000E+00 0. -1.
<mgrwt>
<rscale>  0 0.45626499E+04</rscale>
<asrwt>0</asrwt>
<pdfrwt beam="1">  1        2 0.61727315E+00 0.45626499E+04</pdfrwt>
<pdfrwt beam="2">  1       -2 0.19955848E+00 0.45626499E+04</pdfrwt>
<totfact> 0.33602999E-02</totfact>
</mgrwt>
</event>
<event>
 6    1  0.2436515E-005  0.9975854E+03  0.7818608E-02  0.9311197E-01
         -2   -1    0    0    0  501 -0.00000000000E+00  0.00000000000E+00  0.25467792196E+03  0.25467792196E+03  0.00000000000E+00 0. -1.
          2   -1    0    0  501    0  0.00000000000E+00 -0.00000000000E+00 -0.97689718068E+03  0.97689718068E+03  0.00000000000E+00 0.  1.
         23    2    1    2    0    0  0.93963600275E+01  0.40598918202E+03 -0.71308268798E+03  0.82537443250E+03  0.88546747147E+02 0.  0.
         13    1    3    3    0    0  0.35568569294E+02  0.33539408782E+03 -0.54071966728E+03  0.63728492517E+03  0.00000000000E+00 0.  1.
        -13    1    3    3    0    0 -0.26172209266E+02  0.70595094200E+02 -0.17236302070E+03  0.18808950733E+03  0.00000000000E+00 0. -1.
         22    1    1    2    0    0 -0.93963600275E+01 -0.40598918202E+03 -0.91365707477E+01  0.40620067014E+03  0.00000000000E+00 0. -1.
<mgrwt>
<rscale>  0 0.99758537E+03</rscale>
<asrwt>0</asrwt>
<pdfrwt beam="1">  1        2 0.15029187E+00 0.99758537E+03</pdfrwt>
<pdfrwt beam="2">  1       -2 0.39181219E-01 0.99758537E+03</pdfrwt>
<totfact> 0.16016770E+02</totfact>
</mgrwt>
</event>
<event>
 6    1  0.2436515E-005  0.4264887E+04  0.7818608E-02  0.7953143E-01
          2   -1    0    0  501    0  0.00000000000E+00  0.00000000000E+00  0.30593017347E+04  0.30593017347E+04  0.00000000000E+00 0.  1.
         -2   -1    0    0    0  501 -0.00000000000E+00 -0.00000000000E+00 -0.14863901237E+04  0.14863901237E+04  0.00000000000E+00 0. -1.
         23    2    1    2    0    0 -0.98021615763E+03 -0.14653691926E+04 -0.48980829614E+03  0.18322173327E+04  0.94750203987E+02 0.  0.
         13    1    3    3    0    0 -0.19275556309E+03 -0.34006845301E+03 -0.80946277692E+02  0.39919113180E+03  0.00000000000E+00 0. -1.
        -13    1    3    3    0    0 -0.78746059455E+03 -0.11253007396E+04 -0.40886201844E+03  0.14330262009E+04  0.00000000000E+00 0.  1.
         22    1    1    2    0    0  0.98021615763E+03  0.14653691926E+04  0.20627199072E+04  0.27134745257E+04  0.00000000000E+00 0.  1.
<mgrwt>
<rscale>  0 0.42648873E+04</rscale>
<asrwt>0</asrwt>
<pdfrwt beam="1">  1        2 0.47066180E+00 0.42648873E+04</pdfrwt>
<pdfrwt beam="2">  1       -2 0.22867540E+00 0.42648873E+04</pdfrwt>
<totfact> 0.10743152E-01</totfact>
</mgrwt>
</event>
<event>
 6    1  0.2436515E-005  0.1944311E+04  0.7818608E-02  0.8633109E-01
         -2   -1    0    0    0  501 -0.00000000000E+00  0.00000000000E+00  0.80671437635E+03  0.80671437635E+03  0.00000000000E+00 0. -1.
          2   -1    0    0  501    0  0.00000000000E+00 -0.00000000000E+00 -0.11715251190E+04  0.11715251190E+04  0.00000000000E+00 0.  1.
         23    2    1    2    0    0  0.11137331015E+03  0.15831301757E+03 -0.11502160104E+04  0.11693337776E+04  0.82931218976E+02 0.  0.
         13    1    3    3    0    0  0.17293184027E+02  0.90820332961E+02 -0.42563909005E+03  0.43556402753E+03  0.00000000000E+00 0.  1.
        -13    1    3    3    0    0  0.94080126124E+02  0.67492684609E+02 -0.72457692033E+03  0.73376975004E+03  0.00000000000E+00 0. -1.
         22    1    1    2    0    0 -0.11137331015E+03 -0.15831301757E+03  0.78540526771E+03  0.80890571780E+03  0.00000000000E+00 0. -1.
<mgrwt>
<rscale>  0 0.19443108E+04</rscale>
<asrwt>0</asrwt>
<pdfrwt beam="1">  1        2 0.18023463E+00 0.19443108E+04</pdfrwt>
<pdfrwt beam="2">  1       -2 0.12410990E+00 0.19443108E+04</pdfrwt>
<totfact> 0.89769765E+00</totfact>
</mgrwt>
</event>
<event>
 6    1  0.2436515E-005  0.2794034E+04  0.7818608E-02  0.8305123E-01
          2   -1    0    0  501    0  0.00000000000E+00  0.00000000000E+00  0.71497313626E+03  0.71497313626E+03  0.00000000000E+00 0.  1.
         -2   -1    0    0    0  501 -0.00000000000E+00 -0.00000000000E+00 -0.27296917244E+04  0.27296917244E+04  0.00000000000E+00 0. -1.
         23    2    1    2    0    0  0.10572819250E+04 -0.18554037424E+03 -0.21076854217E+04  0.23672080720E+04  0.95215124707E+02 0.  0.
         11    1    3    3    0    0  0.88430313336E+03 -0.11889290260E+03 -0.17504347694E+04  0.19647263005E+04  0.00000000000E+00 0.  1.
        -11    1    3    3    0    0  0.17297879160E+03 -0.66647471636E+02 -0.35725065223E+03  0.40248177144E+03  0.00000000000E+00 0. -1.
         22    1    1    2    0    0 -0.10572819250E+04  0.18554037424E+03  0.92966833545E+02  0.10774567887E+04  0.00000000000E+00 0.  1.
<mgrwt>
<rscale>  0 0.27940338E+04</rscale>
<asrwt>0</asrwt>
<pdfrwt beam="1">  1        2 0.10999587E+00 0.27940338E+04</pdfrwt>
<pdfrwt beam="2">  1       -2 0.41995257E+00 0.27940338E+04</pdfrwt>
<totfact> 0.19038048E-01</totfact>
</mgrwt>
</event>
<event>
 6    1  0.2436515E-005  0.7480499E+04  0.7818608E-02  0.7529814E-01
         -2   -1    0    0    0  501 -0.00000000000E+00  0.00000000000E+00  0.33915513003E+04  0.33915513003E+04  0.00000000000E+00 0. -1.
          2   -1    0    0  501    0  0.00000000000E+00 -0.00000000000E+00 -0.41247984877E+04  0.41247984877E+04  0.00000000000E+00 0.  1.
         23    2    1    2    0    0  0.36880534593E+04 -0.47532132208E+03  0.32408231714E+02  0.37197859602E+04  0.89936745968E+02 0.  0.
         11    1    3    3    0    0  0.86554960323E+03 -0.82781408837E+02  0.32770990107E+02  0.87011655259E+03  0.00000000000E+00 0. -1.
        -11    1    3    3    0    0  0.28225038561E+04 -0.39253991324E+03 -0.36275839248E+00  0.28496694076E+04  0.00000000000E+00 0.  1.
         22    1    1    2    0    0 -0.36880534593E+04  0.47532132208E+03 -0.76565541906E+03  0.37965638278E+04  0.00000000000E+00 0.  1.
<mgrwt>
<rscale>  0 0.74804988E+04</rscale>
<asrwt>0</asrwt>
<pdfrwt beam="1">  1        2 0.63458438E+00 0.74804988E+04</pdfrwt>
<pdfrwt beam="2">  1       -2 0.52177712E+00 0.74804988E+04</pdfrwt>
<totfact> 0.20069121E-04</totfact>
</mgrwt>
</event>
<event>
 6    1  0.2436515E-005  0.2106599E+04  0.7818608E-02  0.8558342E-01
         -2   -1    0    0    0  501 -0.00000000000E+00  0.00000000000E+00  0.51869920812E+03  0.51869920812E+03  0.00000000000E+00 0. -1.
          2   -1    0    0  501    0  0.00000000000E+00 -0.00000000000E+00 -0.21388877679E+04  0.21388877679E+04  0.00000000000E+00 0.  1.
         23    2    1    2    0    0  0.77377190965E+03 -0.14082653026E+03 -0.16919705243E+04  0.18678352870E+04  0.86540883086E+02 0.  0.
         11    1    3    3    0    0  0.58766381140E+03 -0.14037417216E+03 -0.13307984631E+04  0.14615328299E+04  0.00000000000E+00 0.  1.
        -11    1    3    3    0    0  0.18610809825E+03 -0.45235810460E+00 -0.36117206124E+03  0.40630245714E+03  0.00000000000E+00 0. -1.
         22    1    1    2    0    0 -0.77377190965E+03  0.14082653026E+03  0.71781964584E+02  0.78975168897E+03  0.00000000000E+00 0. -1.
<mgrwt>
<rscale>  0 0.21065986E+04</rscale>
<asrwt>0</asrwt>
<pdfrwt beam="1">  1        2 0.32905965E+00 0.21065986E+04</pdfrwt>
<pdfrwt beam="2">  1       -2 0.79799879E-01 0.21065986E+04</pdfrwt>
<totfact> 0.71547963E+00</totfact>
</mgrwt>
</event>
<event>
 6    1  0.2436515E-005  0.6436409E+03  0.7818608E-02  0.9818785E-01
          2   -1    0    0  501    0  0.00000000000E+00  0.00000000000E+00  0.85674420247E+02  0.85674420247E+02  0.00000000000E+00 0.  1.
         -2   -1    0    0    0  501 -0.00000000000E+00 -0.00000000000E+00 -0.12088602664E+04  0.12088602664E+04  0.00000000000E+00 0. -1.
         23    2    1    2    0    0 -0.12739673676E+03 -0.28642662437E+03 -0.50251281480E+03  0.59918933969E+03  0.90766712393E+02 0.  0.
         13    1    3    3    0    0 -0.74036257953E+01 -0.10338557828E+02  0.77646809261E+00  0.12739794173E+02  0.00000000000E+00 0.  1.
        -13    1    3    3    0    0 -0.11999311097E+03 -0.27608806654E+03 -0.50328928289E+03  0.58644954552E+03  0.00000000000E+00 0. -1.
         22    1    1    2    0    0  0.12739673676E+03  0.28642662437E+03 -0.62067303138E+03  0.69534534698E+03  0.00000000000E+00 0.  1.
<mgrwt>
<rscale>  0 0.64364090E+03</rscale>
<asrwt>0</asrwt>
<pdfrwt beam="1">  1        2 0.13180680E-01 0.64364090E+03</pdfrwt>
<pdfrwt beam="2">  1       -2 0.18597850E+00 0.64364090E+03</pdfrwt>
<totfact> 0.79148368E+01</totfact>
</mgrwt>
</event>
<event>
 6    1  0.2436515E-005  0.2839788E+04  0.7818608E-02  0.8291021E-01
         -1   -1    0    0    0  501 -0.00000000000E+00  0.00000000000E+00  0.10032317631E+04  0.10032317631E+04  0.00000000000E+00 0.  1.
          1   -1    0    0  501    0  0.00000000000E+00 -0.00000000000E+00 -0.20096041086E+04  0.20096041086E+04  0.00000000000E+00 0. -1.
         23    2    1    2    0    0 -0.67423380543E+03  0.12089697080E+03 -0.18211990463E+04  0.19483407546E+04  0.10029171507E+03 0.  0.
         13    1    3    3    0    0 -0.36795507742E+03  0.77076158961E+02 -0.86018010210E+03  0.93874463052E+03  0.00000000000E+00 0.  1.
        -13    1    3    3    0    0 -0.30627872801E+03  0.43820811837E+02 -0.96101894415E+03  0.10095961241E+04  0.00000000000E+00 0. -1.
         22    1    1    2    0    0  0.67423380543E+03 -0.12089697080E+03  0.81482670081E+03  0.10644951171E+04  0.00000000000E+00 0.  1.
<mgrwt>
<rscale>  0 0.28397878E+04</rscale>
<asrwt>0</asrwt>
<pdfrwt beam="1">  1        1 0.30916986E+00 0.28397878E+04</pdfrwt>
<pdfrwt beam="2">  1       -1 0.15434335E+00 0.28397878E+04</pdfrwt>
<totfact> 0.81766355E-01</totfact>
</mgrwt>
</event>
<event>
 6    1  0.2436515E-005  0.1366952E+04  0.7818608E-02  0.8978094E-01
         -2   -1    0    0    0  501 -0.00000000000E+00  0.00000000000E+00  0.26366020021E+03  0.26366020021E+03  0.00000000000E+00 0. -1.
          2   -1    0    0  501    0  0.00000000000E+00 -0.00000000000E+00 -0.17717492028E+04  0.17717492028E+04  0.00000000000E+00 0.  1.
         23    2    1    2    0    0 -0.22915752409E+03  0.61556468229E+03 -0.49319592418E+03  0.82650865873E+03  0.91876517072E+02 0.  0.
         13    1    3    3    0    0 -0.42958885198E+02  0.20575144524E+03 -0.19383977867E+03  0.28592478527E+03  0.00000000000E+00 0.  1.
        -13    1    3    3    0    0 -0.18619863889E+03  0.40981323705E+03 -0.29935614551E+03  0.54058387346E+03  0.00000000000E+00 0. -1.
         22    1    1    2    0    0  0.22915752409E+03 -0.61556468229E+03 -0.10148930784E+04  0.12089007443E+04  0.00000000000E+00 0. -1.
<mgrwt>
<rscale>  0 0.13669524E+04</rscale>
<asrwt>0</asrwt>
<pdfrwt beam="1">  1        2 0.27257681E+00 0.13669524E+04</pdfrwt>
<pdfrwt beam="2">  1       -2 0.40563107E-01 0.13669524E+04</pdfrwt>
<totfact> 0.50221884E+01</totfact>
</mgrwt>
</event>
<event>
 6    1  0.2436515E-005  0.3008167E+04  0.7818608E-02  0.8241403E-01
         -2   -1    0    0    0  501 -0.00000000000E+00  0.00000000000E+00  0.13410971166E+04  0.13410971166E+04  0.00000000000E+00 0. -1.
          2   -1    0    0  501    0  0.00000000000E+00 -0.00000000000E+00 -0.16868775766E+04  0.16868775766E+04  0.00000000000E+00 0.  1.
         23    2    1    2    0    0 -0.12249717339E+04 -0.41023415144E+03 -0.94574721978E+03  0.16036124076E+04  0.91033742113E+02 0.  0.
         11    1    3    3    0    0 -0.66039620937E+03 -0.23590907302E+03 -0.45967118056E+03  0.83849498408E+03  0.00000000000E+00 0. -1.
        -11    1    3    3    0    0 -0.56457552452E+03 -0.17432507842E+03 -0.48607603923E+03  0.76511742351E+03  0.00000000000E+00 0.  1.
         22    1    1    2    0    0  0.12249717339E+04  0.41023415144E+03  0.59996675978E+03  0.14243622856E+04  0.00000000000E+00 0. -1.
<mgrwt>
<rscale>  0 0.30081667E+04</rscale>
<asrwt>0</asrwt>
<pdfrwt beam="1">  1        2 0.25951963E+00 0.30081667E+04</pdfrwt>
<pdfrwt beam="2">  1       -2 0.20632263E+00 0.30081667E+04</pdfrwt>
<totfact> 0.10319688E+00</totfact>
</mgrwt>
</event>
<event>
 6    1  0.2436515E-005  0.3645462E+04  0.7818608E-02  0.8080157E-01
         -2   -1    0    0    0  501 -0.00000000000E+00  0.00000000000E+00  0.12296619948E+04  0.12296619948E+04  0.00000000000E+00 0. -1.
          2   -1    0    0  501    0  0.00000000000E+00 -0.00000000000E+00 -0.27018387491E+04  0.27018387491E+04  0.00000000000E+00 0.  1.
         23    2    1    2    0    0  0.35124672954E+03  0.17504934354E+04 -0.34703126381E+03  0.18211562442E+04  0.92616604191E+02 0.  0.
         11    1    3    3    0    0  0.91208617636E+02  0.68245486263E+03 -0.12902012571E+03  0.70050684814E+03  0.00000000000E+00 0. -1.
        -11    1    3    3    0    0  0.26003811190E+03  0.10680385728E+04 -0.21801113809E+03  0.11206493961E+04  0.00000000000E+00 0.  1.
         22    1    1    2    0    0 -0.35124672954E+03 -0.17504934354E+04 -0.11251454905E+04  0.21103444996E+04  0.00000000000E+00 0.  1.
<mgrwt>
<rscale>  0 0.36454621E+04</rscale>
<asrwt>0</asrwt>
<pdfrwt beam="1">  1        2 0.41566749E+00 0.36454621E+04</pdfrwt>
<pdfrwt beam="2">  1       -2 0.18917877E+00 0.36454621E+04</pdfrwt>
<totfact> 0.33756385E-01</totfact>
</mgrwt>
</event>
<event>
 6    1  0.2436515E-005  0.1802893E+04  0.7818608E-02  0.8704763E-01
          2   -1    0    0  501    0  0.00000000000E+00  0.00000000000E+00  0.21947939087E+04  0.21947939087E+04  0.00000000000E+00 0.  1.
         -2   -1    0    0    0  501 -0.00000000000E+00 -0.00000000000E+00 -0.37024224952E+03  0.37024224952E+03  0.00000000000E+00 0. -1.
         23    2    1    2    0    0  0.85177031545E+03 -0.14237756676E+02  0.13239400941E+04  0.15769433877E+04  0.90651482892E+02 0.  0.
         11    1    3    3    0    0  0.42756195226E+03 -0.30121270405E+02  0.73705975654E+03  0.85262746769E+03  0.00000000000E+00 0.  1.
        -11    1    3    3    0    0  0.42420836320E+03  0.15883513728E+02  0.58688033754E+03  0.72431592003E+03  0.00000000000E+00 0. -1.
         22    1    1    2    0    0 -0.85177031545E+03  0.14237756676E+02  0.50061156508E+03  0.98809277049E+03  0.00000000000E+00 0. -1.
<mgrwt>
<rscale>  0 0.18028926E+04</rscale>
<asrwt>0</asrwt>
<pdfrwt beam="1">  1        2 0.33766059E+00 0.18028926E+04</pdfrwt>
<pdfrwt beam="2">  1       -2 0.56960347E-01 0.18028926E+04</pdfrwt>
<totfact> 0.14183053E+01</totfact>
</mgrwt>
</event>
<event>
 6    1  0.2436515E-005  0.3395830E+04  0.7818608E-02  0.8138931E-01
         -2   -1    0    0    0  501 -0.00000000000E+00  0.00000000000E+00  0.20662553019E+04  0.20662553019E+04  0.00000000000E+00 0. -1.
          2   -1    0    0  501    0  0.00000000000E+00 -0.00000000000E+00 -0.13952364580E+04  0.13952364580E+04  0.00000000000E+00 0.  1.
         23    2    1    2    0    0  0.11335978227E+04  0.50009536489E+03  0.15173715644E+04  0.19610077296E+04  0.89417298372E+02 0.  0.
         11    1    3    3    0    0  0.57161580816E+03  0.20998577016E+03  0.70876210769E+03  0.93444228345E+03  0.00000000000E+00 0.  1.
        -11    1    3    3    0    0  0.56198201459E+03  0.29010959473E+03  0.80860945670E+03  0.10265654461E+04  0.00000000000E+00 0. -1.
         22    1    1    2    0    0 -0.11335978227E+04 -0.50009536489E+03 -0.84635272057E+03  0.15004840304E+04  0.00000000000E+00 0.  1.
<mgrwt>
<rscale>  0 0.33958296E+04</rscale>
<asrwt>0</asrwt>
<pdfrwt beam="1">  1        2 0.21465176E+00 0.33958296E+04</pdfrwt>
<pdfrwt beam="2">  1       -2 0.31788543E+00 0.33958296E+04</pdfrwt>
<totfact> 0.29771086E-01</totfact>
</mgrwt>
</event>
<event>
 6    1  0.2436515E-005  0.4512666E+04  0.7818608E-02  0.7908423E-01
         -2   -1    0    0    0  501 -0.00000000000E+00  0.00000000000E+00  0.13306152202E+04  0.13306152202E+04  0.00000000000E+00 0. -1.
          2   -1    0    0  501    0  0.00000000000E+00 -0.00000000000E+00 -0.38260790741E+04  0.38260790741E+04  0.00000000000E+00 0.  1.
         23    2    1    2    0    0 -0.48869965778E+03 -0.29499796586E+03 -0.37416270666E+04  0.37860105569E+04  0.90838737050E+02 0.  0.
         13    1    3    3    0    0 -0.46152365861E+03 -0.25529796677E+03 -0.35133703723E+04  0.35527387341E+04  0.00000000000E+00 0.  1.
        -13    1    3    3    0    0 -0.27175999175E+02 -0.39699999094E+02 -0.22825669424E+03  0.23327182282E+03  0.00000000000E+00 0. -1.
         22    1    1    2    0    0  0.48869965778E+03  0.29499796586E+03  0.12461632127E+04  0.13706837374E+04  0.00000000000E+00 0. -1.
<mgrwt>
<rscale>  0 0.45126662E+04</rscale>
<asrwt>0</asrwt>
<pdfrwt beam="1">  1        2 0.58862753E+00 0.45126662E+04</pdfrwt>
<pdfrwt beam="2">  1       -2 0.20471004E+00 0.45126662E+04</pdfrwt>
<totfact> 0.43848182E-02</totfact>
</mgrwt>
</event>
<event>
 6    1  0.2436515E-005  0.4462688E+04  0.7818608E-02  0.7917202E-01
          2   -1    0    0  501    0  0.00000000000E+00  0.00000000000E+00  0.34770212868E+04  0.34770212868E+04  0.00000000000E+00 0.  1.
         -2   -1    0    0    0  501 -0.00000000000E+00 -0.00000000000E+00 -0.14319426578E+04  0.14319426578E+04  0.00000000000E+00 0. -1.
         23    2    1    2    0    0  0.15376260505E+04 -0.10992378608E+04 -0.27927035289E+03  0.19130974697E+04  0.96603585713E+02 0.  0.
         11    1    3    3    0    0  0.70553622350E+03 -0.47192946338E+03 -0.84810198150E+02  0.85304838713E+03  0.00000000000E+00 0.  1.
        -11    1    3    3    0    0  0.83208982701E+03 -0.62730839744E+03 -0.19446015474E+03  0.10600490826E+04  0.00000000000E+00 0. -1.
         22    1    1    2    0    0 -0.15376260505E+04  0.10992378608E+04  0.23243489819E+04  0.29958664749E+04  0.00000000000E+00 0.  1.
<mgrwt>
<rscale>  0 0.44626876E+04</rscale>
<asrwt>0</asrwt>
<pdfrwt beam="1">  1        2 0.53492635E+00 0.44626876E+04</pdfrwt>
<pdfrwt beam="2">  1       -2 0.22029887E+00 0.44626876E+04</pdfrwt>
<totfact> 0.62975038E-02</totfact>
</mgrwt>
</event>
<event>
 6    1  0.2436515E-005  0.1747228E+04  0.7818608E-02  0.8734877E-01
         -2   -1    0    0    0  501 -0.00000000000E+00  0.00000000000E+00  0.50968613061E+03  0.50968613061E+03  0.00000000000E+00 0. -1.
          2   -1    0    0  501    0  0.00000000000E+00 -0.00000000000E+00 -0.14973957535E+04  0.14973957535E+04  0.00000000000E+00 0.  1.
         23    2    1    2    0    0  0.15241850799E+03 -0.51418304827E+03 -0.12843338930E+04  0.13942184684E+04  0.81951083968E+02 0.  0.
         11    1    3    3    0    0  0.33405736715E+02 -0.25521340269E+03 -0.59451880291E+03  0.64784444983E+03  0.00000000000E+00 0. -1.
        -11    1    3    3    0    0  0.11901277128E+03 -0.25896964558E+03 -0.68981509007E+03  0.74637401854E+03  0.00000000000E+00 0.  1.
         22    1    1    2    0    0 -0.15241850799E+03  0.51418304827E+03  0.29662427011E+03  0.61286341572E+03  0.00000000000E+00 0. -1.
<mgrwt>
<rscale>  0 0.17472285E+04</rscale>
<asrwt>0</asrwt>
<pdfrwt beam="1">  1        2 0.23036858E+00 0.17472285E+04</pdfrwt>
<pdfrwt beam="2">  1       -2 0.78413251E-01 0.17472285E+04</pdfrwt>
<totfact> 0.17459094E+01</totfact>
</mgrwt>
</event>
<event>
 6    1  0.2436515E-005  0.3568303E+04  0.7818608E-02  0.8097791E-01
         -2   -1    0    0    0  501 -0.00000000000E+00  0.00000000000E+00  0.12249431017E+04  0.12249431017E+04  0.00000000000E+00 0. -1.
          2   -1    0    0  501    0  0.00000000000E+00 -0.00000000000E+00 -0.25986480870E+04  0.25986480870E+04  0.00000000000E+00 0.  1.
         23    2    1    2    0    0 -0.34879279583E+03  0.87907482743E+03 -0.23066517455E+04  0.24951264267E+04  0.10288169721E+03 0.  0.
         11    1    3    3    0    0 -0.24583128966E+03  0.69981186507E+03 -0.17200520964E+04  0.18731654715E+04  0.00000000000E+00 0. -1.
        -11    1    3    3    0    0 -0.10296150617E+03  0.17926296237E+03 -0.58659964910E+03  0.62196095517E+03  0.00000000000E+00 0.  1.
         22    1    1    2    0    0  0.34879279583E+03 -0.87907482743E+03  0.93294676012E+03  0.13284647620E+04  0.00000000000E+00 0. -1.
<mgrwt>
<rscale>  0 0.35683027E+04</rscale>
<asrwt>0</asrwt>
<pdfrwt beam="1">  1        2 0.39979201E+00 0.35683027E+04</pdfrwt>
<pdfrwt beam="2">  1       -2 0.18845279E+00 0.35683027E+04</pdfrwt>
<totfact> 0.39545591E-01</totfact>
</mgrwt>
</event>
<event>
 6    1  0.2436515E-005  0.3769839E+04  0.7818608E-02  0.8052659E-01
         -2   -1    0    0    0  501 -0.00000000000E+00  0.00000000000E+00  0.14212972478E+04  0.14212972478E+04  0.00000000000E+00 0. -1.
          2   -1    0    0  501    0  0.00000000000E+00 -0.00000000000E+00 -0.24997731588E+04  0.24997731588E+04  0.00000000000E+00 0.  1.
         23    2    1    2    0    0  0.81122050269E+03 -0.13774646640E+04  0.49708272953E+03  0.16765498265E+04  0.90777068444E+02 0.  0.
         13    1    3    3    0    0  0.27428432993E+03 -0.42835150858E+03  0.11877604094E+03  0.52232619736E+03  0.00000000000E+00 0. -1.
        -13    1    3    3    0    0  0.53693617276E+03 -0.94911315544E+03  0.37830668859E+03  0.11542236291E+04  0.00000000000E+00 0.  1.
         22    1    1    2    0    0 -0.81122050269E+03  0.13774646640E+04 -0.15755586405E+04  0.22445205800E+04  0.00000000000E+00 0.  1.
<mgrwt>
<rscale>  0 0.37698386E+04</rscale>
<asrwt>0</asrwt>
<pdfrwt beam="1">  1        2 0.38458048E+00 0.37698386E+04</pdfrwt>
<pdfrwt beam="2">  1       -2 0.21866112E+00 0.37698386E+04</pdfrwt>
<totfact> 0.28208887E-01</totfact>
</mgrwt>
</event>
<event>
 6    1  0.2436515E-005  0.9491614E+03  0.7818608E-02  0.9366131E-01
          2   -1    0    0  501    0  0.00000000000E+00  0.00000000000E+00  0.16985322856E+04  0.16985322856E+04  0.00000000000E+00 0.  1.
         -2   -1    0    0    0  501 -0.00000000000E+00 -0.00000000000E+00 -0.13260086029E+03  0.13260086029E+03  0.00000000000E+00 0. -1.
         23    2    1    2    0    0  0.35357075474E+03  0.15650687122E+03  0.13066206030E+04  0.13655702802E+04  0.89543903613E+02 0.  0.
         13    1    3    3    0    0  0.58624255069E+02 -0.56591435435E+01  0.23891508480E+03  0.24606756579E+03  0.00000000000E+00 0.  1.
        -13    1    3    3    0    0  0.29494649967E+03  0.16216601476E+03  0.10677055182E+04  0.11195027144E+04  0.00000000000E+00 0. -1.
         22    1    1    2    0    0 -0.35357075474E+03 -0.15650687122E+03  0.25931082237E+03  0.46556286573E+03  0.00000000000E+00 0. -1.
<mgrwt>
<rscale>  0 0.94916140E+03</rscale>
<asrwt>0</asrwt>
<pdfrwt beam="1">  1        2 0.26131264E+00 0.94916140E+03</pdfrwt>
<pdfrwt beam="2">  1       -2 0.20400134E-01 0.94916140E+03</pdfrwt>
<totfact> 0.20318627E+02</totfact>
</mgrwt>
</event>
<event>
 6    1  0.2436515E-005  0.8646597E+03  0.7818608E-02  0.9470870E-01
         -2   -1    0    0    0  501 -0.00000000000E+00  0.00000000000E+00  0.70460073266E+02  0.70460073266E+02  0.00000000000E+00 0.  1.
          2   -1    0    0  501    0  0.00000000000E+00 -0.00000000000E+00 -0.26526949444E+04  0.26526949444E+04  0.00000000000E+00 0. -1.
         23    2    1    2    0    0 -0.17849411548E+02  0.33086686497E+03 -0.21561292374E+04  0.21833796061E+04  0.91987673599E+02 0.  0.
         11    1    3    3    0    0 -0.21119773679E+02  0.14904015472E+03 -0.70440605779E+03  0.72031028509E+03  0.00000000000E+00 0.  1.
        -11    1    3    3    0    0  0.32703621307E+01  0.18182671025E+03 -0.14517231797E+04  0.14630693210E+04  0.00000000000E+00 0. -1.
         22    1    1    2    0    0  0.17849411548E+02 -0.33086686497E+03 -0.42610563366E+03  0.53977541150E+03  0.00000000000E+00 0.  1.
<mgrwt>
<rscale>  0 0.86465966E+03</rscale>
<asrwt>0</asrwt>
<pdfrwt beam="1">  1        2 0.40810684E+00 0.86465966E+03</pdfrwt>
<pdfrwt beam="2">  1       -2 0.10840013E-01 0.86465966E+03</pdfrwt>
<totfact> 0.17570849E+02</totfact>
</mgrwt>
</event>
<event>
 6    1  0.2436515E-005  0.1096762E+04  0.7818608E-02  0.9208353E-01
         -2   -1    0    0    0  501 -0.00000000000E+00  0.00000000000E+00  0.11586534556E+03  0.11586534556E+03  0.00000000000E+00 0. -1.
          2   -1    0    0  501    0  0.00000000000E+00 -0.00000000000E+00 -0.25954436893E+04  0.25954436893E+04  0.00000000000E+00 0.  1.
         23    2    1    2    0    0  0.17370498660E+02  0.48358907550E+03 -0.18652054072E+04  0.19292513431E+04  0.94124414679E+02 0.  0.
         13    1    3    3    0    0 -0.91078009473E+00  0.30865126384E+03 -0.10084329109E+04  0.10546105291E+04  0.00000000000E+00 0.  1.
        -13    1    3    3    0    0  0.18281278755E+02  0.17493781166E+03 -0.85677249630E+03  0.87464081400E+03  0.00000000000E+00 0. -1.
         22    1    1    2    0    0 -0.17370498660E+02 -0.48358907550E+03 -0.61437293650E+03  0.78205769178E+03  0.00000000000E+00 0.  1.
<mgrwt>
<rscale>  0 0.10967625E+04</rscale>
<asrwt>0</asrwt>
<pdfrwt beam="1">  1        2 0.39929899E+00 0.10967625E+04</pdfrwt>
<pdfrwt beam="2">  1       -2 0.17825440E-01 0.10967625E+04</pdfrwt>
<totfact> 0.80299488E+01</totfact>
</mgrwt>
</event>
<event>
 6    1  0.2436515E-005  0.1381137E+04  0.7818608E-02  0.8967587E-01
         -2   -1    0    0    0  501 -0.00000000000E+00  0.00000000000E+00  0.62327917174E+03  0.62327917174E+03  0.00000000000E+00 0. -1.
          2   -1    0    0  501    0  0.00000000000E+00 -0.00000000000E+00 -0.76512282226E+03  0.76512282226E+03  0.00000000000E+00 0.  1.
         23    2    1    2    0    0  0.39991004189E+03  0.27218236095E+03  0.41970838581E+03  0.64721917666E+03  0.93414422330E+02 0.  0.
         11    1    3    3    0    0  0.50575812538E+02  0.45634273142E+02  0.10558373502E+03  0.12565160086E+03  0.00000000000E+00 0. -1.
        -11    1    3    3    0    0  0.34933422935E+03  0.22654808781E+03  0.31412465079E+03  0.52156757580E+03  0.00000000000E+00 0.  1.
         22    1    1    2    0    0 -0.39991004189E+03 -0.27218236095E+03 -0.56155203633E+03  0.74118281734E+03  0.00000000000E+00 0.  1.
<mgrwt>
<rscale>  0 0.13811374E+04</rscale>
<asrwt>0</asrwt>
<pdfrwt beam="1">  1        2 0.11771120E+00 0.13811374E+04</pdfrwt>
<pdfrwt beam="2">  1       -2 0.95889104E-01 0.13811374E+04</pdfrwt>
<totfact> 0.32480764E+01</totfact>
</mgrwt>
</event>
<event>
 6    1  0.2436515E-005  0.5457643E+04  0.7818608E-02  0.7761545E-01
          2   -1    0    0  501    0  0.00000000000E+00  0.00000000000E+00  0.38537967337E+04  0.38537967337E+04  0.00000000000E+00 0.  1.
         -2   -1    0    0    0  501 -0.00000000000E+00 -0.00000000000E+00 -0.19322413696E+04  0.19322413696E+04  0.00000000000E+00 0. -1.
         23    2    1    2    0    0 -0.15941140915E+04  0.14035118678E+04  0.27761085607E+04  0.34966481266E+04  0.93402787851E+02 0.  0.
         13    1    3    3    0    0 -0.78214951622E+03  0.67413924071E+03  0.12749822038E+04  0.16406709608E+04  0.00000000000E+00 0.  1.
        -13    1    3    3    0    0 -0.81196457524E+03  0.72937262704E+03  0.15011263569E+04  0.18559771658E+04  0.00000000000E+00 0. -1.
         22    1    1    2    0    0  0.15941140915E+04 -0.14035118678E+04 -0.85455319663E+03  0.22893899767E+04  0.00000000000E+00 0. -1.
<mgrwt>
<rscale>  0 0.54576425E+04</rscale>
<asrwt>0</asrwt>
<pdfrwt beam="1">  1        2 0.59289181E+00 0.54576425E+04</pdfrwt>
<pdfrwt beam="2">  1       -2 0.29726790E+00 0.54576425E+04</pdfrwt>
<totfact> 0.10316408E-02</totfact>
</mgrwt>
</event>
<event>
 6    1  0.2436515E-005  0.1768127E+04  0.7818608E-02  0.8723435E-01
         -2   -1    0    0    0  501 -0.00000000000E+00  0.00000000000E+00  0.27371886233E+03  0.27371886233E+03  0.00000000000E+00 0. -1.
          2   -1    0    0  501    0  0.00000000000E+00 -0.00000000000E+00 -0.28553691064E+04  0.28553691064E+04  0.00000000000E+00 0.  1.
         23    2    1    2    0    0 -0.51192063476E+03  0.18339653092E+03 -0.25225337986E+04  0.25821037112E+04  0.91573940947E+02 0.  0.
         13    1    3    3    0    0 -0.49391011785E+03  0.16612508365E+03 -0.24635361710E+04  0.25180459118E+04  0.00000000000E+00 0.  1.
        -13    1    3    3    0    0 -0.18010516910E+02  0.17271447274E+02 -0.58997627525E+02  0.64057799399E+02  0.00000000000E+00 0. -1.
         22    1    1    2    0    0  0.51192063476E+03 -0.18339653092E+03 -0.59116445496E+02  0.54698425752E+03  0.00000000000E+00 0. -1.
<mgrwt>
<rscale>  0 0.17681271E+04</rscale>
<asrwt>0</asrwt>
<pdfrwt beam="1">  1        2 0.43928755E+00 0.17681271E+04</pdfrwt>
<pdfrwt beam="2">  1       -2 0.42110595E-01 0.17681271E+04</pdfrwt>
<totfact> 0.10858665E+01</totfact>
</mgrwt>
</event>
<event>
 6    1  0.2436515E-005  0.2321626E+04  0.7818608E-02  0.8469443E-01
          1   -1    0    0  501    0  0.00000000000E+00  0.00000000000E+00  0.10925575584E+04  0.10925575584E+04  0.00000000000E+00 0.  1.
         -1   -1    0    0    0  501 -0.00000000000E+00 -0.00000000000E+00 -0.12333325890E+04  0.12333325890E+04  0.00000000000E+00 0. -1.
         23    2    1    2    0    0  0.74103288760E+03  0.22225756396E+03  0.79403652782E+03  0.11124649066E+04  0.92498625028E+02 0.  0.
         11    1    3    3    0    0  0.13293791531E+03  0.46886357254E+02  0.19836779336E+03  0.24335283287E+03  0.00000000000E+00 0.  1.
        -11    1    3    3    0    0  0.60809497229E+03  0.17537120671E+03  0.59566873446E+03  0.86911207372E+03  0.00000000000E+00 0. -1.
         22    1    1    2    0    0 -0.74103288760E+03 -0.22225756396E+03 -0.93481155845E+03  0.12134252408E+04  0.00000000000E+00 0. -1.
<mgrwt>
<rscale>  0 0.23216260E+04</rscale>
<asrwt>0</asrwt>
<pdfrwt beam="1">  1        1 0.16808578E+00 0.23216260E+04</pdfrwt>
<pdfrwt beam="2">  1       -1 0.18974348E+00 0.23216260E+04</pdfrwt>
<totfact> 0.20560990E+00</totfact>
</mgrwt>
</event>
<event>
 6    1  0.2436515E-005  0.1536881E+04  0.7818608E-02  0.8860291E-01
          2   -1    0    0  501    0  0.00000000000E+00  0.00000000000E+00  0.19578277333E+04  0.19578277333E+04  0.00000000000E+00 0.  1.
         -2   -1    0    0    0  501 -0.00000000000E+00 -0.00000000000E+00 -0.30161033129E+03  0.30161033129E+03  0.00000000000E+00 0. -1.
         23    2    1    2    0    0 -0.64297188441E+03  0.36362787415E+03  0.11276261441E+04  0.13511172001E+04  0.91317536300E+02 0.  0.
         13    1    3    3    0    0 -0.43669438107E+03  0.23755721446E+03  0.83227062551E+03  0.96943788181E+03  0.00000000000E+00 0.  1.
        -13    1    3    3    0    0 -0.20627750334E+03  0.12607065968E+03  0.29535551861E+03  0.38167931826E+03  0.00000000000E+00 0. -1.
         22    1    1    2    0    0  0.64297188441E+03 -0.36362787415E+03  0.52859125788E+03  0.90832086451E+03  0.00000000000E+00 0.  1.
<mgrwt>
<rscale>  0 0.15368814E+04</rscale>
<asrwt>0</asrwt>
<pdfrwt beam="1">  1        2 0.30120426E+00 0.15368814E+04</pdfrwt>
<pdfrwt beam="2">  1       -2 0.46401591E-01 0.15368814E+04</pdfrwt>
<totfact> 0.29926271E+01</totfact>
</mgrwt>
</event>
<event>
 6    1  0.2436515E-005  0.2063454E+04  0.7818608E-02  0.8577515E-01
          2   -1    0    0  501    0  0.00000000000E+00  0.00000000000E+00  0.25303424307E+04  0.25303424307E+04  0.00000000000E+00 0.  1.
         -2   -1    0    0    0  501 -0.00000000000E+00 -0.00000000000E+00 -0.42067833932E+03  0.42067833932E+03  0.00000000000E+00 0. -1.
         23    2    1    2    0    0  0.42753953014E+03  0.44078402948E+03 -0.12543579664E+03  0.63310098712E+03  0.89454515455E+02 0.  0.
         13    1    3    3    0    0  0.21347687304E+03  0.15893338755E+03 -0.41496919446E+02  0.26935885232E+03  0.00000000000E+00 0. -1.
        -13    1    3    3    0    0  0.21406265710E+03  0.28185064193E+03 -0.83938877197E+02  0.36374213479E+03  0.00000000000E+00 0.  1.
         22    1    1    2    0    0 -0.42753953014E+03 -0.44078402948E+03  0.22350998880E+04  0.23179197829E+04  0.00000000000E+00 0.  1.
<mgrwt>
<rscale>  0 0.20634537E+04</rscale>
<asrwt>0</asrwt>
<pdfrwt beam="1">  1        2 0.38928344E+00 0.20634537E+04</pdfrwt>
<pdfrwt beam="2">  1       -2 0.64719746E-01 0.20634537E+04</pdfrwt>
<totfact> 0.68110247E+00</totfact>
</mgrwt>
</event>
<event>
 6    1  0.2689940E-005  0.3894322E+04  0.7818608E-02  0.8026211E-01
          2   -1    0    0  501    0  0.00000000000E+00  0.00000000000E+00  0.25103260115E+04  0.25103260115E+04  0.00000000000E+00 0.  1.
         -2   -1    0    0    0  501 -0.00000000000E+00 -0.00000000000E+00 -0.15103357299E+04  0.15103357299E+04  0.00000000000E+00 0. -1.
         23    2    1    2    0    0  0.11690257099E+04 -0.24885592336E+03  0.20858297213E+04  0.24058559730E+04  0.94376667912E+02 0.  0.
         11    1    3    3    0    0  0.57114586950E+03 -0.16976094995E+03  0.10316474478E+04  0.11913533652E+04  0.00000000000E+00 0.  1.
        -11    1    3    3    0    0  0.59787984042E+03 -0.79094973412E+02  0.10541822735E+04  0.12145026078E+04  0.00000000000E+00 0. -1.
         22    1    1    2    0    0 -0.11690257099E+04  0.24885592336E+03 -0.10858394397E+04  0.16148057685E+04  0.00000000000E+00 0. -1.
<mgrwt>
<rscale>  0 0.38943215E+04</rscale>
<asrwt>0</asrwt>
<pdfrwt beam="1">  1        2 0.38620400E+00 0.38943215E+04</pdfrwt>
<pdfrwt beam="2">  1       -2 0.23235934E+00 0.38943215E+04</pdfrwt>
<totfact> 0.22575546E-01</totfact>
</mgrwt>
</event>
<event>
 6    1  0.2436515E-005  0.1097260E+04  0.7818608E-02  0.9207867E-01
         -2   -1    0    0    0  501 -0.00000000000E+00  0.00000000000E+00  0.32057691675E+03  0.32057691675E+03  0.00000000000E+00 0.  1.
          2   -1    0    0  501    0  0.00000000000E+00 -0.00000000000E+00 -0.93891577389E+03  0.93891577389E+03  0.00000000000E+00 0. -1.
         23    2    1    2    0    0 -0.23266431221E+03  0.48475614306E+03 -0.21531411917E+03  0.58751788469E+03  0.98467733294E+02 0.  0.
         11    1    3    3    0    0 -0.14633708502E+02  0.11072317488E+03 -0.24235227890E+02  0.11428522718E+03  0.00000000000E+00 0.  1.
        -11    1    3    3    0    0 -0.21803060371E+03  0.37403296818E+03 -0.19107889128E+03  0.47323265751E+03  0.00000000000E+00 0. -1.
         22    1    1    2    0    0  0.23266431221E+03 -0.48475614306E+03 -0.40302473797E+03  0.67197480595E+03  0.00000000000E+00 0. -1.
<mgrwt>
<rscale>  0 0.10972597E+04</rscale>
<asrwt>0</asrwt>
<pdfrwt beam="1">  1        2 0.14444858E+00 0.10972597E+04</pdfrwt>
<pdfrwt beam="2">  1       -2 0.49319526E-01 0.10972597E+04</pdfrwt>
<totfact> 0.10668486E+02</totfact>
</mgrwt>
</event>
<event>
 6    1  0.2436515E-005  0.1669335E+04  0.7818608E-02  0.8779049E-01
         -2   -1    0    0    0  501 -0.00000000000E+00  0.00000000000E+00  0.24641365653E+04  0.24641365653E+04  0.00000000000E+00 0. -1.
          2   -1    0    0  501    0  0.00000000000E+00 -0.00000000000E+00 -0.28272387467E+03  0.28272387467E+03  0.00000000000E+00 0.  1.
         23    2    1    2    0    0 -0.53635308471E+02  0.47279167355E+03 -0.29527095578E+02  0.48529826945E+03  0.90740553560E+02 0.  0.
         13    1    3    3    0    0  0.35069479318E+01  0.24748752660E+03 -0.48015284926E+02  0.25212663900E+03  0.00000000000E+00 0.  1.
        -13    1    3    3    0    0 -0.57142256403E+02  0.22530414696E+03  0.18488189348E+02  0.23317163045E+03  0.00000000000E+00 0. -1.
         22    1    1    2    0    0  0.53635308471E+02 -0.47279167355E+03  0.22109397862E+04  0.22615621705E+04  0.00000000000E+00 0. -1.
<mgrwt>
<rscale>  0 0.16693355E+04</rscale>
<asrwt>0</asrwt>
<pdfrwt beam="1">  1        2 0.43495982E-01 0.16693355E+04</pdfrwt>
<pdfrwt beam="2">  1       -2 0.37909792E+00 0.16693355E+04</pdfrwt>
<totfact> 0.11422718E+00</totfact>
</mgrwt>
</event>
<event>
 6    1  0.2436515E-005  0.1905675E+04  0.7818608E-02  0.8652037E-01
          2   -1    0    0  501    0  0.00000000000E+00  0.00000000000E+00  0.30990943886E+04  0.30990943886E+04  0.00000000000E+00 0.  1.
         -2   -1    0    0    0  501 -0.00000000000E+00 -0.00000000000E+00 -0.29295644629E+03  0.29295644629E+03  0.00000000000E+00 0. -1.
         23    2    1    2    0    0  0.16466316657E+03 -0.27876603552E+03  0.29972071320E+04  0.30161094881E+04  0.94028672206E+02 0.  0.
         11    1    3    3    0    0  0.10690530418E+03 -0.19232315235E+03  0.16029897035E+04  0.16180213004E+04  0.00000000000E+00 0. -1.
        -11    1    3    3    0    0  0.57757862382E+02 -0.86442883174E+02  0.13942174285E+04  0.13980881877E+04  0.00000000000E+00 0.  1.
         22    1    1    2    0    0 -0.16466316657E+03  0.27876603552E+03 -0.19106918968E+03  0.37594134679E+03  0.00000000000E+00 0. -1.
<mgrwt>
<rscale>  0 0.19056754E+04</rscale>
<asrwt>0</asrwt>
<pdfrwt beam="1">  1        2 0.47678373E+00 0.19056754E+04</pdfrwt>
<pdfrwt beam="2">  1       -2 0.45070225E-01 0.19056754E+04</pdfrwt>
<totfact> 0.66096347E+00</totfact>
</mgrwt>
</event>
<event>
 6    1  0.2436515E-005  0.3483101E+04  0.7818608E-02  0.8117806E-01
         -2   -1    0    0    0  501 -0.00000000000E+00  0.00000000000E+00  0.14530885819E+04  0.14530885819E+04  0.00000000000E+00 0.  1.
          2   -1    0    0  501    0  0.00000000000E+00 -0.00000000000E+00 -0.20872774250E+04  0.20872774250E+04  0.00000000000E+00 0. -1.
         23    2    1    2    0    0  0.13238195426E+04  0.55532596842E+03 -0.13173875364E+04  0.19505089168E+04  0.89944431690E+02 0.  0.
         11    1    3    3    0    0  0.47656289356E+03  0.17318743000E+03 -0.41775789974E+03  0.65698382037E+03  0.00000000000E+00 0.  1.
        -11    1    3    3    0    0  0.84725664907E+03  0.38213853842E+03 -0.89962963664E+03  0.12935250964E+04  0.00000000000E+00 0. -1.
         22    1    1    2    0    0 -0.13238195426E+04 -0.55532596842E+03  0.68319869329E+03  0.15898570902E+04  0.00000000000E+00 0.  1.
<mgrwt>
<rscale>  0 0.34831015E+04</rscale>
<asrwt>0</asrwt>
<pdfrwt beam="1">  1        2 0.32111960E+00 0.34831015E+04</pdfrwt>
<pdfrwt beam="2">  1       -2 0.22355209E+00 0.34831015E+04</pdfrwt>
<totfact> 0.46129767E-01</totfact>
</mgrwt>
</event>
<event>
 6    1  0.2436515E-005  0.2498903E+04  0.7818608E-02  0.8403377E-01
         -2   -1    0    0    0  501 -0.00000000000E+00  0.00000000000E+00  0.30856536908E+04  0.30856536908E+04  0.00000000000E+00 0. -1.
          2   -1    0    0  501    0  0.00000000000E+00 -0.00000000000E+00 -0.50593120409E+03  0.50593120409E+03  0.00000000000E+00 0.  1.
         23    2    1    2    0    0 -0.77181735235E+03 -0.18432966057E+03  0.26756331514E+04  0.27922862619E+04  0.90390035301E+02 0.  0.
         13    1    3    3    0    0 -0.47103527920E+03 -0.10364635193E+03  0.17736893199E+04  0.18380942859E+04  0.00000000000E+00 0. -1.
        -13    1    3    3    0    0 -0.30078207315E+03 -0.80683308638E+02  0.90194383147E+03  0.95419197594E+03  0.00000000000E+00 0.  1.
         22    1    1    2    0    0  0.77181735235E+03  0.18432966057E+03 -0.95910664641E+02  0.79929863301E+03  0.00000000000E+00 0.  1.
<mgrwt>
<rscale>  0 0.24989025E+04</rscale>
<asrwt>0</asrwt>
<pdfrwt beam="1">  1        2 0.77835572E-01 0.24989025E+04</pdfrwt>
<pdfrwt beam="2">  1       -2 0.47471594E+00 0.24989025E+04</pdfrwt>
<totfact> 0.12915607E-01</totfact>
</mgrwt>
</event>
<event>
 6    1  0.2436515E-005  0.4104410E+04  0.7818608E-02  0.7983809E-01
         -2   -1    0    0    0  501 -0.00000000000E+00  0.00000000000E+00  0.16949955577E+04  0.16949955577E+04  0.00000000000E+00 0. -1.
          2   -1    0    0  501    0  0.00000000000E+00 -0.00000000000E+00 -0.24846941895E+04  0.24846941895E+04  0.00000000000E+00 0.  1.
         23    2    1    2    0    0  0.10310082085E+04 -0.11156266929E+04  0.10084024893E+04  0.18258060444E+04  0.95348242247E+02 0.  0.
         13    1    3    3    0    0  0.50244983438E+03 -0.50649769589E+03  0.52181210364E+03  0.88390249661E+03  0.00000000000E+00 0. -1.
        -13    1    3    3    0    0  0.52855837417E+03 -0.60912899704E+03  0.48659038569E+03  0.94190354781E+03  0.00000000000E+00 0.  1.
         22    1    1    2    0    0 -0.10310082085E+04  0.11156266929E+04 -0.17981011212E+04  0.23538837027E+04  0.00000000000E+00 0. -1.
<mgrwt>
<rscale>  0 0.41044101E+04</rscale>
<asrwt>0</asrwt>
<pdfrwt beam="1">  1        2 0.38226065E+00 0.41044101E+04</pdfrwt>
<pdfrwt beam="2">  1       -2 0.26076855E+00 0.41044101E+04</pdfrwt>
<totfact> 0.15340132E-01</totfact>
</mgrwt>
</event>
<event>
 6    1  0.2436515E-005  0.3339945E+04  0.7818608E-02  0.8152805E-01
         -2   -1    0    0    0  501 -0.00000000000E+00  0.00000000000E+00  0.34420792245E+04  0.34420792245E+04  0.00000000000E+00 0. -1.
          2   -1    0    0  501    0  0.00000000000E+00 -0.00000000000E+00 -0.81021044542E+03  0.81021044542E+03  0.00000000000E+00 0.  1.
         23    2    1    2    0    0 -0.15724404006E+04  0.25000138576E+03  0.68115485718E+03  0.17342836510E+04  0.93264872134E+02 0.  0.
         11    1    3    3    0    0 -0.10563027541E+04  0.15286766162E+03  0.50101915102E+03  0.11790522550E+04  0.00000000000E+00 0.  1.
        -11    1    3    3    0    0 -0.51613764650E+03  0.97133724140E+02  0.18013570616E+03  0.55523139603E+03  0.00000000000E+00 0. -1.
         22    1    1    2    0    0  0.15724404006E+04 -0.25000138576E+03  0.19507139219E+04  0.25180060189E+04  0.00000000000E+00 0. -1.
<mgrwt>
<rscale>  0 0.33399452E+04</rscale>
<asrwt>0</asrwt>
<pdfrwt beam="1">  1        2 0.12464776E+00 0.33399452E+04</pdfrwt>
<pdfrwt beam="2">  1       -2 0.52955064E+00 0.33399452E+04</pdfrwt>
<totfact> 0.30932004E-02</totfact>
</mgrwt>
</event>
<event>
 6    1  0.2436515E-005  0.1425450E+03  0.7818608E-02  0.1209945E+00
         -2   -1    0    0    0  501 -0.00000000000E+00  0.00000000000E+00  0.13876021896E+03  0.13876021896E+03  0.00000000000E+00 0. -1.
          2   -1    0    0  501    0  0.00000000000E+00 -0.00000000000E+00 -0.36608242463E+02  0.36608242463E+02  0.00000000000E+00 0.  1.
         23    2    1    2    0    0 -0.34672649818E+02 -0.89173077560E+01  0.10018330001E+03  0.13951338214E+03  0.90252862411E+02 0.  0.
         13    1    3    3    0    0  0.17336921420E+02 -0.32871303902E+02  0.24112464038E+02  0.44300139803E+02  0.00000000000E+00 0. -1.
        -13    1    3    3    0    0 -0.52009571238E+02  0.23953996146E+02  0.76070835969E+02  0.95213242339E+02  0.00000000000E+00 0.  1.
         22    1    1    2    0    0  0.34672649818E+02  0.89173077560E+01  0.19686764889E+01  0.35855079280E+02  0.00000000000E+00 0. -1.
<mgrwt>
<rscale>  0 0.14254498E+03</rscale>
<asrwt>0</asrwt>
<pdfrwt beam="1">  1        2 0.56320374E-02 0.14254498E+03</pdfrwt>
<pdfrwt beam="2">  1       -2 0.21347726E-01 0.14254498E+03</pdfrwt>
<totfact> 0.23359577E+04</totfact>
</mgrwt>
</event>
<event>
 6    1  0.3209531E-005  0.5375827E+04  0.7818608E-02  0.7773010E-01
          2   -1    0    0  501    0  0.00000000000E+00  0.00000000000E+00  0.30665189193E+04  0.30665189193E+04  0.00000000000E+00 0.  1.
         -2   -1    0    0    0  501 -0.00000000000E+00 -0.00000000000E+00 -0.23560523884E+04  0.23560523884E+04  0.00000000000E+00 0. -1.
         23    2    1    2    0    0  0.25937438312E+04 -0.66451468993E+03  0.12663099182E+03  0.26821423684E+04  0.93623933809E+02 0.  0.
         13    1    3    3    0    0  0.16082605974E+04 -0.42138321027E+03  0.34047093677E+02  0.16628966184E+04  0.00000000000E+00 0. -1.
        -13    1    3    3    0    0  0.98548323383E+03 -0.24313147967E+03  0.92583898143E+02  0.10192457499E+04  0.00000000000E+00 0.  1.
         22    1    1    2    0    0 -0.25937438312E+04  0.66451468993E+03  0.58383553906E+03  0.27404289394E+04  0.00000000000E+00 0.  1.
<mgrwt>
<rscale>  0 0.53758271E+04</rscale>
<asrwt>0</asrwt>
<pdfrwt beam="1">  1        2 0.47177214E+00 0.53758271E+04</pdfrwt>
<pdfrwt beam="2">  1       -2 0.36246960E+00 0.53758271E+04</pdfrwt>
<totfact> 0.14482244E-02</totfact>
</mgrwt>
</event>
<event>
 6    1  0.2436515E-005  0.2252049E+04  0.7818608E-02  0.8497071E-01
          2   -1    0    0  501    0  0.00000000000E+00  0.00000000000E+00  0.93130294958E+03  0.93130294958E+03  0.00000000000E+00 0.  1.
         -2   -1    0    0    0  501 -0.00000000000E+00 -0.00000000000E+00 -0.13614599390E+04  0.13614599390E+04  0.00000000000E+00 0. -1.
         23    2    1    2    0    0 -0.55463130934E+03 -0.62052997404E+02 -0.12089422215E+04  0.13346538647E+04  0.91066898129E+02 0.  0.
         11    1    3    3    0    0 -0.42877714563E+03 -0.56801392551E+02 -0.84025151683E+03  0.94503907345E+03  0.00000000000E+00 0. -1.
        -11    1    3    3    0    0 -0.12585416371E+03 -0.52516048527E+01 -0.36869070468E+03  0.38961479129E+03  0.00000000000E+00 0.  1.
         22    1    1    2    0    0  0.55463130934E+03  0.62052997404E+02  0.77878523210E+03  0.95810902382E+03  0.00000000000E+00 0.  1.
<mgrwt>
<rscale>  0 0.22520494E+04</rscale>
<asrwt>0</asrwt>
<pdfrwt beam="1">  1        2 0.14327738E+00 0.22520494E+04</pdfrwt>
<pdfrwt beam="2">  1       -2 0.20945537E+00 0.22520494E+04</pdfrwt>
<totfact> 0.29342432E+00</totfact>
</mgrwt>
</event>
<event>
 6    1  0.2436515E-005  0.1851178E+04  0.7818608E-02  0.8679547E-01
         -2   -1    0    0    0  501 -0.00000000000E+00  0.00000000000E+00  0.32936623795E+03  0.32936623795E+03  0.00000000000E+00 0. -1.
          2   -1    0    0  501    0  0.00000000000E+00 -0.00000000000E+00 -0.26011009290E+04  0.26011009290E+04  0.00000000000E+00 0.  1.
         23    2    1    2    0    0 -0.50534396127E+03 -0.76438241713E+03 -0.13179305975E+04  0.16078201061E+04  0.92148981445E+02 0.  0.
         13    1    3    3    0    0 -0.26503293392E+03 -0.32417021797E+03 -0.63076480457E+03  0.75709512280E+03  0.00000000000E+00 0. -1.
        -13    1    3    3    0    0 -0.24031102735E+03 -0.44021219916E+03 -0.68716579296E+03  0.85072498328E+03  0.00000000000E+00 0.  1.
         22    1    1    2    0    0  0.50534396127E+03  0.76438241713E+03 -0.95380409353E+03  0.13226470609E+04  0.00000000000E+00 0. -1.
<mgrwt>
<rscale>  0 0.18511778E+04</rscale>
<asrwt>0</asrwt>
<pdfrwt beam="1">  1        2 0.40016938E+00 0.18511778E+04</pdfrwt>
<pdfrwt beam="2">  1       -2 0.50671728E-01 0.18511778E+04</pdfrwt>
<totfact> 0.10534827E+01</totfact>
</mgrwt>
</event>
<event>
 6    1  0.2436515E-005  0.2012201E+04  0.7818608E-02  0.8600938E-01
         -2   -1    0    0    0  501 -0.00000000000E+00  0.00000000000E+00  0.65326271616E+03  0.65326271616E+03  0.00000000000E+00 0. -1.
          2   -1    0    0  501    0  0.00000000000E+00 -0.00000000000E+00 -0.15495112780E+04  0.15495112780E+04  0.00000000000E+00 0.  1.
         23    2    1    2    0    0 -0.29593905114E+03 -0.19418396417E+03  0.57946211442E+03  0.68520708164E+03  0.91897055227E+02 0.  0.
         13    1    3    3    0    0 -0.27435270255E+03 -0.14160730175E+03  0.49550889145E+03  0.58382454111E+03  0.00000000000E+00 0. -1.
        -13    1    3    3    0    0 -0.21586348585E+02 -0.52576662420E+02  0.83953222971E+02  0.10138254053E+03  0.00000000000E+00 0.  1.
         22    1    1    2    0    0  0.29593905114E+03  0.19418396417E+03 -0.14757106763E+04  0.15175669125E+04  0.00000000000E+00 0.  1.
<mgrwt>
<rscale>  0 0.20122007E+04</rscale>
<asrwt>0</asrwt>
<pdfrwt beam="1">  1        2 0.23838635E+00 0.20122007E+04</pdfrwt>
<pdfrwt beam="2">  1       -2 0.10050196E+00 0.20122007E+04</pdfrwt>
<totfact> 0.90188899E+00</totfact>
</mgrwt>
</event>
<event>
 6    1  0.2436515E-005  0.1810426E+04  0.7818608E-02  0.8700775E-01
          2   -1    0    0  501    0  0.00000000000E+00  0.00000000000E+00  0.31636835245E+04  0.31636835245E+04  0.00000000000E+00 0.  1.
         -2   -1    0    0    0  501 -0.00000000000E+00 -0.00000000000E+00 -0.25900517789E+03  0.25900517789E+03  0.00000000000E+00 0. -1.
         23    2    1    2    0    0 -0.70073714657E+03  0.45585229653E+03  0.21012948170E+04  0.22632668808E+04  0.90017779909E+02 0.  0.
         11    1    3    3    0    0 -0.11755656877E+03  0.52508250784E+02  0.25926634015E+03  0.28947486661E+03  0.00000000000E+00 0. -1.
        -11    1    3    3    0    0 -0.58318057780E+03  0.40334404575E+03  0.18420284769E+04  0.19737920142E+04  0.00000000000E+00 0.  1.
         22    1    1    2    0    0  0.70073714657E+03 -0.45585229653E+03  0.80338352957E+03  0.11594218216E+04  0.00000000000E+00 0. -1.
<mgrwt>
<rscale>  0 0.18104258E+04</rscale>
<asrwt>0</asrwt>
<pdfrwt beam="1">  1        2 0.48672051E+00 0.18104258E+04</pdfrwt>
<pdfrwt beam="2">  1       -2 0.39846953E-01 0.18104258E+04</pdfrwt>
<totfact> 0.77349766E+00</totfact>
</mgrwt>
</event>
<event>
 6    1  0.2436515E-005  0.3423453E+04  0.7818608E-02  0.8132174E-01
         -2   -1    0    0    0  501 -0.00000000000E+00  0.00000000000E+00  0.87511498284E+03  0.87511498284E+03  0.00000000000E+00 0. -1.
          2   -1    0    0  501    0  0.00000000000E+00 -0.00000000000E+00 -0.33481393802E+04  0.33481393802E+04  0.00000000000E+00 0.  1.
         23    2    1    2    0    0  0.74923865713E+03 -0.39914644060E+03  0.59429510135E+03  0.10406256770E+04  0.95072002521E+02 0.  0.
         13    1    3    3    0    0  0.52242381210E+03 -0.24773225263E+03  0.44590470290E+03  0.73015677256E+03  0.00000000000E+00 0. -1.
        -13    1    3    3    0    0  0.22681484503E+03 -0.15141418797E+03  0.14839039844E+03  0.31046890439E+03  0.00000000000E+00 0.  1.
         22    1    1    2    0    0 -0.74923865713E+03  0.39914644060E+03 -0.30673194987E+04  0.31826286861E+04  0.00000000000E+00 0. -1.
<mgrwt>
<rscale>  0 0.34234526E+04</rscale>
<asrwt>0</asrwt>
<pdfrwt beam="1">  1        2 0.51509836E+00 0.34234526E+04</pdfrwt>
<pdfrwt beam="2">  1       -2 0.13463308E+00 0.34234526E+04</pdfrwt>
<totfact> 0.33920772E-01</totfact>
</mgrwt>
</event>
<event>
 6    1  0.2646568E-005  0.2744180E+04  0.7818608E-02  0.8320811E-01
         -2   -1    0    0    0  501 -0.00000000000E+00  0.00000000000E+00  0.16945625066E+04  0.16945625066E+04  0.00000000000E+00 0.  1.
          2   -1    0    0  501    0  0.00000000000E+00 -0.00000000000E+00 -0.11109835136E+04  0.11109835136E+04  0.00000000000E+00 0. -1.
         23    2    1    2    0    0 -0.85564991971E+03 -0.10705167465E+04  0.27851221115E+03  0.14015486445E+04  0.92879822741E+02 0.  0.
         11    1    3    3    0    0 -0.35133570888E+03 -0.49093866780E+03  0.15638142707E+03  0.62362866083E+03  0.00000000000E+00 0. -1.
        -11    1    3    3    0    0 -0.50431421083E+03 -0.57957807866E+03  0.12213078407E+03  0.77791998363E+03  0.00000000000E+00 0.  1.
         22    1    1    2    0    0  0.85564991971E+03  0.10705167465E+04  0.30506678183E+03  0.14039973757E+04  0.00000000000E+00 0. -1.
<mgrwt>
<rscale>  0 0.27441800E+04</rscale>
<asrwt>0</asrwt>
<pdfrwt beam="1">  1        2 0.17092054E+00 0.27441800E+04</pdfrwt>
<pdfrwt beam="2">  1       -2 0.26070192E+00 0.27441800E+04</pdfrwt>
<totfact> 0.10357417E+00</totfact>
</mgrwt>
</event>
<event>
 6    1  0.2436515E-005  0.2126060E+04  0.7818608E-02  0.8549850E-01
          2   -1    0    0  501    0  0.00000000000E+00  0.00000000000E+00  0.14546139092E+04  0.14546139092E+04  0.00000000000E+00 0.  1.
         -2   -1    0    0    0  501 -0.00000000000E+00 -0.00000000000E+00 -0.77686094549E+03  0.77686094549E+03  0.00000000000E+00 0. -1.
         23    2    1    2    0    0 -0.64432836626E+03 -0.64509126592E+03 -0.22971793627E+03  0.94508252758E+03  0.95440393792E+02 0.  0.
         11    1    3    3    0    0 -0.40664366891E+03 -0.44407694536E+03 -0.18925892159E+03  0.63117536887E+03  0.00000000000E+00 0.  1.
        -11    1    3    3    0    0 -0.23768469734E+03 -0.20101432056E+03 -0.40459014682E+02  0.31390715871E+03  0.00000000000E+00 0. -1.
         22    1    1    2    0    0  0.64432836626E+03  0.64509126592E+03  0.90747089998E+03  0.12863923271E+04  0.00000000000E+00 0.  1.
<mgrwt>
<rscale>  0 0.21260600E+04</rscale>
<asrwt>0</asrwt>
<pdfrwt beam="1">  1        2 0.22378675E+00 0.21260600E+04</pdfrwt>
<pdfrwt beam="2">  1       -2 0.11951707E+00 0.21260600E+04</pdfrwt>
<totfact> 0.66441623E+00</totfact>
</mgrwt>
</event>
<event>
 6    1  0.2436515E-005  0.1054626E+04  0.7818608E-02  0.9250581E-01
          2   -1    0    0  501    0  0.00000000000E+00  0.00000000000E+00  0.98308693657E+03  0.98308693657E+03  0.00000000000E+00 0.  1.
         -2   -1    0    0    0  501 -0.00000000000E+00 -0.00000000000E+00 -0.28284254397E+03  0.28284254397E+03  0.00000000000E+00 0. -1.
         23    2    1    2    0    0  0.27559126584E+03  0.15621808707E+03  0.85290335203E+03  0.91427710328E+03  0.90021425981E+02 0.  0.
         11    1    3    3    0    0  0.12861543665E+03  0.12339585625E+03  0.43717025820E+03  0.47210835889E+03  0.00000000000E+00 0.  1.
        -11    1    3    3    0    0  0.14697582920E+03  0.32822230828E+02  0.41573309383E+03  0.44216874439E+03  0.00000000000E+00 0. -1.
         22    1    1    2    0    0 -0.27559126584E+03 -0.15621808707E+03 -0.15265895943E+03  0.35165237726E+03  0.00000000000E+00 0. -1.
<mgrwt>
<rscale>  0 0.10546256E+04</rscale>
<asrwt>0</asrwt>
<pdfrwt beam="1">  1        2 0.15124414E+00 0.10546256E+04</pdfrwt>
<pdfrwt beam="2">  1       -2 0.43514238E-01 0.10546256E+04</pdfrwt>
<totfact> 0.12869457E+02</totfact>
</mgrwt>
</event>
<event>
 6    1  0.2436515E-005  0.1714509E+04  0.7818608E-02  0.8753132E-01
         -2   -1    0    0    0  501 -0.00000000000E+00  0.00000000000E+00  0.41485235367E+03  0.41485235367E+03  0.00000000000E+00 0. -1.
          2   -1    0    0  501    0  0.00000000000E+00 -0.00000000000E+00 -0.17714379079E+04  0.17714379079E+04  0.00000000000E+00 0.  1.
         23    2    1    2    0    0 -0.57518972493E+03 -0.39401592762E+03 -0.13106717929E+04  0.14875772701E+04  0.94518861411E+02 0.  0.
         13    1    3    3    0    0 -0.48173727265E+03 -0.31612946225E+03 -0.11475466427E+04  0.12840840837E+04  0.00000000000E+00 0.  1.
        -13    1    3    3    0    0 -0.93452452280E+02 -0.77886465367E+02 -0.16312515013E+03  0.20349318644E+03  0.00000000000E+00 0. -1.
         22    1    1    2    0    0  0.57518972493E+03  0.39401592762E+03 -0.45913761352E+02  0.69871299141E+03  0.00000000000E+00 0. -1.
<mgrwt>
<rscale>  0 0.17145089E+04</rscale>
<asrwt>0</asrwt>
<pdfrwt beam="1">  1        2 0.27252891E+00 0.17145089E+04</pdfrwt>
<pdfrwt beam="2">  1       -2 0.63823438E-01 0.17145089E+04</pdfrwt>
<totfact> 0.19312281E+01</totfact>
</mgrwt>
</event>
<event>
 6    1  0.2436515E-005  0.1325901E+04  0.7818608E-02  0.9009274E-01
         -2   -1    0    0    0  501 -0.00000000000E+00  0.00000000000E+00  0.14932356581E+03  0.14932356581E+03  0.00000000000E+00 0. -1.
          2   -1    0    0  501    0  0.00000000000E+00 -0.00000000000E+00 -0.29432933025E+04  0.29432933025E+04  0.00000000000E+00 0.  1.
         23    2    1    2    0    0 -0.69996901468E+02  0.65427565994E+03 -0.12911474604E+04  0.14520526362E+04  0.91754501467E+02 0.  0.
         13    1    3    3    0    0 -0.89185227385E+02  0.43947792483E+03 -0.85169932610E+03  0.96254173586E+03  0.00000000000E+00 0. -1.
        -13    1    3    3    0    0  0.19188325917E+02  0.21479773511E+03 -0.43944813428E+03  0.48951090037E+03  0.00000000000E+00 0.  1.
         22    1    1    2    0    0  0.69996901468E+02 -0.65427565994E+03 -0.15028222763E+04  0.16405642320E+04  0.00000000000E+00 0.  1.
<mgrwt>
<rscale>  0 0.13259005E+04</rscale>
<asrwt>0</asrwt>
<pdfrwt beam="1">  1        2 0.45281434E+00 0.13259005E+04</pdfrwt>
<pdfrwt beam="2">  1       -2 0.22972857E-01 0.13259005E+04</pdfrwt>
<totfact> 0.31193934E+01</totfact>
</mgrwt>
</event>
<event>
 6    1  0.2436515E-005  0.3757313E+04  0.7818608E-02  0.8055378E-01
         -2   -1    0    0    0  501 -0.00000000000E+00  0.00000000000E+00  0.22240159518E+04  0.22240159518E+04  0.00000000000E+00 0. -1.
          2   -1    0    0  501    0  0.00000000000E+00 -0.00000000000E+00 -0.15869264699E+04  0.15869264699E+04  0.00000000000E+00 0.  1.
         23    2    1    2    0    0  0.17131265166E+04 -0.67639524211E+03  0.68993280560E+03  0.19683612424E+04  0.78266972933E+02 0.  0.
         13    1    3    3    0    0  0.71445515986E+03 -0.25806301770E+03  0.25102874017E+03  0.80003632727E+03  0.00000000000E+00 0.  1.
        -13    1    3    3    0    0  0.99867135674E+03 -0.41833222441E+03  0.43890406544E+03  0.11683249152E+04  0.00000000000E+00 0. -1.
         22    1    1    2    0    0 -0.17131265166E+04  0.67639524211E+03 -0.52843323734E+02  0.18425811793E+04  0.00000000000E+00 0.  1.
<mgrwt>
<rscale>  0 0.37573128E+04</rscale>
<asrwt>0</asrwt>
<pdfrwt beam="1">  1        2 0.24414253E+00 0.37573128E+04</pdfrwt>
<pdfrwt beam="2">  1       -2 0.34215630E+00 0.37573128E+04</pdfrwt>
<totfact> 0.15901111E-01</totfact>
</mgrwt>
</event>
<event>
 6    1  0.2436515E-005  0.1233319E+04  0.7818608E-02  0.9084182E-01
          2   -1    0    0  501    0  0.00000000000E+00  0.00000000000E+00  0.28335156409E+04  0.28335156409E+04  0.00000000000E+00 0.  1.
         -2   -1    0    0    0  501 -0.00000000000E+00 -0.00000000000E+00 -0.13420403958E+03  0.13420403958E+03  0.00000000000E+00 0. -1.
         23    2    1    2    0    0 -0.13989581886E+03 -0.28882144450E+02  0.27922065502E+04  0.27973245810E+04  0.90566958192E+02 0.  0.
         13    1    3    3    0    0 -0.13575505580E+03  0.39218489477E+01  0.23046192493E+04  0.23086174868E+04  0.00000000000E+00 0. -1.
        -13    1    3    3    0    0 -0.41407630593E+01 -0.32803993397E+02  0.48758730089E+03  0.48870709416E+03  0.00000000000E+00 0.  1.
         22    1    1    2    0    0  0.13989581886E+03  0.28882144450E+02 -0.92894948894E+02  0.17039509950E+03  0.00000000000E+00 0. -1.
<mgrwt>
<rscale>  0 0.12333195E+04</rscale>
<asrwt>0</asrwt>
<pdfrwt beam="1">  1        2 0.43592544E+00 0.12333195E+04</pdfrwt>
<pdfrwt beam="2">  1       -2 0.20646777E-01 0.12333195E+04</pdfrwt>
<totfact> 0.44368842E+01</totfact>
</mgrwt>
</event>
<event>
 6    1  0.2436515E-005  0.1767734E+04  0.7818608E-02  0.8723649E-01
          1   -1    0    0  501    0  0.00000000000E+00  0.00000000000E+00  0.67012031521E+03  0.67012031521E+03  0.00000000000E+00 0.  1.
         -1   -1    0    0    0  501 -0.00000000000E+00 -0.00000000000E+00 -0.11657919735E+04  0.11657919735E+04  0.00000000000E+00 0. -1.
         23    2    1    2    0    0  0.43682571167E+03  0.55802672929E+03  0.29603812750E+03  0.77336115211E+03  0.90765443210E+02 0.  0.
         13    1    3    3    0    0  0.20647280172E+03  0.19182764251E+03  0.11740441610E+03  0.30530748304E+03  0.00000000000E+00 0. -1.
        -13    1    3    3    0    0  0.23035290995E+03  0.36619908678E+03  0.17863371140E+03  0.46805366907E+03  0.00000000000E+00 0.  1.
         22    1    1    2    0    0 -0.43682571167E+03 -0.55802672929E+03 -0.79170978578E+03  0.10625511366E+04  0.00000000000E+00 0. -1.
<mgrwt>
<rscale>  0 0.17677340E+04</rscale>
<asrwt>0</asrwt>
<pdfrwt beam="1">  1        1 0.10309543E+00 0.17677340E+04</pdfrwt>
<pdfrwt beam="2">  1       -1 0.17935261E+00 0.17677340E+04</pdfrwt>
<totfact> 0.57916863E+00</totfact>
</mgrwt>
</event>
<event>
 6    1  0.2436515E-005  0.8830091E+03  0.7818608E-02  0.9447074E-01
         -2   -1    0    0    0  501 -0.00000000000E+00  0.00000000000E+00  0.17138171425E+03  0.17138171425E+03  0.00000000000E+00 0. -1.
          2   -1    0    0  501    0  0.00000000000E+00 -0.00000000000E+00 -0.11373808386E+04  0.11373808386E+04  0.00000000000E+00 0.  1.
         23    2    1    2    0    0 -0.14132255246E+03  0.14328846250E+03 -0.10627301699E+04  0.10854678093E+04  0.91330738573E+02 0.  0.
         13    1    3    3    0    0 -0.11892006950E+03  0.13898347509E+03 -0.75298537066E+03  0.77488409308E+03  0.00000000000E+00 0.  1.
        -13    1    3    3    0    0 -0.22402482951E+02  0.43049874116E+01 -0.30974479921E+03  0.31058371625E+03  0.00000000000E+00 0. -1.
         22    1    1    2    0    0  0.14132255246E+03 -0.14328846250E+03  0.96731045517E+02  0.22329474352E+03  0.00000000000E+00 0. -1.
<mgrwt>
<rscale>  0 0.88300912E+03</rscale>
<asrwt>0</asrwt>
<pdfrwt beam="1">  1        2 0.17498167E+00 0.88300912E+03</pdfrwt>
<pdfrwt beam="2">  1       -2 0.26366417E-01 0.88300912E+03</pdfrwt>
<totfact> 0.26948142E+02</totfact>
</mgrwt>
</event>
<event>
 6    1  0.2436515E-005  0.1354704E+04  0.7818608E-02  0.8987275E-01
          2   -1    0    0  501    0  0.00000000000E+00  0.00000000000E+00  0.17559400139E+04  0.17559400139E+04  0.00000000000E+00 0. -1.
         -2   -1    0    0    0  501 -0.00000000000E+00 -0.00000000000E+00 -0.26128787984E+03  0.26128787984E+03  0.00000000000E+00 0.  1.
         23    2    1    2    0    0  0.15651299279E+03  0.55737886683E+03  0.23636779938E+03  0.63214775706E+03  0.92593369483E+02 0.  0.
         13    1    3    3    0    0  0.15523509684E+02  0.21220749171E+03  0.10042092320E+03  0.23528144999E+03  0.00000000000E+00 0. -1.
        -13    1    3    3    0    0  0.14098948310E+03  0.34517137512E+03  0.13594687618E+03  0.39686630707E+03  0.00000000000E+00 0.  1.
         22    1    1    2    0    0 -0.15651299279E+03 -0.55737886683E+03  0.12582843347E+04  0.13850801367E+04  0.00000000000E+00 0. -1.
<mgrwt>
<rscale>  0 0.13547042E+04</rscale>
<asrwt>0</asrwt>
<pdfrwt beam="1">  1        2 0.27014461E+00 0.13547042E+04</pdfrwt>
<pdfrwt beam="2">  1       -2 0.40198137E-01 0.13547042E+04</pdfrwt>
<totfact> 0.52209314E+01</totfact>
</mgrwt>
</event>
<event>
 6    1  0.2436515E-005  0.3562272E+04  0.7818608E-02  0.8099189E-01
         -2   -1    0    0    0  501 -0.00000000000E+00  0.00000000000E+00  0.11608322399E+04  0.11608322399E+04  0.00000000000E+00 0. -1.
          2   -1    0    0  501    0  0.00000000000E+00 -0.00000000000E+00 -0.27329060299E+04  0.27329060299E+04  0.00000000000E+00 0.  1.
         23    2    1    2    0    0 -0.10928170085E+04 -0.13103869053E+04 -0.23252463745E+03  0.17244630941E+04  0.91336740600E+02 0.  0.
         11    1    3    3    0    0 -0.40549706773E+03 -0.42507542166E+03 -0.61158554246E+02  0.59064147737E+03  0.00000000000E+00 0. -1.
        -11    1    3    3    0    0 -0.68731994078E+03 -0.88531148362E+03 -0.17136608321E+03  0.11338216167E+04  0.00000000000E+00 0.  1.
         22    1    1    2    0    0  0.10928170085E+04  0.13103869053E+04 -0.13395491526E+04  0.21692751757E+04  0.00000000000E+00 0.  1.
<mgrwt>
<rscale>  0 0.35622720E+04</rscale>
<asrwt>0</asrwt>
<pdfrwt beam="1">  1        2 0.42044708E+00 0.35622720E+04</pdfrwt>
<pdfrwt beam="2">  1       -2 0.17858957E+00 0.35622720E+04</pdfrwt>
<totfact> 0.38467378E-01</totfact>
</mgrwt>
</event>
<event>
 6    1  0.2436515E-005  0.1701583E+04  0.7818608E-02  0.8760462E-01
         -2   -1    0    0    0  501 -0.00000000000E+00  0.00000000000E+00  0.20180150936E+04  0.20180150936E+04  0.00000000000E+00 0. -1.
          2   -1    0    0  501    0  0.00000000000E+00 -0.00000000000E+00 -0.35869217703E+03  0.35869217703E+03  0.00000000000E+00 0.  1.
         23    2    1    2    0    0  0.83764969510E+03  0.20113240208E+00  0.10207926551E+04  0.13234371500E+04  0.88380954870E+02 0.  0.
         13    1    3    3    0    0  0.48467263374E+03 -0.34538541961E+02  0.63143987768E+03  0.79675390925E+03  0.00000000000E+00 0. -1.
        -13    1    3    3    0    0  0.35297706136E+03  0.34739674363E+02  0.38935277738E+03  0.52668324074E+03  0.00000000000E+00 0.  1.
         22    1    1    2    0    0 -0.83764969510E+03 -0.20113240208E+00  0.63853026150E+03  0.10532701206E+04  0.00000000000E+00 0. -1.
<mgrwt>
<rscale>  0 0.17015831E+04</rscale>
<asrwt>0</asrwt>
<pdfrwt beam="1">  1        2 0.55183413E-01 0.17015831E+04</pdfrwt>
<pdfrwt beam="2">  1       -2 0.31046385E+00 0.17015831E+04</pdfrwt>
<totfact> 0.23513676E+00</totfact>
</mgrwt>
</event>
<event>
 6    1  0.2436515E-005  0.1819897E+04  0.7818608E-02  0.8695789E-01
          2   -1    0    0  501    0  0.00000000000E+00  0.00000000000E+00  0.15722304948E+04  0.15722304948E+04  0.00000000000E+00 0.  1.
         -2   -1    0    0    0  501 -0.00000000000E+00 -0.00000000000E+00 -0.52664446890E+03  0.52664446890E+03  0.00000000000E+00 0. -1.
         23    2    1    2    0    0  0.60593955142E+03  0.15252778398E+03 -0.23515084279E+03  0.67384359854E+03  0.91333518337E+02 0.  0.
         11    1    3    3    0    0  0.48886884273E+03  0.84642490246E+02 -0.18315937723E+03  0.52887092377E+03  0.00000000000E+00 0.  1.
        -11    1    3    3    0    0  0.11707070869E+03  0.67885293733E+02 -0.51991465566E+02  0.14497267477E+03  0.00000000000E+00 0. -1.
         22    1    1    2    0    0 -0.60593955142E+03 -0.15252778398E+03  0.12807368687E+04  0.14250313652E+04  0.00000000000E+00 0.  1.
<mgrwt>
<rscale>  0 0.18198972E+04</rscale>
<asrwt>0</asrwt>
<pdfrwt beam="1">  1        2 0.24188161E+00 0.18198972E+04</pdfrwt>
<pdfrwt beam="2">  1       -2 0.81022227E-01 0.18198972E+04</pdfrwt>
<totfact> 0.14634850E+01</totfact>
</mgrwt>
</event>
<event>
 6    1  0.2436515E-005  0.2978296E+04  0.7818608E-02  0.8249956E-01
          2   -1    0    0  501    0  0.00000000000E+00  0.00000000000E+00  0.21141630255E+04  0.21141630255E+04  0.00000000000E+00 0.  1.
         -2   -1    0    0    0  501 -0.00000000000E+00 -0.00000000000E+00 -0.10489076569E+04  0.10489076569E+04  0.00000000000E+00 0. -1.
         23    2    1    2    0    0 -0.28802877249E+03  0.10222772213E+04  0.16396061923E+04  0.19556394588E+04  0.90586622368E+02 0.  0.
         11    1    3    3    0    0 -0.22803752488E+03  0.76793840839E+03  0.11649317242E+04  0.14137879735E+04  0.00000000000E+00 0.  1.
        -11    1    3    3    0    0 -0.59991247607E+02  0.25433881288E+03  0.47467446810E+03  0.54185148537E+03  0.00000000000E+00 0. -1.
         22    1    1    2    0    0  0.28802877249E+03 -0.10222772213E+04 -0.57435082373E+03  0.12074312236E+04  0.00000000000E+00 0.  1.
<mgrwt>
<rscale>  0 0.29782960E+04</rscale>
<asrwt>0</asrwt>
<pdfrwt beam="1">  1        2 0.32525585E+00 0.29782960E+04</pdfrwt>
<pdfrwt beam="2">  1       -2 0.16137041E+00 0.29782960E+04</pdfrwt>
<totfact> 0.12176407E+00</totfact>
</mgrwt>
</event>
<event>
 6    1  0.2436515E-005  0.1718936E+04  0.7818608E-02  0.8750638E-01
         -1   -1    0    0    0  501 -0.00000000000E+00  0.00000000000E+00  0.28636389080E+03  0.28636389080E+03  0.00000000000E+00 0.  1.
          1   -1    0    0  501    0  0.00000000000E+00 -0.00000000000E+00 -0.25795333332E+04  0.25795333332E+04  0.00000000000E+00 0. -1.
         23    2    1    2    0    0  0.23592658627E+03  0.80248787908E+03 -0.83803252238E+03  0.11874838047E+04  0.90394289523E+02 0.  0.
         11    1    3    3    0    0  0.94561478418E+02  0.31553010032E+03 -0.39334873761E+03  0.51305394140E+03  0.00000000000E+00 0.  1.
        -11    1    3    3    0    0  0.14136510786E+03  0.48695777876E+03 -0.44468378476E+03  0.67442986325E+03  0.00000000000E+00 0. -1.
         22    1    1    2    0    0 -0.23592658627E+03 -0.80248787908E+03 -0.14551369200E+04  0.16784134193E+04  0.00000000000E+00 0.  1.
<mgrwt>
<rscale>  0 0.17189360E+04</rscale>
<asrwt>0</asrwt>
<pdfrwt beam="1">  1        1 0.39685128E+00 0.17189360E+04</pdfrwt>
<pdfrwt beam="2">  1       -1 0.44055983E-01 0.17189360E+04</pdfrwt>
<totfact> 0.57828943E+00</totfact>
</mgrwt>
</event>
<event>
 6    1  0.2436515E-005  0.1002130E+04  0.7818608E-02  0.9306212E-01
          2   -1    0    0  501    0  0.00000000000E+00  0.00000000000E+00  0.11603123320E+04  0.11603123320E+04  0.00000000000E+00 0.  1.
         -2   -1    0    0    0  501 -0.00000000000E+00 -0.00000000000E+00 -0.21637795267E+03  0.21637795267E+03  0.00000000000E+00 0. -1.
         23    2    1    2    0    0 -0.22891246264E+03  0.43352322328E+03  0.36491758511E+03  0.61800474464E+03  0.91769928587E+02 0.  0.
         11    1    3    3    0    0 -0.14289863451E+03  0.24962464001E+03  0.15821271568E+03  0.32827388572E+03  0.00000000000E+00 0. -1.
        -11    1    3    3    0    0 -0.86013828130E+02  0.18389858327E+03  0.20670486943E+03  0.28973085891E+03  0.00000000000E+00 0.  1.
         22    1    1    2    0    0  0.22891246264E+03 -0.43352322328E+03  0.57901679423E+03  0.75868554005E+03  0.00000000000E+00 0. -1.
<mgrwt>
<rscale>  0 0.10021297E+04</rscale>
<asrwt>0</asrwt>
<pdfrwt beam="1">  1        2 0.17850959E+00 0.10021297E+04</pdfrwt>
<pdfrwt beam="2">  1       -2 0.33288917E-01 0.10021297E+04</pdfrwt>
<totfact> 0.16817156E+02</totfact>
</mgrwt>
</event>
<event>
 6    1  0.2436515E-005  0.2802590E+04  0.7818608E-02  0.8302465E-01
          2   -1    0    0  501    0  0.00000000000E+00  0.00000000000E+00  0.21279241639E+04  0.21279241639E+04  0.00000000000E+00 0.  1.
         -2   -1    0    0    0  501 -0.00000000000E+00 -0.00000000000E+00 -0.92279004072E+03  0.92279004072E+03  0.00000000000E+00 0. -1.
         23    2    1    2    0    0  0.10834455012E+04 -0.60250641477E+03 -0.10450701697E+03  0.12473761748E+04  0.90318718120E+02 0.  0.
         11    1    3    3    0    0  0.10353206526E+04 -0.55258896459E+03 -0.95176761324E+02  0.11774132806E+04  0.00000000000E+00 0. -1.
        -11    1    3    3    0    0  0.48124848598E+02 -0.49917450178E+02 -0.93302556488E+01  0.69962894132E+02  0.00000000000E+00 0.  1.
         22    1    1    2    0    0 -0.10834455012E+04  0.60250641477E+03  0.13096411402E+04  0.18033380299E+04  0.00000000000E+00 0.  1.
<mgrwt>
<rscale>  0 0.28025897E+04</rscale>
<asrwt>0</asrwt>
<pdfrwt beam="1">  1        2 0.32737295E+00 0.28025897E+04</pdfrwt>
<pdfrwt beam="2">  1       -2 0.14196770E+00 0.28025897E+04</pdfrwt>
<totfact> 0.17078031E+00</totfact>
</mgrwt>
</event>
<event>
 6    1  0.2436515E-005  0.2607996E+04  0.7818608E-02  0.8365490E-01
          2   -1    0    0  501    0  0.00000000000E+00  0.00000000000E+00  0.95222735386E+03  0.95222735386E+03  0.00000000000E+00 0.  1.
         -2   -1    0    0    0  501 -0.00000000000E+00 -0.00000000000E+00 -0.17857197126E+04  0.17857197126E+04  0.00000000000E+00 0. -1.
         23    2    1    2    0    0  0.47465006770E+03 -0.33860391466E+03  0.80532923410E+03  0.99849844378E+03  0.92188226755E+02 0.  0.
         11    1    3    3    0    0  0.20792466403E+03 -0.14899120672E+03  0.27712595767E+03  0.37713371900E+03  0.00000000000E+00 0.  1.
        -11    1    3    3    0    0  0.26672540367E+03 -0.18961270794E+03  0.52820327643E+03  0.62136472479E+03  0.00000000000E+00 0. -1.
         22    1    1    2    0    0 -0.47465006770E+03  0.33860391466E+03 -0.16388215929E+04  0.17394486227E+04  0.00000000000E+00 0. -1.
<mgrwt>
<rscale>  0 0.26079963E+04</rscale>
<asrwt>0</asrwt>
<pdfrwt beam="1">  1        2 0.14649652E+00 0.26079963E+04</pdfrwt>
<pdfrwt beam="2">  1       -2 0.27472611E+00 0.26079963E+04</pdfrwt>
<totfact> 0.10847232E+00</totfact>
</mgrwt>
</event>
<event>
 6    1  0.2436515E-005  0.2545874E+04  0.7818608E-02  0.8386822E-01
          2   -1    0    0  501    0  0.00000000000E+00  0.00000000000E+00  0.12729386083E+04  0.12729386083E+04  0.00000000000E+00 0. -1.
         -2   -1    0    0    0  501 -0.00000000000E+00 -0.00000000000E+00 -0.12729357410E+04  0.12729357410E+04  0.00000000000E+00 0.  1.
         23    2    1    2    0    0 -0.26321356725E+03 -0.79785190517E+03 -0.95435873686E+03  0.12743968166E+04  0.86241538452E+02 0.  0.
         13    1    3    3    0    0 -0.17135179005E+03 -0.38774198236E+03 -0.46027214033E+03  0.62574413621E+03  0.00000000000E+00 0.  1.
        -13    1    3    3    0    0 -0.91861777201E+02 -0.41010992281E+03 -0.49408659653E+03  0.64865268038E+03  0.00000000000E+00 0. -1.
         22    1    1    2    0    0  0.26321356725E+03  0.79785190517E+03  0.95436160416E+03  0.12714775327E+04  0.00000000000E+00 0.  1.
<mgrwt>
<rscale>  0 0.25458743E+04</rscale>
<asrwt>0</asrwt>
<pdfrwt beam="1">  1        2 0.19583671E+00 0.25458743E+04</pdfrwt>
<pdfrwt beam="2">  1       -2 0.19583627E+00 0.25458743E+04</pdfrwt>
<totfact> 0.21586748E+00</totfact>
</mgrwt>
</event>
<event>
 6    1  0.2436515E-005  0.1591928E+04  0.7818608E-02  0.8825523E-01
         -2   -1    0    0    0  501 -0.00000000000E+00  0.00000000000E+00  0.75103866736E+03  0.75103866736E+03  0.00000000000E+00 0. -1.
          2   -1    0    0  501    0  0.00000000000E+00 -0.00000000000E+00 -0.84357614347E+03  0.84357614347E+03  0.00000000000E+00 0.  1.
         23    2    1    2    0    0  0.38059289127E+03 -0.47483985487E+03  0.46327668703E+03  0.77044661161E+03  0.92945446047E+02 0.  0.
         13    1    3    3    0    0  0.18665361095E+03 -0.16124888240E+03  0.19590961873E+03  0.31499420831E+03  0.00000000000E+00 0. -1.
        -13    1    3    3    0    0  0.19393928032E+03 -0.31359097246E+03  0.26736706830E+03  0.45545240330E+03  0.00000000000E+00 0.  1.
         22    1    1    2    0    0 -0.38059289127E+03  0.47483985487E+03 -0.55581416315E+03  0.82416819922E+03  0.00000000000E+00 0.  1.
<mgrwt>
<rscale>  0 0.15919275E+04</rscale>
<asrwt>0</asrwt>
<pdfrwt beam="1">  1        2 0.12978094E+00 0.15919275E+04</pdfrwt>
<pdfrwt beam="2">  1       -2 0.11554441E+00 0.15919275E+04</pdfrwt>
<totfact> 0.17936350E+01</totfact>
</mgrwt>
</event>
<event>
 6    1  0.2436515E-005  0.2692491E+04  0.7818608E-02  0.8337445E-01
         -2   -1    0    0    0  501 -0.00000000000E+00  0.00000000000E+00  0.72390735551E+03  0.72390735551E+03  0.00000000000E+00 0. -1.
          2   -1    0    0  501    0  0.00000000000E+00 -0.00000000000E+00 -0.25036039847E+04  0.25036039847E+04  0.00000000000E+00 0.  1.
         23    2    1    2    0    0  0.10734697476E+04  0.78639649245E+03 -0.11229151561E+04  0.17435576194E+04  0.91093259251E+02 0.  0.
         11    1    3    3    0    0  0.61470373473E+03  0.50541791661E+03 -0.67594735566E+03  0.10441325488E+04  0.00000000000E+00 0.  1.
        -11    1    3    3    0    0  0.45876601283E+03  0.28097857583E+03 -0.44696780047E+03  0.69942507052E+03  0.00000000000E+00 0. -1.
         22    1    1    2    0    0 -0.10734697476E+04 -0.78639649245E+03 -0.65678147306E+03  0.14839537209E+04  0.00000000000E+00 0. -1.
<mgrwt>
<rscale>  0 0.26924913E+04</rscale>
<asrwt>0</asrwt>
<pdfrwt beam="1">  1        2 0.38516985E+00 0.26924913E+04</pdfrwt>
<pdfrwt beam="2">  1       -2 0.11137036E+00 0.26924913E+04</pdfrwt>
<totfact> 0.19384955E+00</totfact>
</mgrwt>
</event>
<event>
 6    1  0.2436515E-005  0.2555239E+04  0.7818608E-02  0.8383567E-01
          2   -1    0    0  501    0  0.00000000000E+00  0.00000000000E+00  0.19187970817E+04  0.19187970817E+04  0.00000000000E+00 0.  1.
         -2   -1    0    0    0  501 -0.00000000000E+00 -0.00000000000E+00 -0.85069511408E+03  0.85069511408E+03  0.00000000000E+00 0. -1.
         23    2    1    2    0    0  0.48514673813E+03 -0.11694689117E+04  0.70854574148E+03  0.14533213966E+04  0.84149396127E+02 0.  0.
         13    1    3    3    0    0  0.24603997511E+03 -0.58398038159E+03  0.30660124364E+03  0.70396951499E+03  0.00000000000E+00 0. -1.
        -13    1    3    3    0    0  0.23910676301E+03 -0.58548853016E+03  0.40194449784E+03  0.74935188157E+03  0.00000000000E+00 0.  1.
         22    1    1    2    0    0 -0.48514673813E+03  0.11694689117E+04  0.35955622618E+03  0.13161707993E+04  0.00000000000E+00 0. -1.
<mgrwt>
<rscale>  0 0.25552388E+04</rscale>
<asrwt>0</asrwt>
<pdfrwt beam="1">  1        2 0.29519955E+00 0.25552388E+04</pdfrwt>
<pdfrwt beam="2">  1       -2 0.13087617E+00 0.25552388E+04</pdfrwt>
<totfact> 0.28102947E+00</totfact>
</mgrwt>
</event>
<event>
 6    1  0.2436515E-005  0.2176795E+04  0.7818608E-02  0.8528149E-01
          2   -1    0    0  501    0  0.00000000000E+00  0.00000000000E+00  0.87477157554E+03  0.87477157554E+03  0.00000000000E+00 0.  1.
         -2   -1    0    0    0  501 -0.00000000000E+00 -0.00000000000E+00 -0.13541920329E+04  0.13541920329E+04  0.00000000000E+00 0. -1.
         23    2    1    2    0    0  0.91714757429E+03  0.14782916204E+03 -0.81715213062E+03  0.12404921535E+04  0.89833424274E+02 0.  0.
         11    1    3    3    0    0  0.61773778276E+03  0.73360203477E+02 -0.58990912001E+03  0.85730651320E+03  0.00000000000E+00 0.  1.
        -11    1    3    3    0    0  0.29940979153E+03  0.74468958559E+02 -0.22724301061E+03  0.38318564029E+03  0.00000000000E+00 0. -1.
         22    1    1    2    0    0 -0.91714757429E+03 -0.14782916204E+03  0.33773167324E+03  0.98847145497E+03  0.00000000000E+00 0.  1.
<mgrwt>
<rscale>  0 0.21767946E+04</rscale>
<asrwt>0</asrwt>
<pdfrwt beam="1">  1        2 0.13458024E+00 0.21767946E+04</pdfrwt>
<pdfrwt beam="2">  1       -2 0.20833724E+00 0.21767946E+04</pdfrwt>
<totfact> 0.32779461E+00</totfact>
</mgrwt>
</event>
<event>
 6    1  0.2436515E-005  0.2406091E+04  0.7818608E-02  0.8437227E-01
          2   -1    0    0  501    0  0.00000000000E+00  0.00000000000E+00  0.32736531638E+04  0.32736531638E+04  0.00000000000E+00 0. -1.
         -2   -1    0    0    0  501 -0.00000000000E+00 -0.00000000000E+00 -0.44211128721E+03  0.44211128721E+03  0.00000000000E+00 0.  1.
         23    2    1    2    0    0 -0.85371839951E+03  0.72449583256E+03  0.74595133286E+03  0.13486106256E+04  0.92617014836E+02 0.  0.
         13    1    3    3    0    0 -0.35770997498E+02  0.96793982379E+01  0.20305077371E+02  0.42255782791E+02  0.00000000000E+00 0.  1.
        -13    1    3    3    0    0 -0.81794740201E+03  0.71481643432E+03  0.72564625549E+03  0.13063548428E+04  0.00000000000E+00 0. -1.
         22    1    1    2    0    0  0.85371839951E+03 -0.72449583256E+03  0.20855905438E+04  0.23671538254E+04  0.00000000000E+00 0. -1.
<mgrwt>
<rscale>  0 0.24060914E+04</rscale>
<asrwt>0</asrwt>
<pdfrwt beam="1">  1        2 0.50363893E+00 0.24060914E+04</pdfrwt>
<pdfrwt beam="2">  1       -2 0.68017123E-01 0.24060914E+04</pdfrwt>
<totfact> 0.20652677E+00</totfact>
</mgrwt>
</event>
<event>
 6    1  0.2436515E-005  0.6144439E+03  0.7818608E-02  0.9875885E-01
         -2   -1    0    0    0  501 -0.00000000000E+00  0.00000000000E+00  0.38099543897E+03  0.38099543897E+03  0.00000000000E+00 0. -1.
          2   -1    0    0  501    0  0.00000000000E+00 -0.00000000000E+00 -0.24773344983E+03  0.24773344983E+03  0.00000000000E+00 0.  1.
         23    2    1    2    0    0 -0.12556491272E+03  0.27226747936E+03  0.86674023361E+02  0.32530415978E+03  0.91729397805E+02 0.  0.
         13    1    3    3    0    0 -0.96508218323E+02  0.26438239989E+03  0.66913477422E+02  0.28929103518E+03  0.00000000000E+00 0. -1.
        -13    1    3    3    0    0 -0.29056694398E+02  0.78850794690E+01  0.19760545940E+02  0.36013124599E+02  0.00000000000E+00 0.  1.
         22    1    1    2    0    0  0.12556491272E+03 -0.27226747936E+03  0.46587965782E+02  0.30342472902E+03  0.00000000000E+00 0. -1.
<mgrwt>
<rscale>  0 0.61444386E+03</rscale>
<asrwt>0</asrwt>
<pdfrwt beam="1">  1        2 0.38112838E-01 0.61444386E+03</pdfrwt>
<pdfrwt beam="2">  1       -2 0.58614683E-01 0.61444386E+03</pdfrwt>
<totfact> 0.37352409E+02</totfact>
</mgrwt>
</event>
<event>
 6    1  0.2436515E-005  0.1127337E+04  0.7818608E-02  0.9178949E-01
         -2   -1    0    0    0  501 -0.00000000000E+00  0.00000000000E+00  0.34935371973E+03  0.34935371973E+03  0.00000000000E+00 0. -1.
          2   -1    0    0  501    0  0.00000000000E+00 -0.00000000000E+00 -0.90945777079E+03  0.90945777079E+03  0.00000000000E+00 0.  1.
         23    2    1    2    0    0 -0.49500292921E+03  0.10458088912E+03 -0.13138393760E+02  0.51373666706E+03  0.88247852028E+02 0.  0.
         13    1    3    3    0    0 -0.40582322212E+03  0.92729319032E+02  0.22691023615E+02  0.41690058380E+03  0.00000000000E+00 0. -1.
        -13    1    3    3    0    0 -0.89179707089E+02  0.11851570090E+02 -0.35829417375E+02  0.96836083252E+02  0.00000000000E+00 0.  1.
         22    1    1    2    0    0  0.49500292921E+03 -0.10458088912E+03 -0.54696565730E+03  0.74507482347E+03  0.00000000000E+00 0.  1.
<mgrwt>
<rscale>  0 0.11273375E+04</rscale>
<asrwt>0</asrwt>
<pdfrwt beam="1">  1        2 0.13991658E+00 0.11273375E+04</pdfrwt>
<pdfrwt beam="2">  1       -2 0.53746727E-01 0.11273375E+04</pdfrwt>
<totfact> 0.93411128E+01</totfact>
</mgrwt>
</event>
<event>
 6    1  0.2436515E-005  0.4469235E+04  0.7818608E-02  0.7916045E-01
         -2   -1    0    0    0  501 -0.00000000000E+00  0.00000000000E+00  0.13030069356E+04  0.13030069356E+04  0.00000000000E+00 0. -1.
          2   -1    0    0  501    0  0.00000000000E+00 -0.00000000000E+00 -0.38323008030E+04  0.38323008030E+04  0.00000000000E+00 0.  1.
         23    2    1    2    0    0 -0.61607853134E+03 -0.12150925073E+04 -0.32991188340E+04  0.35704968755E+04  0.90886184687E+02 0.  0.
         13    1    3    3    0    0 -0.35292958164E+03 -0.76922989964E+03 -0.21224558307E+04  0.22849710461E+04  0.00000000000E+00 0.  1.
        -13    1    3    3    0    0 -0.26314894969E+03 -0.44586260766E+03 -0.11766630033E+04  0.12855258294E+04  0.00000000000E+00 0. -1.
         22    1    1    2    0    0  0.61607853134E+03  0.12150925073E+04  0.76982496665E+03  0.15648108631E+04  0.00000000000E+00 0. -1.
<mgrwt>
<rscale>  0 0.44692346E+04</rscale>
<asrwt>0</asrwt>
<pdfrwt beam="1">  1        2 0.58958474E+00 0.44692346E+04</pdfrwt>
<pdfrwt beam="2">  1       -2 0.20046260E+00 0.44692346E+04</pdfrwt>
<totfact> 0.46392618E-02</totfact>
</mgrwt>
</event>
<event>
 6    1  0.2436515E-005  0.2829523E+04  0.7818608E-02  0.8294161E-01
          2   -1    0    0  501    0  0.00000000000E+00  0.00000000000E+00  0.34351980840E+04  0.34351980840E+04  0.00000000000E+00 0.  1.
         -2   -1    0    0    0  501 -0.00000000000E+00 -0.00000000000E+00 -0.58265947349E+03  0.58265947349E+03  0.00000000000E+00 0. -1.
         23    2    1    2    0    0 -0.70161691099E+03 -0.37265599072E+03 -0.23170163615E+03  0.83294363772E+03  0.94713664302E+02 0.  0.
         11    1    3    3    0    0 -0.24016300880E+03 -0.82251317180E+02 -0.54498759667E+02  0.25964141576E+03  0.00000000000E+00 0. -1.
        -11    1    3    3    0    0 -0.46145390219E+03 -0.29040467354E+03 -0.17720287648E+03  0.57330222196E+03  0.00000000000E+00 0.  1.
         22    1    1    2    0    0  0.70161691099E+03  0.37265599072E+03  0.30842402466E+04  0.31849139198E+04  0.00000000000E+00 0.  1.
<mgrwt>
<rscale>  0 0.28295234E+04</rscale>
<asrwt>0</asrwt>
<pdfrwt beam="1">  1        2 0.52849200E+00 0.28295234E+04</pdfrwt>
<pdfrwt beam="2">  1       -2 0.89639921E-01 0.28295234E+04</pdfrwt>
<totfact> 0.83471571E-01</totfact>
</mgrwt>
</event>
<event>
 6    1  0.2436515E-005  0.1625889E+04  0.7818608E-02  0.8804800E-01
          2   -1    0    0  501    0  0.00000000000E+00  0.00000000000E+00  0.70393811474E+03  0.70393811474E+03  0.00000000000E+00 0.  1.
         -2   -1    0    0    0  501 -0.00000000000E+00 -0.00000000000E+00 -0.93883021486E+03  0.93883021486E+03  0.00000000000E+00 0. -1.
         23    2    1    2    0    0 -0.61951628279E+03 -0.23770069645E+03 -0.58797878194E+03  0.89112196952E+03  0.89873638004E+02 0.  0.
         11    1    3    3    0    0 -0.21648177834E+03 -0.43951678120E+02 -0.22316682097E+03  0.31400563744E+03  0.00000000000E+00 0. -1.
        -11    1    3    3    0    0 -0.40303450445E+03 -0.19374901833E+03 -0.36481196097E+03  0.57711633208E+03  0.00000000000E+00 0.  1.
         22    1    1    2    0    0  0.61951628279E+03  0.23770069645E+03  0.35308668183E+03  0.75164636008E+03  0.00000000000E+00 0.  1.
<mgrwt>
<rscale>  0 0.16258885E+04</rscale>
<asrwt>0</asrwt>
<pdfrwt beam="1">  1        2 0.10829817E+00 0.16258885E+04</pdfrwt>
<pdfrwt beam="2">  1       -2 0.14443542E+00 0.16258885E+04</pdfrwt>
<totfact> 0.12882885E+01</totfact>
</mgrwt>
</event>
<event>
 6    1  0.2436515E-005  0.1057348E+04  0.7818608E-02  0.9247790E-01
         -2   -1    0    0    0  501 -0.00000000000E+00  0.00000000000E+00  0.12848321610E+03  0.12848321610E+03  0.00000000000E+00 0. -1.
          2   -1    0    0  501    0  0.00000000000E+00 -0.00000000000E+00 -0.21753514812E+04  0.21753514812E+04  0.00000000000E+00 0.  1.
         23    2    1    2    0    0 -0.49620823125E+03 -0.20790997768E+02 -0.66272177401E+03  0.83328500988E+03  0.92243610107E+02 0.  0.
         13    1    3    3    0    0 -0.46835831560E+03  0.17367292857E+01 -0.60133526942E+03  0.76221167287E+03  0.00000000000E+00 0. -1.
        -13    1    3    3    0    0 -0.27849915649E+02 -0.22527727054E+02 -0.61386504593E+02  0.71073337012E+02  0.00000000000E+00 0.  1.
         22    1    1    2    0    0  0.49620823125E+03  0.20790997768E+02 -0.13841464911E+04  0.14705496874E+04  0.00000000000E+00 0.  1.
<mgrwt>
<rscale>  0 0.10573479E+04</rscale>
<asrwt>0</asrwt>
<pdfrwt beam="1">  1        2 0.33466944E+00 0.10573479E+04</pdfrwt>
<pdfrwt beam="2">  1       -2 0.19766649E-01 0.10573479E+04</pdfrwt>
<totfact> 0.11635111E+02</totfact>
</mgrwt>
</event>
<event>
 6    1  0.2436515E-005  0.1310650E+04  0.7818608E-02  0.9021162E-01
         -1   -1    0    0    0  501 -0.00000000000E+00  0.00000000000E+00  0.21343288410E+03  0.21343288410E+03  0.00000000000E+00 0.  1.
          1   -1    0    0  501    0  0.00000000000E+00 -0.00000000000E+00 -0.20121133249E+04  0.20121133249E+04  0.00000000000E+00 0. -1.
         23    2    1    2    0    0 -0.40487150747E+03  0.38273864786E+03 -0.32806449637E+03  0.65293021450E+03  0.91004071906E+02 0.  0.
         11    1    3    3    0    0 -0.31342457950E+03  0.27863402355E+03 -0.28782503595E+03  0.50864047955E+03  0.00000000000E+00 0.  1.
        -11    1    3    3    0    0 -0.91446927967E+02  0.10410462431E+03 -0.40239460417E+02  0.14428973495E+03  0.00000000000E+00 0. -1.
         22    1    1    2    0    0  0.40487150747E+03 -0.38273864786E+03 -0.14706159444E+04  0.15726159945E+04  0.00000000000E+00 0. -1.
<mgrwt>
<rscale>  0 0.13106504E+04</rscale>
<asrwt>0</asrwt>
<pdfrwt beam="1">  1        1 0.30955588E+00 0.13106504E+04</pdfrwt>
<pdfrwt beam="2">  1       -1 0.32835830E-01 0.13106504E+04</pdfrwt>
<totfact> 0.25000472E+01</totfact>
</mgrwt>
</event>
<event>
 6    1  0.2436515E-005  0.4293143E+04  0.7818608E-02  0.7947887E-01
         -2   -1    0    0    0  501 -0.00000000000E+00  0.00000000000E+00  0.13333895799E+04  0.13333895799E+04  0.00000000000E+00 0.  1.
          2   -1    0    0  501    0  0.00000000000E+00 -0.00000000000E+00 -0.34556810021E+04  0.34556810021E+04  0.00000000000E+00 0. -1.
         23    2    1    2    0    0  0.59779315007E+03 -0.50864368369E+03 -0.32891731862E+04  0.33827675925E+04  0.91549380360E+02 0.  0.
         11    1    3    3    0    0  0.18213157678E+03 -0.14018252747E+03 -0.79923850379E+03  0.83162806483E+03  0.00000000000E+00 0. -1.
        -11    1    3    3    0    0  0.41566157328E+03 -0.36846115622E+03 -0.24899346824E+04  0.25511395277E+04  0.00000000000E+00 0.  1.
         22    1    1    2    0    0 -0.59779315007E+03  0.50864368369E+03  0.11668817640E+04  0.14063029895E+04  0.00000000000E+00 0.  1.
<mgrwt>
<rscale>  0 0.42931429E+04</rscale>
<asrwt>0</asrwt>
<pdfrwt beam="1">  1        2 0.53164322E+00 0.42931429E+04</pdfrwt>
<pdfrwt beam="2">  1       -2 0.20513686E+00 0.42931429E+04</pdfrwt>
<totfact> 0.82650126E-02</totfact>
</mgrwt>
</event>
<event>
 6    1  0.3340060E-005  0.3405489E+04  0.7818608E-02  0.8136560E-01
          2   -1    0    0  501    0  0.00000000000E+00  0.00000000000E+00  0.13047174421E+04  0.13047174421E+04  0.00000000000E+00 0.  1.
         -2   -1    0    0    0  501 -0.00000000000E+00 -0.00000000000E+00 -0.22221969512E+04  0.22221969512E+04  0.00000000000E+00 0. -1.
         23    2    1    2    0    0  0.43925191638E+03 -0.14816531524E+04  0.27826038772E+03  0.15729358338E+04  0.91978169829E+02 0.  0.
         11    1    3    3    0    0  0.17937853157E+03 -0.62420977526E+03  0.71219461424E+02  0.65336568077E+03  0.00000000000E+00 0.  1.
        -11    1    3    3    0    0  0.25987338481E+03 -0.85744337716E+03  0.20704092630E+03  0.91957015303E+03  0.00000000000E+00 0. -1.
         22    1    1    2    0    0 -0.43925191638E+03  0.14816531524E+04 -0.11957398969E+04  0.19539785595E+04  0.00000000000E+00 0. -1.
<mgrwt>
<rscale>  0 0.34054892E+04</rscale>
<asrwt>0</asrwt>
<pdfrwt beam="1">  1        2 0.20072576E+00 0.34054892E+04</pdfrwt>
<pdfrwt beam="2">  1       -2 0.34187645E+00 0.34054892E+04</pdfrwt>
<totfact> 0.23796498E-01</totfact>
</mgrwt>
</event>
<event>
 6    1  0.2436515E-005  0.4316176E+04  0.7818608E-02  0.7943634E-01
          2   -1    0    0  501    0  0.00000000000E+00  0.00000000000E+00  0.32771614967E+04  0.32771614967E+04  0.00000000000E+00 0.  1.
         -2   -1    0    0    0  501 -0.00000000000E+00 -0.00000000000E+00 -0.14211519476E+04  0.14211519476E+04  0.00000000000E+00 0. -1.
         23    2    1    2    0    0  0.47015962767E+03 -0.14327307912E+04  0.26075271160E+04  0.30135148662E+04  0.91140512949E+02 0.  0.
         11    1    3    3    0    0  0.18073546933E+03 -0.55487023526E+03  0.10987178786E+04  0.12440768725E+04  0.00000000000E+00 0. -1.
        -11    1    3    3    0    0  0.28942415834E+03 -0.87786055589E+03  0.15088092374E+04  0.17694379938E+04  0.00000000000E+00 0.  1.
         22    1    1    2    0    0 -0.47015962767E+03  0.14327307912E+04 -0.75151756683E+03  0.16847985781E+04  0.00000000000E+00 0. -1.
<mgrwt>
<rscale>  0 0.43161763E+04</rscale>
<asrwt>0</asrwt>
<pdfrwt beam="1">  1        2 0.50417869E+00 0.43161763E+04</pdfrwt>
<pdfrwt beam="2">  1       -2 0.21863876E+00 0.43161763E+04</pdfrwt>
<totfact> 0.89333721E-02</totfact>
</mgrwt>
</event>
<event>
 6    1  0.2436515E-005  0.7225798E+03  0.7818608E-02  0.9679378E-01
         -2   -1    0    0    0  501 -0.00000000000E+00  0.00000000000E+00  0.56670546994E+02  0.56670546994E+02  0.00000000000E+00 0. -1.
          2   -1    0    0  501    0  0.00000000000E+00 -0.00000000000E+00 -0.23033199279E+04  0.23033199279E+04  0.00000000000E+00 0.  1.
         23    2    1    2    0    0  0.14905284209E+03  0.28664862837E+03 -0.65683263842E+03  0.73767686139E+03  0.91399403995E+02 0.  0.
         13    1    3    3    0    0  0.11889845939E+03  0.19584769502E+03 -0.36884284540E+03  0.43420986618E+03  0.00000000000E+00 0. -1.
        -13    1    3    3    0    0  0.30154382700E+02  0.90800933355E+02 -0.28798979302E+03  0.30346699521E+03  0.00000000000E+00 0.  1.
         22    1    1    2    0    0 -0.14905284209E+03 -0.28664862837E+03 -0.15898167425E+04  0.16223136135E+04  0.00000000000E+00 0.  1.
<mgrwt>
<rscale>  0 0.72257982E+03</rscale>
<asrwt>0</asrwt>
<pdfrwt beam="1">  1        2 0.35435692E+00 0.72257982E+03</pdfrwt>
<pdfrwt beam="2">  1       -2 0.87185454E-02 0.72257982E+03</pdfrwt>
<totfact> 0.40012424E+02</totfact>
</mgrwt>
</event>
<event>
 6    1  0.2436515E-005  0.2484830E+04  0.7818608E-02  0.8408410E-01
          2   -1    0    0  501    0  0.00000000000E+00  0.00000000000E+00  0.21482680270E+04  0.21482680270E+04  0.00000000000E+00 0.  1.
         -2   -1    0    0    0  501 -0.00000000000E+00 -0.00000000000E+00 -0.71852981967E+03  0.71852981967E+03  0.00000000000E+00 0. -1.
         23    2    1    2    0    0  0.10095370685E+04 -0.51391477443E+03  0.13095065160E+03  0.11433934823E+04  0.83229167058E+02 0.  0.
         11    1    3    3    0    0  0.63103286225E+03 -0.27614091700E+03  0.85619610872E+02  0.69410877897E+03  0.00000000000E+00 0. -1.
        -11    1    3    3    0    0  0.37850420625E+03 -0.23777385743E+03  0.45331040724E+02  0.44928470337E+03  0.00000000000E+00 0.  1.
         22    1    1    2    0    0 -0.10095370685E+04  0.51391477443E+03  0.12987875557E+04  0.17234043643E+04  0.00000000000E+00 0. -1.
<mgrwt>
<rscale>  0 0.24848297E+04</rscale>
<asrwt>0</asrwt>
<pdfrwt beam="1">  1        2 0.33050277E+00 0.24848297E+04</pdfrwt>
<pdfrwt beam="2">  1       -2 0.11054305E+00 0.24848297E+04</pdfrwt>
<totfact> 0.32006440E+00</totfact>
</mgrwt>
</event>
<event>
 6    1  0.2436515E-005  0.1035652E+04  0.7818608E-02  0.9270284E-01
          2   -1    0    0  501    0  0.00000000000E+00  0.00000000000E+00  0.25645114807E+04  0.25645114807E+04  0.00000000000E+00 0.  1.
         -2   -1    0    0    0  501 -0.00000000000E+00 -0.00000000000E+00 -0.10455946373E+03  0.10455946373E+03  0.00000000000E+00 0. -1.
         23    2    1    2    0    0 -0.37276648709E+03 -0.33786706845E+03  0.15087392218E+04  0.15930064521E+04  0.90920335459E+02 0.  0.
         13    1    3    3    0    0 -0.23406548563E+03 -0.26579087695E+03  0.10054281903E+04  0.10659818421E+04  0.00000000000E+00 0.  1.
        -13    1    3    3    0    0 -0.13870100145E+03 -0.72076191500E+02  0.50331103142E+03  0.52702460999E+03  0.00000000000E+00 0. -1.
         22    1    1    2    0    0  0.37276648709E+03  0.33786706845E+03  0.95121279524E+03  0.10760644923E+04  0.00000000000E+00 0. -1.
<mgrwt>
<rscale>  0 0.10356523E+04</rscale>
<asrwt>0</asrwt>
<pdfrwt beam="1">  1        2 0.39454018E+00 0.10356523E+04</pdfrwt>
<pdfrwt beam="2">  1       -2 0.16086073E-01 0.10356523E+04</pdfrwt>
<totfact> 0.10040114E+02</totfact>
</mgrwt>
</event>
<event>
 6    1  0.2436515E-005  0.1469006E+04  0.7818608E-02  0.8905329E-01
          2   -1    0    0  501    0  0.00000000000E+00  0.00000000000E+00  0.10716962827E+04  0.10716962827E+04  0.00000000000E+00 0.  1.
         -2   -1    0    0    0  501 -0.00000000000E+00 -0.00000000000E+00 -0.50340240653E+03  0.50340240653E+03  0.00000000000E+00 0. -1.
         23    2    1    2    0    0 -0.15921416385E+03 -0.54063501621E+03  0.78547610438E+03  0.97110904453E+03  0.91895022231E+02 0.  0.
         11    1    3    3    0    0 -0.10440243635E+03 -0.44711957284E+03  0.59018570800E+03  0.74775326884E+03  0.00000000000E+00 0. -1.
        -11    1    3    3    0    0 -0.54811727508E+02 -0.93515443370E+02  0.19529039637E+03  0.22335577569E+03  0.00000000000E+00 0.  1.
         22    1    1    2    0    0  0.15921416385E+03  0.54063501621E+03 -0.21718222816E+03  0.60398964474E+03  0.00000000000E+00 0. -1.
<mgrwt>
<rscale>  0 0.14690058E+04</rscale>
<asrwt>0</asrwt>
<pdfrwt beam="1">  1        2 0.16487635E+00 0.14690058E+04</pdfrwt>
<pdfrwt beam="2">  1       -2 0.77446524E-01 0.14690058E+04</pdfrwt>
<totfact> 0.32667778E+01</totfact>
</mgrwt>
</event>
<event>
 6    1  0.2436515E-005  0.1691093E+04  0.7818608E-02  0.8766461E-01
         -2   -1    0    0    0  501 -0.00000000000E+00  0.00000000000E+00  0.36519918251E+03  0.36519918251E+03  0.00000000000E+00 0. -1.
          2   -1    0    0  501    0  0.00000000000E+00 -0.00000000000E+00 -0.19576951997E+04  0.19576951997E+04  0.00000000000E+00 0.  1.
         23    2    1    2    0    0  0.44599202395E+03 -0.32332597743E+03 -0.16751511518E+04  0.17658661564E+04  0.93291627690E+02 0.  0.
         13    1    3    3    0    0  0.82766646999E+01 -0.74153358475E+01 -0.10351377540E+03  0.10410855912E+03  0.00000000000E+00 0.  1.
        -13    1    3    3    0    0  0.43771535925E+03 -0.31591064158E+03 -0.15716373764E+04  0.16617575973E+04  0.00000000000E+00 0. -1.
         22    1    1    2    0    0 -0.44599202395E+03  0.32332597743E+03  0.82655134582E+02  0.55702822584E+03  0.00000000000E+00 0. -1.
<mgrwt>
<rscale>  0 0.16910928E+04</rscale>
<asrwt>0</asrwt>
<pdfrwt beam="1">  1        2 0.30118387E+00 0.16910928E+04</pdfrwt>
<pdfrwt beam="2">  1       -2 0.56184491E-01 0.16910928E+04</pdfrwt>
<totfact> 0.19973665E+01</totfact>
</mgrwt>
</event>
<event>
 6    1  0.2436515E-005  0.2984294E+04  0.7818608E-02  0.8248230E-01
         -2   -1    0    0    0  501 -0.00000000000E+00  0.00000000000E+00  0.11857878096E+04  0.11857878096E+04  0.00000000000E+00 0. -1.
          2   -1    0    0  501    0  0.00000000000E+00 -0.00000000000E+00 -0.18776564222E+04  0.18776564222E+04  0.00000000000E+00 0.  1.
         23    2    1    2    0    0 -0.40172662239E+03 -0.11354852995E+04 -0.12479370629E+04  0.17368232362E+04  0.92178612712E+02 0.  0.
         13    1    3    3    0    0 -0.75364483805E+02 -0.32936710988E+03 -0.32880875975E+03  0.47146335910E+03  0.00000000000E+00 0. -1.
        -13    1    3    3    0    0 -0.32636213859E+03 -0.80611818957E+03 -0.91912830313E+03  0.12653598771E+04  0.00000000000E+00 0.  1.
         22    1    1    2    0    0  0.40172662239E+03  0.11354852995E+04  0.55606845030E+03  0.13266209955E+04  0.00000000000E+00 0. -1.
<mgrwt>
<rscale>  0 0.29842936E+04</rscale>
<asrwt>0</asrwt>
<pdfrwt beam="1">  1        2 0.28887022E+00 0.29842936E+04</pdfrwt>
<pdfrwt beam="2">  1       -2 0.18242889E+00 0.29842936E+04</pdfrwt>
<totfact> 0.11685990E+00</totfact>
</mgrwt>
</event>
<event>
 6    1  0.2436515E-005  0.2613300E+04  0.7818608E-02  0.8363697E-01
         -2   -1    0    0    0  501 -0.00000000000E+00  0.00000000000E+00  0.12979136701E+04  0.12979136701E+04  0.00000000000E+00 0. -1.
          2   -1    0    0  501    0  0.00000000000E+00 -0.00000000000E+00 -0.13154456113E+04  0.13154456113E+04  0.00000000000E+00 0.  1.
         23    2    1    2    0    0 -0.28771724421E+03 -0.47340803785E+03 -0.11903894293E+04  0.13162505464E+04  0.92693714160E+02 0.  0.
         13    1    3    3    0    0 -0.10454317138E+03 -0.17135769361E+03 -0.54031449987E+03  0.57639612474E+03  0.00000000000E+00 0. -1.
        -13    1    3    3    0    0 -0.18317407283E+03 -0.30205034424E+03 -0.65007492946E+03  0.73985442171E+03  0.00000000000E+00 0.  1.
         22    1    1    2    0    0  0.28771724421E+03  0.47340803785E+03  0.11728574881E+04  0.12971087350E+04  0.00000000000E+00 0. -1.
<mgrwt>
<rscale>  0 0.26133005E+04</rscale>
<asrwt>0</asrwt>
<pdfrwt beam="1">  1        2 0.20237625E+00 0.26133005E+04</pdfrwt>
<pdfrwt beam="2">  1       -2 0.19967903E+00 0.26133005E+04</pdfrwt>
<totfact> 0.19122249E+00</totfact>
</mgrwt>
</event>
<event>
 6    1  0.2436515E-005  0.1915235E+04  0.7818608E-02  0.8647310E-01
          2   -1    0    0  501    0  0.00000000000E+00  0.00000000000E+00  0.27938723926E+04  0.27938723926E+04  0.00000000000E+00 0. -1.
         -2   -1    0    0    0  501 -0.00000000000E+00 -0.00000000000E+00 -0.32822953649E+03  0.32822953649E+03  0.00000000000E+00 0.  1.
         23    2    1    2    0    0 -0.34895671656E+03 -0.86043162405E+03  0.16030463169E+04  0.18547479299E+04  0.90658809728E+02 0.  0.
         13    1    3    3    0    0 -0.55375974221E+02 -0.24314675584E+03  0.42953122785E+03  0.49667284917E+03  0.00000000000E+00 0.  1.
        -13    1    3    3    0    0 -0.29358074234E+03 -0.61728486821E+03  0.11735150890E+04  0.13580750807E+04  0.00000000000E+00 0. -1.
         22    1    1    2    0    0  0.34895671656E+03  0.86043162405E+03  0.86259653921E+03  0.12673539991E+04  0.00000000000E+00 0.  1.
<mgrwt>
<rscale>  0 0.19152352E+04</rscale>
<asrwt>0</asrwt>
<pdfrwt beam="1">  1        2 0.42982651E+00 0.19152352E+04</pdfrwt>
<pdfrwt beam="2">  1       -2 0.50496854E-01 0.19152352E+04</pdfrwt>
<totfact> 0.81059151E+00</totfact>
</mgrwt>
</event>
<event>
 6    1  0.2436515E-005  0.9101715E+03  0.7818608E-02  0.9412955E-01
          2   -1    0    0  501    0  0.00000000000E+00  0.00000000000E+00  0.32495218972E+04  0.32495218972E+04  0.00000000000E+00 0.  1.
         -2   -1    0    0    0  501 -0.00000000000E+00 -0.00000000000E+00 -0.63733387338E+02  0.63733387338E+02  0.00000000000E+00 0. -1.
         23    2    1    2    0    0  0.17733473495E+03  0.39333047419E+03  0.20806959526E+04  0.21269222662E+04  0.91357590746E+02 0.  0.
         11    1    3    3    0    0  0.94505946209E+02  0.25388882142E+03  0.10976339177E+04  0.11305711498E+04  0.00000000000E+00 0. -1.
        -11    1    3    3    0    0  0.82828788742E+02  0.13944165277E+03  0.98306203488E+03  0.99635111643E+03  0.00000000000E+00 0.  1.
         22    1    1    2    0    0 -0.17733473495E+03 -0.39333047419E+03  0.11050925573E+04  0.11863330183E+04  0.00000000000E+00 0. -1.
<mgrwt>
<rscale>  0 0.91017150E+03</rscale>
<asrwt>0</asrwt>
<pdfrwt beam="1">  1        2 0.49992632E+00 0.91017150E+03</pdfrwt>
<pdfrwt beam="2">  1       -2 0.98051391E-02 0.91017150E+03</pdfrwt>
<totfact> 0.89049003E+01</totfact>
</mgrwt>
</event>
<event>
 6    1  0.2436515E-005  0.1891969E+04  0.7818608E-02  0.8658864E-01
          2   -1    0    0  501    0  0.00000000000E+00  0.00000000000E+00  0.34856592600E+04  0.34856592600E+04  0.00000000000E+00 0.  1.
         -2   -1    0    0    0  501 -0.00000000000E+00 -0.00000000000E+00 -0.25673384343E+03  0.25673384343E+03  0.00000000000E+00 0. -1.
         23    2    1    2    0    0  0.42591582657E+03 -0.40029227692E+03  0.15256458967E+03  0.61099818494E+03  0.91676767493E+02 0.  0.
         13    1    3    3    0    0  0.14931930486E+03 -0.17373153316E+03  0.98627737651E+02  0.24941197055E+03  0.00000000000E+00 0.  1.
        -13    1    3    3    0    0  0.27659652171E+03 -0.22656074376E+03  0.53936852016E+02  0.36158621440E+03  0.00000000000E+00 0. -1.
         22    1    1    2    0    0 -0.42591582657E+03  0.40029227692E+03  0.30763608269E+04  0.31313949185E+04  0.00000000000E+00 0.  1.
<mgrwt>
<rscale>  0 0.18919690E+04</rscale>
<asrwt>0</asrwt>
<pdfrwt beam="1">  1        2 0.53625524E+00 0.18919690E+04</pdfrwt>
<pdfrwt beam="2">  1       -2 0.39497517E-01 0.18919690E+04</pdfrwt>
<totfact> 0.47592172E+00</totfact>
</mgrwt>
</event>
<event>
 6    1  0.2436515E-005  0.8734304E+03  0.7818608E-02  0.9459418E-01
          2   -1    0    0  501    0  0.00000000000E+00  0.00000000000E+00  0.48534173726E+03  0.48534173726E+03  0.00000000000E+00 0.  1.
         -2   -1    0    0    0  501 -0.00000000000E+00 -0.00000000000E+00 -0.39296061477E+03  0.39296061477E+03  0.00000000000E+00 0. -1.
         23    2    1    2    0    0 -0.98609309812E+02  0.27815781394E+02  0.46901085941E+03  0.48798520867E+03  0.87526361508E+02 0.  0.
         13    1    3    3    0    0 -0.27654082184E+02  0.27600396411E+01  0.31851526992E+03  0.31972541853E+03  0.00000000000E+00 0.  1.
        -13    1    3    3    0    0 -0.70955227628E+02  0.25055741753E+02  0.15049558949E+03  0.16825979014E+03  0.00000000000E+00 0. -1.
         22    1    1    2    0    0  0.98609309812E+02 -0.27815781394E+02 -0.37662973691E+03  0.39031714336E+03  0.00000000000E+00 0. -1.
<mgrwt>
<rscale>  0 0.87343045E+03</rscale>
<asrwt>0</asrwt>
<pdfrwt beam="1">  1        2 0.74667960E-01 0.87343045E+03</pdfrwt>
<pdfrwt beam="2">  1       -2 0.60455479E-01 0.87343045E+03</pdfrwt>
<totfact> 0.16329164E+02</totfact>
</mgrwt>
</event>
<event>
 6    1  0.2436515E-005  0.2680500E+04  0.7818608E-02  0.8341360E-01
         -2   -1    0    0    0  501 -0.00000000000E+00  0.00000000000E+00  0.16661473144E+04  0.16661473144E+04  0.00000000000E+00 0. -1.
          2   -1    0    0  501    0  0.00000000000E+00 -0.00000000000E+00 -0.10780976524E+04  0.10780976524E+04  0.00000000000E+00 0.  1.
         23    2    1    2    0    0 -0.29437186043E+03 -0.64585427916E+03  0.14564127415E+04  0.16227116504E+04  0.90953199113E+02 0.  0.
         11    1    3    3    0    0 -0.12085965530E+03 -0.36383529637E+03  0.82565428125E+03  0.91032311368E+03  0.00000000000E+00 0. -1.
        -11    1    3    3    0    0 -0.17351220513E+03 -0.28201898280E+03  0.63075846028E+03  0.71238853668E+03  0.00000000000E+00 0.  1.
         22    1    1    2    0    0  0.29437186043E+03  0.64585427916E+03 -0.86836307948E+03  0.11215333165E+04  0.00000000000E+00 0.  1.
<mgrwt>
<rscale>  0 0.26804996E+04</rscale>
<asrwt>0</asrwt>
<pdfrwt beam="1">  1        2 0.16586118E+00 0.26804996E+04</pdfrwt>
<pdfrwt beam="2">  1       -2 0.25633036E+00 0.26804996E+04</pdfrwt>
<totfact> 0.11605038E+00</totfact>
</mgrwt>
</event>
<event>
 6    1  0.2436515E-005  0.2030991E+04  0.7818608E-02  0.8592267E-01
         -2   -1    0    0    0  501 -0.00000000000E+00  0.00000000000E+00  0.13814600528E+04  0.13814600528E+04  0.00000000000E+00 0. -1.
          2   -1    0    0  501    0  0.00000000000E+00 -0.00000000000E+00 -0.74647913480E+03  0.74647913480E+03  0.00000000000E+00 0.  1.
         23    2    1    2    0    0 -0.94282235386E+03  0.20402704754E+03 -0.74554780304E+01  0.96894585285E+03  0.90881541296E+02 0.  0.
         11    1    3    3    0    0 -0.57341756605E+03  0.15888569594E+03  0.23671568347E+02  0.59549367131E+03  0.00000000000E+00 0.  1.
        -11    1    3    3    0    0 -0.36940478781E+03  0.45141351600E+02 -0.31127046377E+02  0.37345218154E+03  0.00000000000E+00 0. -1.
         22    1    1    2    0    0  0.94282235386E+03 -0.20402704754E+03  0.64243639606E+03  0.11589933348E+04  0.00000000000E+00 0. -1.
<mgrwt>
<rscale>  0 0.20309910E+04</rscale>
<asrwt>0</asrwt>
<pdfrwt beam="1">  1        2 0.11484294E+00 0.20309910E+04</pdfrwt>
<pdfrwt beam="2">  1       -2 0.21253232E+00 0.20309910E+04</pdfrwt>
<totfact> 0.38544094E+00</totfact>
</mgrwt>
</event>
<event>
 6    1  0.2436515E-005  0.2618736E+04  0.7818608E-02  0.8361865E-01
          2   -1    0    0  501    0  0.00000000000E+00  0.00000000000E+00  0.19176424379E+04  0.19176424379E+04  0.00000000000E+00 0.  1.
         -2   -1    0    0    0  501 -0.00000000000E+00 -0.00000000000E+00 -0.89403743525E+03  0.89403743525E+03  0.00000000000E+00 0. -1.
         23    2    1    2    0    0 -0.92419026624E+03 -0.69492435754E+03 -0.14353824062E+03  0.11687340855E+04  0.91041886795E+02 0.  0.
         11    1    3    3    0    0 -0.24546210930E+03 -0.20467726879E+03 -0.21097085167E+01  0.31960738779E+03  0.00000000000E+00 0. -1.
        -11    1    3    3    0    0 -0.67872815694E+03 -0.49024708875E+03 -0.14142853210E+03  0.84912669770E+03  0.00000000000E+00 0.  1.
         22    1    1    2    0    0  0.92419026624E+03  0.69492435754E+03  0.11671432433E+04  0.16429457877E+04  0.00000000000E+00 0.  1.
<mgrwt>
<rscale>  0 0.26187357E+04</rscale>
<asrwt>0</asrwt>
<pdfrwt beam="1">  1        2 0.29502191E+00 0.26187357E+04</pdfrwt>
<pdfrwt beam="2">  1       -2 0.13754422E+00 0.26187357E+04</pdfrwt>
<totfact> 0.24658308E+00</totfact>
</mgrwt>
</event>
<event>
 6    1  0.2436515E-005  0.1909984E+04  0.7818608E-02  0.8649903E-01
          2   -1    0    0  501    0  0.00000000000E+00  0.00000000000E+00  0.10917813128E+04  0.10917813128E+04  0.00000000000E+00 0.  1.
         -2   -1    0    0    0  501 -0.00000000000E+00 -0.00000000000E+00 -0.83534111274E+03  0.83534111274E+03  0.00000000000E+00 0. -1.
         23    2    1    2    0    0  0.93097295979E+03  0.23760245715E+02 -0.74986132412E+02  0.93862932237E+03  0.90149229636E+02 0.  0.
         11    1    3    3    0    0  0.31618025622E+03 -0.21199297839E+02 -0.56706581954E+02  0.32192390574E+03  0.00000000000E+00 0. -1.
        -11    1    3    3    0    0  0.61479270358E+03  0.44959543554E+02 -0.18279550458E+02  0.61670541662E+03  0.00000000000E+00 0.  1.
         22    1    1    2    0    0 -0.93097295979E+03 -0.23760245715E+02  0.33142633245E+03  0.98849310315E+03  0.00000000000E+00 0.  1.
<mgrwt>
<rscale>  0 0.19099841E+04</rscale>
<asrwt>0</asrwt>
<pdfrwt beam="1">  1        2 0.16796635E+00 0.19099841E+04</pdfrwt>
<pdfrwt beam="2">  1       -2 0.12851402E+00 0.19099841E+04</pdfrwt>
<totfact> 0.92240931E+00</totfact>
</mgrwt>
</event>
<event>
 6    1  0.2436515E-005  0.2012931E+04  0.7818608E-02  0.8600599E-01
         -2   -1    0    0    0  501 -0.00000000000E+00  0.00000000000E+00  0.11993764459E+04  0.11993764459E+04  0.00000000000E+00 0. -1.
          2   -1    0    0  501    0  0.00000000000E+00 -0.00000000000E+00 -0.84458267541E+03  0.84458267541E+03  0.00000000000E+00 0.  1.
         23    2    1    2    0    0  0.15101585378E+03 -0.45187004532E+03  0.10756125984E+04  0.11799150780E+04  0.90910964361E+02 0.  0.
         11    1    3    3    0    0  0.47298732920E+01 -0.80943562409E+02  0.12414793299E+03  0.14827994221E+03  0.00000000000E+00 0. -1.
        -11    1    3    3    0    0  0.14628598048E+03 -0.37092648291E+03  0.95146466543E+03  0.10316351358E+04  0.00000000000E+00 0.  1.
         22    1    1    2    0    0 -0.15101585378E+03  0.45187004532E+03 -0.72081882798E+03  0.86404404327E+03  0.00000000000E+00 0.  1.
<mgrwt>
<rscale>  0 0.20129308E+04</rscale>
<asrwt>0</asrwt>
<pdfrwt beam="1">  1        2 0.12993580E+00 0.20129308E+04</pdfrwt>
<pdfrwt beam="2">  1       -2 0.18451945E+00 0.20129308E+04</pdfrwt>
<totfact> 0.50142182E+00</totfact>
</mgrwt>
</event>
<event>
 6    1  0.2436515E-005  0.8296726E+03  0.7818608E-02  0.9518033E-01
          2   -1    0    0  501    0  0.00000000000E+00  0.00000000000E+00  0.23337868844E+04  0.23337868844E+04  0.00000000000E+00 0.  1.
         -2   -1    0    0    0  501 -0.00000000000E+00 -0.00000000000E+00 -0.73738161575E+02  0.73738161575E+02  0.00000000000E+00 0. -1.
         23    2    1    2    0    0 -0.35326465981E+03  0.20700548065E+03  0.11415969101E+04  0.12164827938E+04  0.94549953744E+02 0.  0.
         11    1    3    3    0    0 -0.19360064554E+03  0.15351541281E+03  0.58683053934E+03  0.63672464522E+03  0.00000000000E+00 0.  1.
        -11    1    3    3    0    0 -0.15966401427E+03  0.53490067842E+02  0.55476637071E+03  0.57975814862E+03  0.00000000000E+00 0. -1.
         22    1    1    2    0    0  0.35326465981E+03 -0.20700548065E+03  0.11184518128E+04  0.11910422521E+04  0.00000000000E+00 0.  1.
<mgrwt>
<rscale>  0 0.82967260E+03</rscale>
<asrwt>0</asrwt>
<pdfrwt beam="1">  1        2 0.35904408E+00 0.82967260E+03</pdfrwt>
<pdfrwt beam="2">  1       -2 0.11344334E-01 0.82967260E+03</pdfrwt>
<totfact> 0.24837346E+02</totfact>
</mgrwt>
</event>
<event>
 6    1  0.2436515E-005  0.1075743E+04  0.7818608E-02  0.9229163E-01
          2   -1    0    0  501    0  0.00000000000E+00  0.00000000000E+00  0.17168055574E+03  0.17168055574E+03  0.00000000000E+00 0.  1.
         -2   -1    0    0    0  501 -0.00000000000E+00 -0.00000000000E+00 -0.16851389639E+04  0.16851389639E+04  0.00000000000E+00 0. -1.
         23    2    1    2    0    0 -0.14956277563E+03  0.25398280129E+03  0.61064424570E+01  0.30893269482E+03  0.92335443269E+02 0.  0.
         13    1    3    3    0    0 -0.56831339804E+02  0.40894433385E+02 -0.25262851325E+02  0.74433645100E+02  0.00000000000E+00 0.  1.
        -13    1    3    3    0    0 -0.92731435825E+02  0.21308836791E+03  0.31369293782E+02  0.23449904972E+03  0.00000000000E+00 0. -1.
         22    1    1    2    0    0  0.14956277563E+03 -0.25398280129E+03 -0.15195648506E+04  0.15478868248E+04  0.00000000000E+00 0. -1.
<mgrwt>
<rscale>  0 0.10757427E+04</rscale>
<asrwt>0</asrwt>
<pdfrwt beam="1">  1        2 0.26412393E-01 0.10757427E+04</pdfrwt>
<pdfrwt beam="2">  1       -2 0.25925215E+00 0.10757427E+04</pdfrwt>
<totfact> 0.11615658E+01</totfact>
</mgrwt>
</event>
<event>
 6    1  0.2436515E-005  0.3149803E+04  0.7818608E-02  0.8202201E-01
         -2   -1    0    0    0  501 -0.00000000000E+00  0.00000000000E+00  0.13520579312E+04  0.13520579312E+04  0.00000000000E+00 0. -1.
          2   -1    0    0  501    0  0.00000000000E+00 -0.00000000000E+00 -0.18344733040E+04  0.18344733040E+04  0.00000000000E+00 0.  1.
         23    2    1    2    0    0 -0.39499140726E+03  0.79748207743E+03 -0.15542642307E+04  0.17933852092E+04  0.92180985786E+02 0.  0.
         11    1    3    3    0    0 -0.14691005350E+03  0.29474053415E+03 -0.66653034391E+03  0.74344955824E+03  0.00000000000E+00 0.  1.
        -11    1    3    3    0    0 -0.24808135376E+03  0.50274154328E+03 -0.88773388679E+03  0.10499356510E+04  0.00000000000E+00 0. -1.
         22    1    1    2    0    0  0.39499140726E+03 -0.79748207743E+03  0.10718488579E+04  0.13931460260E+04  0.00000000000E+00 0. -1.
<mgrwt>
<rscale>  0 0.31498026E+04</rscale>
<asrwt>0</asrwt>
<pdfrwt beam="1">  1        2 0.28222666E+00 0.31498026E+04</pdfrwt>
<pdfrwt beam="2">  1       -2 0.20800891E+00 0.31498026E+04</pdfrwt>
<totfact> 0.82351359E-01</totfact>
</mgrwt>
</event>
<event>
 6    1  0.2436515E-005  0.5853282E+03  0.7818608E-02  0.9936322E-01
          4   -1    0    0  501    0  0.00000000000E+00  0.00000000000E+00  0.26458785497E+03  0.26458785497E+03  0.00000000000E+00 0.  1.
         -4   -1    0    0    0  501 -0.00000000000E+00 -0.00000000000E+00 -0.32371958779E+03  0.32371958779E+03  0.00000000000E+00 0. -1.
         23    2    1    2    0    0  0.12083610181E+03  0.88246606131E+02 -0.27259056952E+03  0.32762851772E+03  0.10317945550E+03 0.  0.
         13    1    3    3    0    0  0.53734065544E+02  0.24491210274E+02 -0.20413362182E+03  0.21250342288E+03  0.00000000000E+00 0. -1.
        -13    1    3    3    0    0  0.67102036269E+02  0.63755395856E+02 -0.68456947701E+02  0.11512509484E+03  0.00000000000E+00 0.  1.
         22    1    1    2    0    0 -0.12083610181E+03 -0.88246606131E+02  0.21345883670E+03  0.26067892504E+03  0.00000000000E+00 0.  1.
<mgrwt>
<rscale>  0 0.58532819E+03</rscale>
<asrwt>0</asrwt>
<pdfrwt beam="1">  1        4 0.40705824E-01 0.58532819E+03</pdfrwt>
<pdfrwt beam="2">  1       -4 0.49803014E-01 0.58532819E+03</pdfrwt>
<totfact> 0.45063626E+01</totfact>
</mgrwt>
</event>
<event>
 6    1  0.2436515E-005  0.1290773E+04  0.7818608E-02  0.9036915E-01
         -4   -1    0    0    0  501 -0.00000000000E+00  0.00000000000E+00  0.96511370117E+03  0.96511370117E+03  0.00000000000E+00 0. -1.
          4   -1    0    0  501    0  0.00000000000E+00 -0.00000000000E+00 -0.43157969924E+03  0.43157969924E+03  0.00000000000E+00 0.  1.
         23    2    1    2    0    0  0.12540362391E+03  0.14580036057E+03 -0.39516747860E+03  0.44828934413E+03  0.88443122325E+02 0.  0.
         11    1    3    3    0    0  0.88344834837E+02  0.11403813581E+03 -0.36087492331E+03  0.38863892823E+03  0.00000000000E+00 0. -1.
        -11    1    3    3    0    0  0.37058789071E+02  0.31762224758E+02 -0.34292555295E+02  0.59650415905E+02  0.00000000000E+00 0.  1.
         22    1    1    2    0    0 -0.12540362391E+03 -0.14580036057E+03  0.92870148053E+03  0.94840405628E+03  0.00000000000E+00 0. -1.
<mgrwt>
<rscale>  0 0.12907726E+04</rscale>
<asrwt>0</asrwt>
<pdfrwt beam="1">  1        4 0.66396877E-01 0.12907726E+04</pdfrwt>
<pdfrwt beam="2">  1       -4 0.14847903E+00 0.12907726E+04</pdfrwt>
<totfact> 0.12606765E+00</totfact>
</mgrwt>
</event>
<event>
 6    1  0.2436515E-005  0.3316935E+04  0.7818608E-02  0.8158600E-01
         -2   -1    0    0    0  501 -0.00000000000E+00  0.00000000000E+00  0.87840494827E+03  0.87840494827E+03  0.00000000000E+00 0. -1.
          2   -1    0    0  501    0  0.00000000000E+00 -0.00000000000E+00 -0.31312595787E+04  0.31312595787E+04  0.00000000000E+00 0.  1.
         23    2    1    2    0    0  0.79453522783E+03 -0.94855125034E+03  0.20528429809E+03  0.12576683979E+04  0.92479474084E+02 0.  0.
         13    1    3    3    0    0  0.23907736667E+03 -0.23360536453E+03  0.31108268376E+02  0.33570400348E+03  0.00000000000E+00 0. -1.
        -13    1    3    3    0    0  0.55545786116E+03 -0.71494588581E+03  0.17417602971E+03  0.92196439437E+03  0.00000000000E+00 0.  1.
         22    1    1    2    0    0 -0.79453522783E+03  0.94855125034E+03 -0.24581389285E+04  0.27519961291E+04  0.00000000000E+00 0.  1.
<mgrwt>
<rscale>  0 0.33169347E+04</rscale>
<asrwt>0</asrwt>
<pdfrwt beam="1">  1        2 0.48173226E+00 0.33169347E+04</pdfrwt>
<pdfrwt beam="2">  1       -2 0.13513922E+00 0.33169347E+04</pdfrwt>
<totfact> 0.47114388E-01</totfact>
</mgrwt>
</event>
<event>
 6    1  0.2436515E-005  0.4388107E+04  0.7818608E-02  0.7930524E-01
         -2   -1    0    0    0  501 -0.00000000000E+00  0.00000000000E+00  0.14558761292E+04  0.14558761292E+04  0.00000000000E+00 0. -1.
          2   -1    0    0  501    0  0.00000000000E+00 -0.00000000000E+00 -0.33065119235E+04  0.33065119235E+04  0.00000000000E+00 0.  1.
         23    2    1    2    0    0 -0.31866573721E+03 -0.66822850663E+03  0.13147522176E+04  0.15115791603E+04  0.90669593393E+02 0.  0.
         13    1    3    3    0    0 -0.18557946543E+03 -0.40926762462E+03  0.88388579087E+03  0.99156130312E+03  0.00000000000E+00 0. -1.
        -13    1    3    3    0    0 -0.13308627178E+03 -0.25896088200E+03  0.43086642673E+03  0.52001785722E+03  0.00000000000E+00 0.  1.
         22    1    1    2    0    0  0.31866573721E+03  0.66822850663E+03 -0.31653880119E+04  0.32508088924E+04  0.00000000000E+00 0.  1.
<mgrwt>
<rscale>  0 0.43881075E+04</rscale>
<asrwt>0</asrwt>
<pdfrwt beam="1">  1        2 0.50869414E+00 0.43881075E+04</pdfrwt>
<pdfrwt beam="2">  1       -2 0.22398095E+00 0.43881075E+04</pdfrwt>
<totfact> 0.78541315E-02</totfact>
</mgrwt>
</event>
<event>
 6    1  0.2436515E-005  0.8911618E+03  0.7818608E-02  0.9436698E-01
          2   -1    0    0  501    0  0.00000000000E+00  0.00000000000E+00  0.11887531466E+04  0.11887531466E+04  0.00000000000E+00 0. -1.
         -2   -1    0    0    0  501 -0.00000000000E+00 -0.00000000000E+00 -0.16701730021E+03  0.16701730021E+03  0.00000000000E+00 0.  1.
         23    2    1    2    0    0  0.40517141991E+03 -0.19864982228E+02  0.25372895483E+03  0.48721239895E+03  0.91864259324E+02 0.  0.
         11    1    3    3    0    0  0.34128041117E+03  0.14597478705E+02  0.19157013632E+03  0.39164336144E+03  0.00000000000E+00 0. -1.
        -11    1    3    3    0    0  0.63891008738E+02 -0.34462460933E+02  0.62158818513E+02  0.95569037507E+02  0.00000000000E+00 0.  1.
         22    1    1    2    0    0 -0.40517141991E+03  0.19864982228E+02  0.76800689154E+03  0.86855804785E+03  0.00000000000E+00 0. -1.
<mgrwt>
<rscale>  0 0.89116181E+03</rscale>
<asrwt>0</asrwt>
<pdfrwt beam="1">  1        2 0.18288509E+00 0.89116181E+03</pdfrwt>
<pdfrwt beam="2">  1       -2 0.25694970E-01 0.89116181E+03</pdfrwt>
<totfact> 0.26291182E+02</totfact>
</mgrwt>
</event>
<event>
 6    1  0.2436515E-005  0.2649838E+04  0.7818608E-02  0.8351467E-01
          2   -1    0    0  501    0  0.00000000000E+00  0.00000000000E+00  0.27835837273E+04  0.27835837273E+04  0.00000000000E+00 0.  1.
         -2   -1    0    0    0  501 -0.00000000000E+00 -0.00000000000E+00 -0.63062973657E+03  0.63062973657E+03  0.00000000000E+00 0. -1.
         23    2    1    2    0    0 -0.59360205201E+03  0.11427955491E+04  0.68610752662E+03  0.14622955321E+04  0.96018862525E+02 0.  0.
         13    1    3    3    0    0 -0.13929305255E+03  0.33300651488E+03  0.22767405590E+03  0.42676851943E+03  0.00000000000E+00 0. -1.
        -13    1    3    3    0    0 -0.45430899946E+03  0.80978903418E+03  0.45843347072E+03  0.10355270127E+04  0.00000000000E+00 0.  1.
         22    1    1    2    0    0  0.59360205201E+03 -0.11427955491E+04  0.14668464641E+04  0.19519179317E+04  0.00000000000E+00 0.  1.
<mgrwt>
<rscale>  0 0.26498382E+04</rscale>
<asrwt>0</asrwt>
<pdfrwt beam="1">  1        2 0.42824364E+00 0.26498382E+04</pdfrwt>
<pdfrwt beam="2">  1       -2 0.97019961E-01 0.26498382E+04</pdfrwt>
<totfact> 0.18484641E+00</totfact>
</mgrwt>
</event>
<event>
 6    1  0.2436515E-005  0.3100435E+04  0.7818608E-02  0.8215619E-01
         -2   -1    0    0    0  501 -0.00000000000E+00  0.00000000000E+00  0.10880820520E+04  0.10880820520E+04  0.00000000000E+00 0. -1.
          2   -1    0    0  501    0  0.00000000000E+00 -0.00000000000E+00 -0.22086332655E+04  0.22086332655E+04  0.00000000000E+00 0.  1.
         23    2    1    2    0    0 -0.10936717669E+04  0.99954635102E+03 -0.10407739060E+04  0.18129446950E+04  0.91363570803E+02 0.  0.
         11    1    3    3    0    0 -0.69510557561E+03  0.60166008397E+03 -0.60019427107E+03  0.10979070001E+04  0.00000000000E+00 0.  1.
        -11    1    3    3    0    0 -0.39856619127E+03  0.39788626705E+03 -0.44057963491E+03  0.71503769483E+03  0.00000000000E+00 0. -1.
         22    1    1    2    0    0  0.10936717669E+04 -0.99954635102E+03 -0.79777307607E+02  0.14837706225E+04  0.00000000000E+00 0. -1.
<mgrwt>
<rscale>  0 0.31004349E+04</rscale>
<asrwt>0</asrwt>
<pdfrwt beam="1">  1        2 0.33978973E+00 0.31004349E+04</pdfrwt>
<pdfrwt beam="2">  1       -2 0.16739724E+00 0.31004349E+04</pdfrwt>
<totfact> 0.96444461E-01</totfact>
</mgrwt>
</event>
<event>
 6    1  0.2436515E-005  0.1910405E+04  0.7818608E-02  0.8649694E-01
          2   -1    0    0  501    0  0.00000000000E+00  0.00000000000E+00  0.35229606148E+04  0.35229606148E+04  0.00000000000E+00 0.  1.
         -2   -1    0    0    0  501 -0.00000000000E+00 -0.00000000000E+00 -0.25899013578E+03  0.25899013578E+03  0.00000000000E+00 0. -1.
         23    2    1    2    0    0 -0.35081542071E+03 -0.66593715594E+03  0.47807028115E+03  0.89616079502E+03  0.89494255366E+02 0.  0.
         13    1    3    3    0    0  0.16788338343E+01 -0.33053111661E+02  0.27627024822E+02  0.43111241852E+02  0.00000000000E+00 0. -1.
        -13    1    3    3    0    0 -0.35249425454E+03 -0.63288404428E+03  0.45044325633E+03  0.85304955317E+03  0.00000000000E+00 0.  1.
         22    1    1    2    0    0  0.35081542071E+03  0.66593715594E+03  0.27859001979E+04  0.28857899556E+04  0.00000000000E+00 0.  1.
<mgrwt>
<rscale>  0 0.19104052E+04</rscale>
<asrwt>0</asrwt>
<pdfrwt beam="1">  1        2 0.54199391E+00 0.19104052E+04</pdfrwt>
<pdfrwt beam="2">  1       -2 0.39844639E-01 0.19104052E+04</pdfrwt>
<totfact> 0.43988668E+00</totfact>
</mgrwt>
</event>
<event>
 6    1  0.2736531E-005  0.2576793E+04  0.7818608E-02  0.8376127E-01
          1   -1    0    0  501    0  0.00000000000E+00  0.00000000000E+00  0.16108822995E+04  0.16108822995E+04  0.00000000000E+00 0.  1.
         -1   -1    0    0    0  501 -0.00000000000E+00 -0.00000000000E+00 -0.10304694009E+04  0.10304694009E+04  0.00000000000E+00 0. -1.
         23    2    1    2    0    0 -0.10405749041E+04 -0.60674158169E+03 -0.17331609215E+03  0.12204228248E+04  0.91988725871E+02 0.  0.
         11    1    3    3    0    0 -0.51223098696E+03 -0.26729826073E+03 -0.12055375571E+03  0.59022212108E+03  0.00000000000E+00 0. -1.
        -11    1    3    3    0    0 -0.52834391710E+03 -0.33944332097E+03 -0.52762336438E+02  0.63020070377E+03  0.00000000000E+00 0.  1.
         22    1    1    2    0    0  0.10405749041E+04  0.60674158169E+03  0.75372899071E+03  0.14209288755E+04  0.00000000000E+00 0. -1.
<mgrwt>
<rscale>  0 0.25767925E+04</rscale>
<asrwt>0</asrwt>
<pdfrwt beam="1">  1        1 0.24782804E+00 0.25767925E+04</pdfrwt>
<pdfrwt beam="2">  1       -1 0.15853376E+00 0.25767925E+04</pdfrwt>
<totfact> 0.14514002E+00</totfact>
</mgrwt>
</event>
<event>
 6    1  0.2436515E-005  0.2766308E+04  0.7818608E-02  0.8313805E-01
          2   -1    0    0  501    0  0.00000000000E+00  0.00000000000E+00  0.25439010945E+04  0.25439010945E+04  0.00000000000E+00 0.  1.
         -2   -1    0    0    0  501 -0.00000000000E+00 -0.00000000000E+00 -0.75204003592E+03  0.75204003592E+03  0.00000000000E+00 0. -1.
         23    2    1    2    0    0 -0.57527124143E+03 -0.12003889967E+04  0.13381343332E+04  0.18896201551E+04  0.90499127343E+02 0.  0.
         11    1    3    3    0    0 -0.20128253720E+03 -0.51860549892E+03  0.53935522602E+03  0.77483571363E+03  0.00000000000E+00 0. -1.
        -11    1    3    3    0    0 -0.37398870423E+03 -0.68178349775E+03  0.79877910722E+03  0.11147844414E+04  0.00000000000E+00 0.  1.
         22    1    1    2    0    0  0.57527124143E+03  0.12003889967E+04  0.45372672537E+03  0.14063209754E+04  0.00000000000E+00 0. -1.
<mgrwt>
<rscale>  0 0.27663083E+04</rscale>
<asrwt>0</asrwt>
<pdfrwt beam="1">  1        2 0.39136940E+00 0.27663083E+04</pdfrwt>
<pdfrwt beam="2">  1       -2 0.11569847E+00 0.27663083E+04</pdfrwt>
<totfact> 0.16635132E+00</totfact>
</mgrwt>
</event>
<event>
 6    1  0.3730382E-005  0.4683829E+04  0.7818608E-02  0.7879221E-01
         -2   -1    0    0    0  501 -0.00000000000E+00  0.00000000000E+00  0.17447547590E+04  0.17447547590E+04  0.00000000000E+00 0. -1.
          2   -1    0    0  501    0  0.00000000000E+00 -0.00000000000E+00 -0.31434581054E+04  0.31434581054E+04  0.00000000000E+00 0.  1.
         23    2    1    2    0    0 -0.15990700454E+04 -0.15733576428E+04 -0.98223460882E+00  0.22450890330E+04  0.89132030672E+02 0.  0.
         11    1    3    3    0    0 -0.65911676453E+03 -0.59509074008E+03  0.20803131191E+02  0.88825709593E+03  0.00000000000E+00 0.  1.
        -11    1    3    3    0    0 -0.93995328090E+03 -0.97826690269E+03 -0.21785365800E+02  0.13568319370E+04  0.00000000000E+00 0. -1.
         22    1    1    2    0    0  0.15990700454E+04  0.15733576428E+04 -0.13977211118E+04  0.26431238315E+04  0.00000000000E+00 0.  1.
<mgrwt>
<rscale>  0 0.46838290E+04</rscale>
<asrwt>0</asrwt>
<pdfrwt beam="1">  1        2 0.48360894E+00 0.46838290E+04</pdfrwt>
<pdfrwt beam="2">  1       -2 0.26842381E+00 0.46838290E+04</pdfrwt>
<totfact> 0.52160692E-02</totfact>
</mgrwt>
</event>
<event>
 6    1  0.2436515E-005  0.3200061E+04  0.7818608E-02  0.8188801E-01
          2   -1    0    0  501    0  0.00000000000E+00  0.00000000000E+00  0.29625462284E+04  0.29625462284E+04  0.00000000000E+00 0.  1.
         -2   -1    0    0    0  501 -0.00000000000E+00 -0.00000000000E+00 -0.86415444003E+03  0.86415444003E+03  0.00000000000E+00 0. -1.
         23    2    1    2    0    0 -0.50935829096E+03  0.13559459831E+04  0.18591430119E+04  0.23586150597E+04  0.92827169161E+02 0.  0.
         13    1    3    3    0    0 -0.45627847357E+03  0.12790112260E+04  0.17399650851E+04  0.22071561474E+04  0.00000000000E+00 0.  1.
        -13    1    3    3    0    0 -0.53079817395E+02  0.76934757024E+02  0.11917792687E+03  0.15145891227E+03  0.00000000000E+00 0. -1.
         22    1    1    2    0    0  0.50935829096E+03 -0.13559459831E+04  0.23924877642E+03  0.14680856087E+04  0.00000000000E+00 0. -1.
<mgrwt>
<rscale>  0 0.32000609E+04</rscale>
<asrwt>0</asrwt>
<pdfrwt beam="1">  1        2 0.45577634E+00 0.32000609E+04</pdfrwt>
<pdfrwt beam="2">  1       -2 0.13294684E+00 0.32000609E+04</pdfrwt>
<totfact> 0.63438734E-01</totfact>
</mgrwt>
</event>
<event>
 6    1  0.2436515E-005  0.1205525E+04  0.7818608E-02  0.9108034E-01
          2   -1    0    0  501    0  0.00000000000E+00  0.00000000000E+00  0.19683466116E+04  0.19683466116E+04  0.00000000000E+00 0.  1.
         -2   -1    0    0    0  501 -0.00000000000E+00 -0.00000000000E+00 -0.18458268004E+03  0.18458268004E+03  0.00000000000E+00 0. -1.
         23    2    1    2    0    0  0.38317285329E+03 -0.27024134943E+03  0.23098237652E+03  0.53089896513E+03  0.93000163857E+02 0.  0.
         13    1    3    3    0    0  0.17766420392E+03 -0.85714330395E+02  0.60518438557E+02  0.20633467279E+03  0.00000000000E+00 0. -1.
        -13    1    3    3    0    0  0.20550864937E+03 -0.18452701903E+03  0.17046393797E+03  0.32456429235E+03  0.00000000000E+00 0.  1.
         22    1    1    2    0    0 -0.38317285329E+03  0.27024134943E+03  0.15527815550E+04  0.16220303265E+04  0.00000000000E+00 0.  1.
<mgrwt>
<rscale>  0 0.12055251E+04</rscale>
<asrwt>0</asrwt>
<pdfrwt beam="1">  1        2 0.30282254E+00 0.12055251E+04</pdfrwt>
<pdfrwt beam="2">  1       -2 0.28397337E-01 0.12055251E+04</pdfrwt>
<totfact> 0.78030896E+01</totfact>
</mgrwt>
</event>
<event>
 6    1  0.2436515E-005  0.3727470E+04  0.7818608E-02  0.8061901E-01
          2   -1    0    0  501    0  0.00000000000E+00  0.00000000000E+00  0.12429495263E+04  0.12429495263E+04  0.00000000000E+00 0.  1.
         -2   -1    0    0    0  501 -0.00000000000E+00 -0.00000000000E+00 -0.27945687756E+04  0.27945687756E+04  0.00000000000E+00 0. -1.
         23    2    1    2    0    0  0.15658130710E+04 -0.64424249065E+03 -0.16153875525E+04  0.23431495828E+04  0.11854983180E+03 0.  0.
         13    1    3    3    0    0  0.76361327704E+03 -0.30768398250E+03 -0.86691544316E+03  0.11955404868E+04  0.00000000000E+00 0. -1.
        -13    1    3    3    0    0  0.80219979393E+03 -0.33655850815E+03 -0.74847210936E+03  0.11476090960E+04  0.00000000000E+00 0.  1.
         22    1    1    2    0    0 -0.15658130710E+04  0.64424249065E+03  0.63768303233E+02  0.16943687192E+04  0.00000000000E+00 0. -1.
<mgrwt>
<rscale>  0 0.37274699E+04</rscale>
<asrwt>0</asrwt>
<pdfrwt beam="1">  1        2 0.19122301E+00 0.37274699E+04</pdfrwt>
<pdfrwt beam="2">  1       -2 0.42993365E+00 0.37274699E+04</pdfrwt>
<totfact> 0.67839655E-02</totfact>
</mgrwt>
</event>
<event>
 6    1  0.2436515E-005  0.5255486E+03  0.7818608E-02  0.1007317E+00
          2   -1    0    0  501    0  0.00000000000E+00  0.00000000000E+00  0.18595208587E+04  0.18595208587E+04  0.00000000000E+00 0.  1.
         -2   -1    0    0    0  501 -0.00000000000E+00 -0.00000000000E+00 -0.37133407008E+02  0.37133407008E+02  0.00000000000E+00 0. -1.
         23    2    1    2    0    0 -0.22247982593E+03 -0.22220339411E+02  0.49537671703E+03  0.55093939756E+03  0.90250271944E+02 0.  0.
         11    1    3    3    0    0 -0.17075742930E+03 -0.18785972892E+02  0.45132482572E+03  0.48291315032E+03  0.00000000000E+00 0. -1.
        -11    1    3    3    0    0 -0.51722396630E+02 -0.34343665189E+01  0.44051891305E+02  0.68026247243E+02  0.00000000000E+00 0.  1.
         22    1    1    2    0    0  0.22247982593E+03  0.22220339411E+02  0.13270107346E+04  0.13457148681E+04  0.00000000000E+00 0.  1.
<mgrwt>
<rscale>  0 0.52554865E+03</rscale>
<asrwt>0</asrwt>
<pdfrwt beam="1">  1        2 0.28608006E+00 0.52554865E+03</pdfrwt>
<pdfrwt beam="2">  1       -2 0.57128333E-02 0.52554865E+03</pdfrwt>
<totfact> 0.13826747E+03</totfact>
</mgrwt>
</event>
<event>
 6    1  0.2436515E-005  0.2556674E+04  0.7818608E-02  0.8383069E-01
         -2   -1    0    0    0  501 -0.00000000000E+00  0.00000000000E+00  0.57094998533E+03  0.57094998533E+03  0.00000000000E+00 0. -1.
          2   -1    0    0  501    0  0.00000000000E+00 -0.00000000000E+00 -0.28621519209E+04  0.28621519209E+04  0.00000000000E+00 0.  1.
         23    2    1    2    0    0 -0.12545685042E+04 -0.23551082829E+03 -0.11939766711E+04  0.17498577876E+04  0.83752633367E+02 0.  0.
         11    1    3    3    0    0 -0.89095686319E+03 -0.20561683918E+03 -0.84984621228E+03  0.12483272813E+04  0.00000000000E+00 0. -1.
        -11    1    3    3    0    0 -0.36361164103E+03 -0.29893989114E+02 -0.34413045883E+03  0.50153050632E+03  0.00000000000E+00 0.  1.
         22    1    1    2    0    0  0.12545685042E+04  0.23551082829E+03 -0.10972252645E+04  0.16832441187E+04  0.00000000000E+00 0. -1.
<mgrwt>
<rscale>  0 0.25566741E+04</rscale>
<asrwt>0</asrwt>
<pdfrwt beam="1">  1        2 0.44033107E+00 0.25566741E+04</pdfrwt>
<pdfrwt beam="2">  1       -2 0.87838459E-01 0.25566741E+04</pdfrwt>
<totfact> 0.21027115E+00</totfact>
</mgrwt>
</event>
<event>
 6    1  0.2436515E-005  0.2362814E+04  0.7818608E-02  0.8453558E-01
         -2   -1    0    0    0  501 -0.00000000000E+00  0.00000000000E+00  0.69324619882E+03  0.69324619882E+03  0.00000000000E+00 0. -1.
          2   -1    0    0  501    0  0.00000000000E+00 -0.00000000000E+00 -0.20133144211E+04  0.20133144211E+04  0.00000000000E+00 0.  1.
         23    2    1    2    0    0 -0.13620438309E+03  0.10206089036E+04 -0.13204410160E+04  0.16769032463E+04  0.90806677042E+02 0.  0.
         13    1    3    3    0    0 -0.10267532469E+03  0.43857009520E+03 -0.59276695483E+03  0.74448546893E+03  0.00000000000E+00 0.  1.
        -13    1    3    3    0    0 -0.33529058402E+02  0.58203880841E+03 -0.72767406120E+03  0.93241777739E+03  0.00000000000E+00 0. -1.
         22    1    1    2    0    0  0.13620438309E+03 -0.10206089036E+04  0.37279371989E+00  0.10296573736E+04  0.00000000000E+00 0. -1.
<mgrwt>
<rscale>  0 0.23628141E+04</rscale>
<asrwt>0</asrwt>
<pdfrwt beam="1">  1        2 0.30974068E+00 0.23628141E+04</pdfrwt>
<pdfrwt beam="2">  1       -2 0.10665326E+00 0.23628141E+04</pdfrwt>
<totfact> 0.41939551E+00</totfact>
</mgrwt>
</event>
<event>
 6    1  0.2436515E-005  0.1982551E+04  0.7818608E-02  0.8614822E-01
         -2   -1    0    0    0  501 -0.00000000000E+00  0.00000000000E+00  0.38832601623E+03  0.38832601623E+03  0.00000000000E+00 0. -1.
          2   -1    0    0  501    0  0.00000000000E+00 -0.00000000000E+00 -0.25304182071E+04  0.25304182071E+04  0.00000000000E+00 0.  1.
         23    2    1    2    0    0 -0.20552802804E+03  0.44239352777E+03  0.19358583475E+03  0.53267095474E+03  0.91154083249E+02 0.  0.
         13    1    3    3    0    0 -0.15318126763E+03  0.22617621649E+03  0.93450612438E+02  0.28870954024E+03  0.00000000000E+00 0.  1.
        -13    1    3    3    0    0 -0.52346760407E+02  0.21621731128E+03  0.10013522231E+03  0.24396141451E+03  0.00000000000E+00 0. -1.
         22    1    1    2    0    0  0.20552802804E+03 -0.44239352777E+03 -0.23356780256E+04  0.23860732686E+04  0.00000000000E+00 0.  1.
<mgrwt>
<rscale>  0 0.19825511E+04</rscale>
<asrwt>0</asrwt>
<pdfrwt beam="1">  1        2 0.38929510E+00 0.19825511E+04</pdfrwt>
<pdfrwt beam="2">  1       -2 0.59742466E-01 0.19825511E+04</pdfrwt>
<totfact> 0.81326702E+00</totfact>
</mgrwt>
</event>
<event>
 6    1  0.2436515E-005  0.1163523E+04  0.7818608E-02  0.9145398E-01
          2   -1    0    0  501    0  0.00000000000E+00  0.00000000000E+00  0.89759540570E+03  0.89759540570E+03  0.00000000000E+00 0.  1.
         -2   -1    0    0    0  501 -0.00000000000E+00 -0.00000000000E+00 -0.37705898911E+03  0.37705898911E+03  0.00000000000E+00 0. -1.
         23    2    1    2    0    0  0.40067128756E+03 -0.23569411079E+03 -0.11480328560E+03  0.48741508449E+03  0.91128895865E+02 0.  0.
         11    1    3    3    0    0  0.27215776522E+03 -0.18396280728E+03 -0.11742276606E+03  0.34885565728E+03  0.00000000000E+00 0.  1.
        -11    1    3    3    0    0  0.12851352235E+03 -0.51731303510E+02  0.26194804594E+01  0.13855942720E+03  0.00000000000E+00 0. -1.
         22    1    1    2    0    0 -0.40067128756E+03  0.23569411079E+03  0.63533970219E+03  0.78723931032E+03  0.00000000000E+00 0.  1.
<mgrwt>
<rscale>  0 0.11635230E+04</rscale>
<asrwt>0</asrwt>
<pdfrwt beam="1">  1        2 0.13809160E+00 0.11635230E+04</pdfrwt>
<pdfrwt beam="2">  1       -2 0.58009075E-01 0.11635230E+04</pdfrwt>
<totfact> 0.80968773E+01</totfact>
</mgrwt>
</event>
<event>
 6    1  0.2436515E-005  0.2123754E+04  0.7818608E-02  0.8550851E-01
          2   -1    0    0  501    0  0.00000000000E+00  0.00000000000E+00  0.57773038799E+04  0.57773038799E+04  0.00000000000E+00 0.  1.
         -2   -1    0    0    0  501 -0.00000000000E+00 -0.00000000000E+00 -0.19517447522E+03  0.19517447522E+03  0.00000000000E+00 0. -1.
         23    2    1    2    0    0  0.54419592570E+03  0.80744038101E+03  0.39738423332E+04  0.40923995061E+04  0.90562981586E+02 0.  0.
         13    1    3    3    0    0  0.40416219038E+03  0.55857353317E+03  0.29484104909E+04  0.30279491229E+04  0.00000000000E+00 0. -1.
        -13    1    3    3    0    0  0.14003373531E+03  0.24886684784E+03  0.10254318423E+04  0.10644503831E+04  0.00000000000E+00 0.  1.
         22    1    1    2    0    0 -0.54419592570E+03 -0.80744038101E+03  0.16082870715E+04  0.18800788491E+04  0.00000000000E+00 0. -1.
<mgrwt>
<rscale>  0 0.21237535E+04</rscale>
<asrwt>0</asrwt>
<pdfrwt beam="1">  1        2 0.88881585E+00 0.21237535E+04</pdfrwt>
<pdfrwt beam="2">  1       -2 0.30026847E-01 0.21237535E+04</pdfrwt>
<totfact> 0.14975317E-02</totfact>
</mgrwt>
</event>
<event>
 6    1  0.2436515E-005  0.8067283E+03  0.7818608E-02  0.9550329E-01
         -2   -1    0    0    0  501 -0.00000000000E+00  0.00000000000E+00  0.59330229790E+03  0.59330229790E+03  0.00000000000E+00 0. -1.
          2   -1    0    0  501    0  0.00000000000E+00 -0.00000000000E+00 -0.27423228361E+03  0.27423228361E+03  0.00000000000E+00 0.  1.
         23    2    1    2    0    0 -0.17422355421E+03  0.11553288500E+03  0.52597897374E+03  0.57340363812E+03  0.91848554886E+02 0.  0.
         13    1    3    3    0    0 -0.79954737898E+02  0.10083363723E+03  0.24618140471E+03  0.27778672851E+03  0.00000000000E+00 0.  1.
        -13    1    3    3    0    0 -0.94268816313E+02  0.14699247769E+02  0.27979756903E+03  0.29561690961E+03  0.00000000000E+00 0. -1.
         22    1    1    2    0    0  0.17422355421E+03 -0.11553288500E+03 -0.20690895945E+03  0.29413094339E+03  0.00000000000E+00 0.  1.
<mgrwt>
<rscale>  0 0.80672832E+03</rscale>
<asrwt>0</asrwt>
<pdfrwt beam="1">  1        2 0.42189582E-01 0.80672832E+03</pdfrwt>
<pdfrwt beam="2">  1       -2 0.91277276E-01 0.80672832E+03</pdfrwt>
<totfact> 0.12502980E+02</totfact>
</mgrwt>
</event>
<event>
 6    1  0.2436515E-005  0.1920038E+04  0.7818608E-02  0.8644946E-01
          2   -1    0    0  501    0  0.00000000000E+00  0.00000000000E+00  0.56315373070E+03  0.56315373070E+03  0.00000000000E+00 0.  1.
         -2   -1    0    0    0  501 -0.00000000000E+00 -0.00000000000E+00 -0.16365635447E+04  0.16365635447E+04  0.00000000000E+00 0. -1.
         23    2    1    2    0    0  0.13228384504E+03  0.90755596904E+03 -0.22115065935E+03  0.94771786673E+03  0.90026041728E+02 0.  0.
         13    1    3    3    0    0  0.82311659430E+02  0.62949771831E+03 -0.19433904836E+03  0.66393542785E+03  0.00000000000E+00 0. -1.
        -13    1    3    3    0    0  0.49972185612E+02  0.27805825073E+03 -0.26811610995E+02  0.28378243888E+03  0.00000000000E+00 0.  1.
         22    1    1    2    0    0 -0.13228384504E+03 -0.90755596904E+03 -0.85225915460E+03  0.12519994086E+04  0.00000000000E+00 0. -1.
<mgrwt>
<rscale>  0 0.19200384E+04</rscale>
<asrwt>0</asrwt>
<pdfrwt beam="1">  1        2 0.86639037E-01 0.19200384E+04</pdfrwt>
<pdfrwt beam="2">  1       -2 0.25177900E+00 0.19200384E+04</pdfrwt>
<totfact> 0.31357988E+00</totfact>
</mgrwt>
</event>
<event>
 6    1  0.2436515E-005  0.2819016E+04  0.7818608E-02  0.8297389E-01
         -2   -1    0    0    0  501 -0.00000000000E+00  0.00000000000E+00  0.92336244325E+03  0.92336244325E+03  0.00000000000E+00 0. -1.
          2   -1    0    0  501    0  0.00000000000E+00 -0.00000000000E+00 -0.21516068724E+04  0.21516068724E+04  0.00000000000E+00 0.  1.
         23    2    1    2    0    0  0.76716615988E+03  0.28343758734E+03  0.63550780330E+03  0.10396675771E+04  0.90320098069E+02 0.  0.
         13    1    3    3    0    0  0.14586442369E+03  0.30493233587E+02  0.15120156335E+03  0.21229267570E+03  0.00000000000E+00 0. -1.
        -13    1    3    3    0    0  0.62130173619E+03  0.25294435375E+03  0.48430623995E+03  0.82737490144E+03  0.00000000000E+00 0.  1.
         22    1    1    2    0    0 -0.76716615988E+03 -0.28343758734E+03 -0.18637522325E+04  0.20353017385E+04  0.00000000000E+00 0.  1.
<mgrwt>
<rscale>  0 0.28190161E+04</rscale>
<asrwt>0</asrwt>
<pdfrwt beam="1">  1        2 0.33101644E+00 0.28190161E+04</pdfrwt>
<pdfrwt beam="2">  1       -2 0.14205576E+00 0.28190161E+04</pdfrwt>
<totfact> 0.16514650E+00</totfact>
</mgrwt>
</event>
<event>
 6    1  0.2436515E-005  0.2415289E+04  0.7818608E-02  0.8433802E-01
         -2   -1    0    0    0  501 -0.00000000000E+00  0.00000000000E+00  0.74312796870E+03  0.74312796870E+03  0.00000000000E+00 0. -1.
          2   -1    0    0  501    0  0.00000000000E+00 -0.00000000000E+00 -0.19625228312E+04  0.19625228312E+04  0.00000000000E+00 0.  1.
         23    2    1    2    0    0  0.79305663461E+03 -0.44884452609E+03 -0.14952711992E+04  0.17535436696E+04  0.93162266514E+02 0.  0.
         13    1    3    3    0    0  0.27760885316E+03 -0.10837187422E+03 -0.46730548945E+03  0.55424323085E+03  0.00000000000E+00 0. -1.
        -13    1    3    3    0    0  0.51544778145E+03 -0.34047265187E+03 -0.10279657097E+04  0.11993004388E+04  0.00000000000E+00 0.  1.
         22    1    1    2    0    0 -0.79305663461E+03  0.44884452609E+03  0.27587633671E+03  0.95210713024E+03  0.00000000000E+00 0. -1.
<mgrwt>
<rscale>  0 0.24152893E+04</rscale>
<asrwt>0</asrwt>
<pdfrwt beam="1">  1        2 0.30192659E+00 0.24152893E+04</pdfrwt>
<pdfrwt beam="2">  1       -2 0.11432738E+00 0.24152893E+04</pdfrwt>
<totfact> 0.37656907E+00</totfact>
</mgrwt>
</event>
<event>
 6    1  0.2436515E-005  0.2361562E+04  0.7818608E-02  0.8454036E-01
         -2   -1    0    0    0  501 -0.00000000000E+00  0.00000000000E+00  0.12143681761E+04  0.12143681761E+04  0.00000000000E+00 0. -1.
          2   -1    0    0  501    0  0.00000000000E+00 -0.00000000000E+00 -0.11481230562E+04  0.11481230562E+04  0.00000000000E+00 0.  1.
         23    2    1    2    0    0  0.43666086611E+03  0.85528312755E+03  0.71748170059E+03  0.12021934153E+04  0.91143166645E+02 0.  0.
         13    1    3    3    0    0  0.11922911109E+03  0.32990845547E+03  0.26179671239E+03  0.43771302076E+03  0.00000000000E+00 0.  1.
        -13    1    3    3    0    0  0.31743175502E+03  0.52537467208E+03  0.45568498819E+03  0.76448039453E+03  0.00000000000E+00 0. -1.
         22    1    1    2    0    0 -0.43666086611E+03 -0.85528312755E+03 -0.65123658062E+03  0.11602978170E+04  0.00000000000E+00 0.  1.
<mgrwt>
<rscale>  0 0.23615623E+04</rscale>
<asrwt>0</asrwt>
<pdfrwt beam="1">  1        2 0.17663432E+00 0.23615623E+04</pdfrwt>
<pdfrwt beam="2">  1       -2 0.18682587E+00 0.23615623E+04</pdfrwt>
<totfact> 0.29898336E+00</totfact>
</mgrwt>
</event>
<event>
 6    1  0.2436515E-005  0.2362268E+04  0.7818608E-02  0.8453766E-01
          2   -1    0    0  501    0  0.00000000000E+00  0.00000000000E+00  0.15238942277E+04  0.15238942277E+04  0.00000000000E+00 0.  1.
         -2   -1    0    0    0  501 -0.00000000000E+00 -0.00000000000E+00 -0.91546903482E+03  0.91546903482E+03  0.00000000000E+00 0. -1.
         23    2    1    2    0    0  0.13601078586E+03  0.41388484240E+03 -0.82707884304E+03  0.93920612617E+03  0.90824766431E+02 0.  0.
         11    1    3    3    0    0  0.17050623271E+02  0.11555584341E+03 -0.30058564726E+03  0.32248350041E+03  0.00000000000E+00 0. -1.
        -11    1    3    3    0    0  0.11896016259E+03  0.29832899898E+03 -0.52649319578E+03  0.61672262576E+03  0.00000000000E+00 0.  1.
         22    1    1    2    0    0 -0.13601078586E+03 -0.41388484240E+03  0.14355040359E+04  0.15001571364E+04  0.00000000000E+00 0.  1.
<mgrwt>
<rscale>  0 0.23622684E+04</rscale>
<asrwt>0</asrwt>
<pdfrwt beam="1">  1        2 0.23444527E+00 0.23622684E+04</pdfrwt>
<pdfrwt beam="2">  1       -2 0.14084139E+00 0.23622684E+04</pdfrwt>
<totfact> 0.39256035E+00</totfact>
</mgrwt>
</event>
<event>
 6    1  0.2436515E-005  0.1212371E+04  0.7818608E-02  0.9102097E-01
          2   -1    0    0  501    0  0.00000000000E+00  0.00000000000E+00  0.46985351800E+03  0.46985351800E+03  0.00000000000E+00 0. -1.
         -2   -1    0    0    0  501 -0.00000000000E+00 -0.00000000000E+00 -0.78207546754E+03  0.78207546754E+03  0.00000000000E+00 0.  1.
         23    2    1    2    0    0  0.94618182265E+02  0.56403605153E+03 -0.35340293259E+03  0.67853109471E+03  0.91768981060E+02 0.  0.
         11    1    3    3    0    0  0.20702919910E+02  0.35323891395E+03 -0.18886857472E+03  0.40109559925E+03  0.00000000000E+00 0. -1.
        -11    1    3    3    0    0  0.73915262355E+02  0.21079713758E+03 -0.16453435787E+03  0.27743549546E+03  0.00000000000E+00 0.  1.
         22    1    1    2    0    0 -0.94618182265E+02 -0.56403605153E+03  0.41180983054E+02  0.57339789083E+03  0.00000000000E+00 0. -1.
<mgrwt>
<rscale>  0 0.12123711E+04</rscale>
<asrwt>0</asrwt>
<pdfrwt beam="1">  1        2 0.72285157E-01 0.12123711E+04</pdfrwt>
<pdfrwt beam="2">  1       -2 0.12031930E+00 0.12123711E+04</pdfrwt>
<totfact> 0.34408706E+01</totfact>
</mgrwt>
</event>
<event>
 6    1  0.2436515E-005  0.1148946E+04  0.7818608E-02  0.9158756E-01
          2   -1    0    0  501    0  0.00000000000E+00  0.00000000000E+00  0.20509149627E+04  0.20509149627E+04  0.00000000000E+00 0.  1.
         -2   -1    0    0    0  501 -0.00000000000E+00 -0.00000000000E+00 -0.16091330746E+03  0.16091330746E+03  0.00000000000E+00 0. -1.
         23    2    1    2    0    0  0.45544152462E+03  0.15224235687E+02  0.16128385724E+04  0.16784633536E+04  0.91280935035E+02 0.  0.
         11    1    3    3    0    0  0.21434298023E+03  0.13546849216E+01  0.92342141171E+03  0.94797249535E+03  0.00000000000E+00 0.  1.
        -11    1    3    3    0    0  0.24109854439E+03  0.13869550765E+02  0.68941716070E+03  0.73049085826E+03  0.00000000000E+00 0. -1.
         22    1    1    2    0    0 -0.45544152462E+03 -0.15224235687E+02  0.27716308282E+03  0.53336491652E+03  0.00000000000E+00 0. -1.
<mgrwt>
<rscale>  0 0.11489465E+04</rscale>
<asrwt>0</asrwt>
<pdfrwt beam="1">  1        2 0.31552536E+00 0.11489465E+04</pdfrwt>
<pdfrwt beam="2">  1       -2 0.24755895E-01 0.11489465E+04</pdfrwt>
<totfact> 0.90676705E+01</totfact>
</mgrwt>
</event>
<event>
 6    1  0.2436515E-005  0.5024552E+04  0.7818608E-02  0.7824731E-01
          2   -1    0    0  501    0  0.00000000000E+00  0.00000000000E+00  0.27371688093E+04  0.27371688093E+04  0.00000000000E+00 0.  1.
         -2   -1    0    0    0  501 -0.00000000000E+00 -0.00000000000E+00 -0.23058606381E+04  0.23058606381E+04  0.00000000000E+00 0. -1.
         23    2    1    2    0    0 -0.82921489866E+03 -0.61054055479E+03 -0.20833471313E+04  0.23257056891E+04  0.90634239438E+02 0.  0.
         13    1    3    3    0    0 -0.53814308255E+03 -0.34459999186E+03 -0.13207552623E+04  0.14672224080E+04  0.00000000000E+00 0. -1.
        -13    1    3    3    0    0 -0.29107181611E+03 -0.26594056293E+03 -0.76259186902E+03  0.85848328105E+03  0.00000000000E+00 0.  1.
         22    1    1    2    0    0  0.82921489866E+03  0.61054055479E+03  0.25146553025E+04  0.27173237584E+04  0.00000000000E+00 0.  1.
<mgrwt>
<rscale>  0 0.50245516E+04</rscale>
<asrwt>0</asrwt>
<pdfrwt beam="1">  1        2 0.42110289E+00 0.50245516E+04</pdfrwt>
<pdfrwt beam="2">  1       -2 0.35474779E+00 0.50245516E+04</pdfrwt>
<totfact> 0.26618711E-02</totfact>
</mgrwt>
</event>
<event>
 6    1  0.2436515E-005  0.4721888E+04  0.7818608E-02  0.7872902E-01
          2   -1    0    0  501    0  0.00000000000E+00  0.00000000000E+00  0.37259760556E+04  0.37259760556E+04  0.00000000000E+00 0.  1.
         -2   -1    0    0    0  501 -0.00000000000E+00 -0.00000000000E+00 -0.14959990673E+04  0.14959990673E+04  0.00000000000E+00 0. -1.
         23    2    1    2    0    0 -0.72969971602E+03 -0.17690978205E+04 -0.41204938274E+03  0.19596949204E+04  0.91927760630E+02 0.  0.
         13    1    3    3    0    0 -0.29555100032E+03 -0.70245726703E+03 -0.11848212156E+03  0.77125522295E+03  0.00000000000E+00 0.  1.
        -13    1    3    3    0    0 -0.43414871569E+03 -0.10666405535E+04 -0.29356726118E+03  0.11884396975E+04  0.00000000000E+00 0. -1.
         22    1    1    2    0    0  0.72969971602E+03  0.17690978205E+04  0.26420263710E+04  0.32622802024E+04  0.00000000000E+00 0.  1.
<mgrwt>
<rscale>  0 0.47218881E+04</rscale>
<asrwt>0</asrwt>
<pdfrwt beam="1">  1        2 0.57322708E+00 0.47218881E+04</pdfrwt>
<pdfrwt beam="2">  1       -2 0.23015370E+00 0.47218881E+04</pdfrwt>
<totfact> 0.35348612E-02</totfact>
</mgrwt>
</event>
<event>
 6    1  0.2436515E-005  0.1768811E+04  0.7818608E-02  0.8723063E-01
          2   -1    0    0  501    0  0.00000000000E+00  0.00000000000E+00  0.66799945317E+03  0.66799945317E+03  0.00000000000E+00 0.  1.
         -2   -1    0    0    0  501 -0.00000000000E+00 -0.00000000000E+00 -0.11709190084E+04  0.11709190084E+04  0.00000000000E+00 0. -1.
         23    2    1    2    0    0 -0.58341496877E+03  0.43748176069E+03  0.26384333923E+03  0.78076504497E+03  0.90650047264E+02 0.  0.
         11    1    3    3    0    0 -0.47771486837E+03  0.31905928065E+03  0.22785068253E+03  0.61800182326E+03  0.00000000000E+00 0.  1.
        -11    1    3    3    0    0 -0.10570010041E+03  0.11842248004E+03  0.35992656701E+02  0.16276322171E+03  0.00000000000E+00 0. -1.
         22    1    1    2    0    0  0.58341496877E+03 -0.43748176069E+03 -0.76676289443E+03  0.10581534166E+04  0.00000000000E+00 0. -1.
<mgrwt>
<rscale>  0 0.17688112E+04</rscale>
<asrwt>0</asrwt>
<pdfrwt beam="1">  1        2 0.10276915E+00 0.17688112E+04</pdfrwt>
<pdfrwt beam="2">  1       -2 0.18014138E+00 0.17688112E+04</pdfrwt>
<totfact> 0.74355185E+00</totfact>
</mgrwt>
</event>
<event>
 6    1  0.2436515E-005  0.3208727E+04  0.7818608E-02  0.8186516E-01
         -2   -1    0    0    0  501 -0.00000000000E+00  0.00000000000E+00  0.21234919190E+04  0.21234919190E+04  0.00000000000E+00 0. -1.
          2   -1    0    0  501    0  0.00000000000E+00 -0.00000000000E+00 -0.12121463090E+04  0.12121463090E+04  0.00000000000E+00 0.  1.
         23    2    1    2    0    0  0.10608179204E+04  0.99272512522E+02  0.17011896234E+04  0.20093489467E+04  0.90814992352E+02 0.  0.
         11    1    3    3    0    0  0.37512932322E+03  0.77644218603E+02  0.62857422891E+03  0.73610882013E+03  0.00000000000E+00 0.  1.
        -11    1    3    3    0    0  0.68568859719E+03  0.21628293919E+02  0.10726153945E+04  0.12732401266E+04  0.00000000000E+00 0. -1.
         22    1    1    2    0    0 -0.10608179204E+04 -0.99272512522E+02 -0.78984401339E+03  0.13262892812E+04  0.00000000000E+00 0.  1.
<mgrwt>
<rscale>  0 0.32087274E+04</rscale>
<asrwt>0</asrwt>
<pdfrwt beam="1">  1        2 0.18648405E+00 0.32087274E+04</pdfrwt>
<pdfrwt beam="2">  1       -2 0.32669107E+00 0.32087274E+04</pdfrwt>
<totfact> 0.34105359E-01</totfact>
</mgrwt>
</event>
<event>
 6    1  0.2436515E-005  0.1769407E+04  0.7818608E-02  0.8722740E-01
          2   -1    0    0  501    0  0.00000000000E+00  0.00000000000E+00  0.19913582571E+04  0.19913582571E+04  0.00000000000E+00 0.  1.
         -2   -1    0    0    0  501 -0.00000000000E+00 -0.00000000000E+00 -0.39304855811E+03  0.39304855811E+03  0.00000000000E+00 0. -1.
         23    2    1    2    0    0 -0.28740986991E+03 -0.47011111847E+03 -0.12785837461E+03  0.57242858264E+03  0.87851131062E+02 0.  0.
         11    1    3    3    0    0 -0.21906602444E+03 -0.27795366931E+03 -0.75558877452E+02  0.36188024166E+03  0.00000000000E+00 0.  1.
        -11    1    3    3    0    0 -0.68343845470E+02 -0.19215744916E+03 -0.52299497162E+02  0.21054834097E+03  0.00000000000E+00 0. -1.
         22    1    1    2    0    0  0.28740986991E+03  0.47011111847E+03  0.17261680736E+04  0.18119782326E+04  0.00000000000E+00 0.  1.
<mgrwt>
<rscale>  0 0.17694072E+04</rscale>
<asrwt>0</asrwt>
<pdfrwt beam="1">  1        2 0.30636280E+00 0.17694072E+04</pdfrwt>
<pdfrwt beam="2">  1       -2 0.60469010E-01 0.17694072E+04</pdfrwt>
<totfact> 0.16287601E+01</totfact>
</mgrwt>
</event>
<event>
 6    1  0.2436515E-005  0.5260105E+04  0.7818608E-02  0.7789590E-01
          2   -1    0    0  501    0  0.00000000000E+00  0.00000000000E+00  0.35329818738E+04  0.35329818738E+04  0.00000000000E+00 0.  1.
         -2   -1    0    0    0  501 -0.00000000000E+00 -0.00000000000E+00 -0.19578863434E+04  0.19578863434E+04  0.00000000000E+00 0. -1.
         23    2    1    2    0    0  0.76379058773E+03 -0.14026746622E+04  0.29679939849E+04  0.33716612016E+04  0.90767250486E+02 0.  0.
         11    1    3    3    0    0  0.34229543219E+03 -0.62188641134E+03  0.12248479443E+04  0.14156840601E+04  0.00000000000E+00 0. -1.
        -11    1    3    3    0    0  0.42149515554E+03 -0.78078825090E+03  0.17431460406E+04  0.19559771414E+04  0.00000000000E+00 0.  1.
         22    1    1    2    0    0 -0.76379058773E+03  0.14026746622E+04 -0.13928984545E+04  0.21192070155E+04  0.00000000000E+00 0. -1.
<mgrwt>
<rscale>  0 0.52601053E+04</rscale>
<asrwt>0</asrwt>
<pdfrwt beam="1">  1        2 0.54353567E+00 0.52601053E+04</pdfrwt>
<pdfrwt beam="2">  1       -2 0.30121328E+00 0.52601053E+04</pdfrwt>
<totfact> 0.17135867E-02</totfact>
</mgrwt>
</event>
<event>
 6    1  0.2436515E-005  0.3085391E+04  0.7818608E-02  0.8219759E-01
         -2   -1    0    0    0  501 -0.00000000000E+00  0.00000000000E+00  0.11451017323E+04  0.11451017323E+04  0.00000000000E+00 0. -1.
          2   -1    0    0  501    0  0.00000000000E+00 -0.00000000000E+00 -0.20783391401E+04  0.20783391401E+04  0.00000000000E+00 0.  1.
         23    2    1    2    0    0 -0.13374369110E+04  0.68959269550E+03 -0.11817412068E+03  0.15121244964E+04  0.90993370126E+02 0.  0.
         13    1    3    3    0    0 -0.34215252400E+03  0.19986335957E+03 -0.65519775368E+02  0.40162987083E+03  0.00000000000E+00 0. -1.
        -13    1    3    3    0    0 -0.99528438698E+03  0.48972933593E+03 -0.52654345314E+02  0.11104946256E+04  0.00000000000E+00 0.  1.
         22    1    1    2    0    0  0.13374369110E+04 -0.68959269550E+03 -0.81506328714E+03  0.17113163759E+04  0.00000000000E+00 0.  1.
<mgrwt>
<rscale>  0 0.30853912E+04</rscale>
<asrwt>0</asrwt>
<pdfrwt beam="1">  1        2 0.31974448E+00 0.30853912E+04</pdfrwt>
<pdfrwt beam="2">  1       -2 0.17616950E+00 0.30853912E+04</pdfrwt>
<totfact> 0.99026831E-01</totfact>
</mgrwt>
</event>
<event>
 6    1  0.2436515E-005  0.8484462E+03  0.7818608E-02  0.9492425E-01
         -2   -1    0    0    0  501 -0.00000000000E+00  0.00000000000E+00  0.14355735535E+03  0.14355735535E+03  0.00000000000E+00 0. -1.
          2   -1    0    0  501    0  0.00000000000E+00 -0.00000000000E+00 -0.12536119589E+04  0.12536119589E+04  0.00000000000E+00 0.  1.
         23    2    1    2    0    0 -0.14869668590E+03  0.37444392368E+03 -0.75317912086E+03  0.85895089527E+03  0.90547755411E+02 0.  0.
         11    1    3    3    0    0 -0.50377450348E+02  0.24374623995E+03 -0.47480536886E+03  0.53608791750E+03  0.00000000000E+00 0.  1.
        -11    1    3    3    0    0 -0.98319235551E+02  0.13069768373E+03 -0.27837375201E+03  0.32286297777E+03  0.00000000000E+00 0. -1.
         22    1    1    2    0    0  0.14869668590E+03 -0.37444392368E+03 -0.35687548266E+03  0.53821841895E+03  0.00000000000E+00 0. -1.
<mgrwt>
<rscale>  0 0.84844615E+03</rscale>
<asrwt>0</asrwt>
<pdfrwt beam="1">  1        2 0.19286339E+00 0.84844615E+03</pdfrwt>
<pdfrwt beam="2">  1       -2 0.22085746E-01 0.84844615E+03</pdfrwt>
<totfact> 0.31658317E+02</totfact>
</mgrwt>
</event>
<event>
 6    1  0.2436515E-005  0.1777669E+04  0.7818608E-02  0.8718266E-01
         -2   -1    0    0    0  501 -0.00000000000E+00  0.00000000000E+00  0.56749948892E+03  0.56749948892E+03  0.00000000000E+00 0. -1.
          2   -1    0    0  501    0  0.00000000000E+00 -0.00000000000E+00 -0.13921192134E+04  0.13921192134E+04  0.00000000000E+00 0.  1.
         23    2    1    2    0    0 -0.31889249288E+03  0.78431081678E+03 -0.70337467753E+03  0.11043197834E+04  0.89164834601E+02 0.  0.
         13    1    3    3    0    0 -0.20925534358E+03  0.61337737859E+03 -0.54521124085E+03  0.84692083723E+03  0.00000000000E+00 0. -1.
        -13    1    3    3    0    0 -0.10963714930E+03  0.17093343819E+03 -0.15816343668E+03  0.25739894619E+03  0.00000000000E+00 0.  1.
         22    1    1    2    0    0  0.31889249288E+03 -0.78431081678E+03 -0.12124504699E+03  0.85529891895E+03  0.00000000000E+00 0. -1.
<mgrwt>
<rscale>  0 0.17776692E+04</rscale>
<asrwt>0</asrwt>
<pdfrwt beam="1">  1        2 0.21417219E+00 0.17776692E+04</pdfrwt>
<pdfrwt beam="2">  1       -2 0.87307614E-01 0.17776692E+04</pdfrwt>
<totfact> 0.15673594E+01</totfact>
</mgrwt>
</event>
<event>
 6    1  0.2436515E-005  0.2115332E+04  0.7818608E-02  0.8554520E-01
          2   -1    0    0  501    0  0.00000000000E+00  0.00000000000E+00  0.12376818153E+04  0.12376818153E+04  0.00000000000E+00 0.  1.
         -2   -1    0    0    0  501 -0.00000000000E+00 -0.00000000000E+00 -0.90383235489E+03  0.90383235489E+03  0.00000000000E+00 0. -1.
         23    2    1    2    0    0 -0.44858006902E+03  0.88489446404E+03 -0.19811867854E+03  0.10157911173E+04  0.91204673562E+02 0.  0.
         11    1    3    3    0    0 -0.25288720951E+03  0.50359269794E+03 -0.66404498687E+02  0.56742145148E+03  0.00000000000E+00 0.  1.
        -11    1    3    3    0    0 -0.19569285951E+03  0.38130176610E+03 -0.13171417986E+03  0.44836966586E+03  0.00000000000E+00 0. -1.
         22    1    1    2    0    0  0.44858006902E+03 -0.88489446404E+03  0.53196813893E+03  0.11257230528E+04  0.00000000000E+00 0.  1.
<mgrwt>
<rscale>  0 0.21153315E+04</rscale>
<asrwt>0</asrwt>
<pdfrwt beam="1">  1        2 0.19041259E+00 0.21153315E+04</pdfrwt>
<pdfrwt beam="2">  1       -2 0.13905113E+00 0.21153315E+04</pdfrwt>
<totfact> 0.60527888E+00</totfact>
</mgrwt>
</event>
<event>
 6    1  0.2436515E-005  0.1104849E+04  0.7818608E-02  0.9200478E-01
         -2   -1    0    0    0  501 -0.00000000000E+00  0.00000000000E+00  0.16113653144E+03  0.16113653144E+03  0.00000000000E+00 0. -1.
          2   -1    0    0  501    0  0.00000000000E+00 -0.00000000000E+00 -0.18938789163E+04  0.18938789163E+04  0.00000000000E+00 0.  1.
         23    2    1    2    0    0 -0.42061653915E+03 -0.23764936351E+03 -0.38739851712E+03  0.62555904216E+03  0.88605931970E+02 0.  0.
         13    1    3    3    0    0 -0.22293843463E+03 -0.97613763877E+02 -0.24099406781E+03  0.34250274926E+03  0.00000000000E+00 0. -1.
        -13    1    3    3    0    0 -0.19767810452E+03 -0.14003559964E+03 -0.14640444931E+03  0.28305629290E+03  0.00000000000E+00 0.  1.
         22    1    1    2    0    0  0.42061653915E+03  0.23764936351E+03 -0.13453438677E+04  0.14294564056E+04  0.00000000000E+00 0.  1.
<mgrwt>
<rscale>  0 0.11048495E+04</rscale>
<asrwt>0</asrwt>
<pdfrwt beam="1">  1        2 0.29136600E+00 0.11048495E+04</pdfrwt>
<pdfrwt beam="2">  1       -2 0.24790235E-01 0.11048495E+04</pdfrwt>
<totfact> 0.11079104E+02</totfact>
</mgrwt>
</event>
<event>
 6    1  0.2436515E-005  0.2180539E+04  0.7818608E-02  0.8526572E-01
         -2   -1    0    0    0  501 -0.00000000000E+00  0.00000000000E+00  0.57981290470E+03  0.57981290470E+03  0.00000000000E+00 0. -1.
          2   -1    0    0  501    0  0.00000000000E+00 -0.00000000000E+00 -0.20501218951E+04  0.20501218951E+04  0.00000000000E+00 0.  1.
         23    2    1    2    0    0 -0.27190975674E+03  0.23181400264E+03 -0.19765833524E+04  0.20102684562E+04  0.81393299954E+02 0.  0.
         11    1    3    3    0    0 -0.63465837622E+02  0.84899419759E+02 -0.43459452771E+03  0.44733458120E+03  0.00000000000E+00 0.  1.
        -11    1    3    3    0    0 -0.20844391912E+03  0.14691458288E+03 -0.15419888247E+04  0.15629338750E+04  0.00000000000E+00 0. -1.
         22    1    1    2    0    0  0.27190975674E+03 -0.23181400264E+03  0.50627436208E+03  0.61966634355E+03  0.00000000000E+00 0. -1.
<mgrwt>
<rscale>  0 0.21805386E+04</rscale>
<asrwt>0</asrwt>
<pdfrwt beam="1">  1        2 0.31540337E+00 0.21805386E+04</pdfrwt>
<pdfrwt beam="2">  1       -2 0.89201986E-01 0.21805386E+04</pdfrwt>
<totfact> 0.61867714E+00</totfact>
</mgrwt>
</event>
<event>
 6    1  0.2436515E-005  0.5149671E+04  0.7818608E-02  0.7805825E-01
          2   -1    0    0  501    0  0.00000000000E+00  0.00000000000E+00  0.45953929316E+04  0.45953929316E+04  0.00000000000E+00 0.  1.
         -2   -1    0    0    0  501 -0.00000000000E+00 -0.00000000000E+00 -0.14427007039E+04  0.14427007039E+04  0.00000000000E+00 0. -1.
         23    2    1    2    0    0 -0.24748630712E+04 -0.35988469684E+03  0.86259164564E+03  0.26470724188E+04  0.91999060221E+02 0.  0.
         13    1    3    3    0    0 -0.84194390399E+03 -0.80856528738E+02  0.30656857460E+03  0.89966194019E+03  0.00000000000E+00 0. -1.
        -13    1    3    3    0    0 -0.16329191672E+04 -0.27902816811E+03  0.55602307104E+03  0.17474104786E+04  0.00000000000E+00 0.  1.
         22    1    1    2    0    0  0.24748630712E+04  0.35988469684E+03  0.22901005821E+04  0.33910212167E+04  0.00000000000E+00 0.  1.
<mgrwt>
<rscale>  0 0.51496705E+04</rscale>
<asrwt>0</asrwt>
<pdfrwt beam="1">  1        2 0.70698352E+00 0.51496705E+04</pdfrwt>
<pdfrwt beam="2">  1       -2 0.22195396E+00 0.51496705E+04</pdfrwt>
<totfact> 0.67502094E-03</totfact>
</mgrwt>
</event>
<event>
 6    1  0.2436515E-005  0.2814232E+04  0.7818608E-02  0.8298863E-01
          2   -1    0    0  501    0  0.00000000000E+00  0.00000000000E+00  0.16798105039E+04  0.16798105039E+04  0.00000000000E+00 0.  1.
         -2   -1    0    0    0  501 -0.00000000000E+00 -0.00000000000E+00 -0.11786900484E+04  0.11786900484E+04  0.00000000000E+00 0. -1.
         23    2    1    2    0    0  0.25833551586E+03  0.20314634856E+03  0.16389840743E+04  0.16741275988E+04  0.91808189901E+02 0.  0.
         13    1    3    3    0    0  0.13505920281E+03  0.11410715323E+03  0.10993038720E+04  0.11134318271E+04  0.00000000000E+00 0. -1.
        -13    1    3    3    0    0  0.12327631306E+03  0.89039195330E+02  0.53968020231E+03  0.56069577173E+03  0.00000000000E+00 0.  1.
         22    1    1    2    0    0 -0.25833551586E+03 -0.20314634856E+03 -0.11378636188E+04  0.11843729534E+04  0.00000000000E+00 0. -1.
<mgrwt>
<rscale>  0 0.28142323E+04</rscale>
<asrwt>0</asrwt>
<pdfrwt beam="1">  1        2 0.25843238E+00 0.28142323E+04</pdfrwt>
<pdfrwt beam="2">  1       -2 0.18133693E+00 0.28142323E+04</pdfrwt>
<totfact> 0.15529956E+00</totfact>
</mgrwt>
</event>
<event>
 6    1  0.2436515E-005  0.1543719E+04  0.7818608E-02  0.8855890E-01
         -2   -1    0    0    0  501 -0.00000000000E+00  0.00000000000E+00  0.50786324440E+03  0.50786324440E+03  0.00000000000E+00 0. -1.
          2   -1    0    0  501    0  0.00000000000E+00 -0.00000000000E+00 -0.11730853667E+04  0.11730853667E+04  0.00000000000E+00 0.  1.
         23    2    1    2    0    0  0.68208165155E+03  0.33426116025E+03 -0.46579177348E+03  0.89562169400E+03  0.90610925869E+02 0.  0.
         13    1    3    3    0    0  0.47250823699E+03  0.27474318674E+03 -0.34793830017E+03  0.64792662656E+03  0.00000000000E+00 0. -1.
        -13    1    3    3    0    0  0.20957341456E+03  0.59517973511E+02 -0.11785347331E+03  0.24769506744E+03  0.00000000000E+00 0.  1.
         22    1    1    2    0    0 -0.68208165155E+03 -0.33426116025E+03 -0.19943034877E+03  0.78532691705E+03  0.00000000000E+00 0. -1.
<mgrwt>
<rscale>  0 0.15437188E+04</rscale>
<asrwt>0</asrwt>
<pdfrwt beam="1">  1        2 0.18047467E+00 0.15437188E+04</pdfrwt>
<pdfrwt beam="2">  1       -2 0.78132808E-01 0.15437188E+04</pdfrwt>
<totfact> 0.27599635E+01</totfact>
</mgrwt>
</event>
<event>
 6    1  0.2436515E-005  0.2204627E+04  0.7818608E-02  0.8516505E-01
         -2   -1    0    0    0  501 -0.00000000000E+00  0.00000000000E+00  0.14846324167E+04  0.14846324167E+04  0.00000000000E+00 0. -1.
          2   -1    0    0  501    0  0.00000000000E+00 -0.00000000000E+00 -0.81844820759E+03  0.81844820759E+03  0.00000000000E+00 0.  1.
         23    2    1    2    0    0  0.89977231685E+03 -0.32129927309E+03  0.90399901213E+03  0.13185099942E+04  0.91820181905E+02 0.  0.
         13    1    3    3    0    0  0.45215999510E+03 -0.19619241493E+03  0.50943071054E+03  0.70884396991E+03  0.00000000000E+00 0. -1.
        -13    1    3    3    0    0  0.44761232176E+03 -0.12510685816E+03  0.39456830159E+03  0.60966602428E+03  0.00000000000E+00 0.  1.
         22    1    1    2    0    0 -0.89977231685E+03  0.32129927309E+03 -0.23781480304E+03  0.98457063007E+03  0.00000000000E+00 0.  1.
<mgrwt>
<rscale>  0 0.22046267E+04</rscale>
<asrwt>0</asrwt>
<pdfrwt beam="1">  1        2 0.12591511E+00 0.22046267E+04</pdfrwt>
<pdfrwt beam="2">  1       -2 0.22840499E+00 0.22046267E+04</pdfrwt>
<totfact> 0.26698661E+00</totfact>
</mgrwt>
</event>
<event>
 6    1  0.4589462E-005  0.3473661E+04  0.7818608E-02  0.8120060E-01
         -2   -1    0    0    0  501 -0.00000000000E+00  0.00000000000E+00  0.20458471399E+04  0.20458471399E+04  0.00000000000E+00 0. -1.
          2   -1    0    0  501    0  0.00000000000E+00 -0.00000000000E+00 -0.14744897292E+04  0.14744897292E+04  0.00000000000E+00 0.  1.
         23    2    1    2    0    0 -0.99195798353E+03 -0.10619345457E+04 -0.67593862265E+03  0.16052825577E+04  0.91397199280E+02 0.  0.
         13    1    3    3    0    0 -0.45389806853E+03 -0.53232144031E+03 -0.28885411988E+03  0.75685287540E+03  0.00000000000E+00 0. -1.
        -13    1    3    3    0    0 -0.53805991500E+03 -0.52961310541E+03 -0.38708450277E+03  0.84842968231E+03  0.00000000000E+00 0.  1.
         22    1    1    2    0    0  0.99195798353E+03  0.10619345457E+04  0.12472960334E+04  0.19150543113E+04  0.00000000000E+00 0. -1.
<mgrwt>
<rscale>  0 0.34736612E+04</rscale>
<asrwt>0</asrwt>
<pdfrwt beam="1">  1        2 0.22684457E+00 0.34736612E+04</pdfrwt>
<pdfrwt beam="2">  1       -2 0.31474571E+00 0.34736612E+04</pdfrwt>
<totfact> 0.27875880E-01</totfact>
</mgrwt>
</event>
<event>
 6    1  0.2436515E-005  0.1038012E+04  0.7818608E-02  0.9267809E-01
          2   -1    0    0  501    0  0.00000000000E+00  0.00000000000E+00  0.19516924993E+04  0.19516924993E+04  0.00000000000E+00 0.  1.
         -2   -1    0    0    0  501 -0.00000000000E+00 -0.00000000000E+00 -0.13801718444E+03  0.13801718444E+03  0.00000000000E+00 0. -1.
         23    2    1    2    0    0 -0.15302316184E+03 -0.32888459478E+03  0.17752733490E+03  0.41383338249E+03  0.90337971463E+02 0.  0.
         11    1    3    3    0    0 -0.99878657108E+02 -0.13095056347E+03  0.48622888616E+02  0.17172064965E+03  0.00000000000E+00 0. -1.
        -11    1    3    3    0    0 -0.53144504729E+02 -0.19793403131E+03  0.12890444629E+03  0.24211273285E+03  0.00000000000E+00 0.  1.
         22    1    1    2    0    0  0.15302316184E+03  0.32888459478E+03  0.16361479799E+04  0.16758763012E+04  0.00000000000E+00 0.  1.
<mgrwt>
<rscale>  0 0.10380118E+04</rscale>
<asrwt>0</asrwt>
<pdfrwt beam="1">  1        2 0.30026036E+00 0.10380118E+04</pdfrwt>
<pdfrwt beam="2">  1       -2 0.21233414E-01 0.10380118E+04</pdfrwt>
<totfact> 0.13652214E+02</totfact>
</mgrwt>
</event>
<event>
 6    1  0.2436515E-005  0.1852663E+04  0.7818608E-02  0.8678785E-01
         -2   -1    0    0    0  501 -0.00000000000E+00  0.00000000000E+00  0.12477376383E+04  0.12477376383E+04  0.00000000000E+00 0. -1.
          2   -1    0    0  501    0  0.00000000000E+00 -0.00000000000E+00 -0.68771643592E+03  0.68771643592E+03  0.00000000000E+00 0.  1.
         23    2    1    2    0    0 -0.40140340309E+03 -0.80400924564E+03  0.50567889219E+03  0.10351715376E+04  0.91177909585E+02 0.  0.
         11    1    3    3    0    0 -0.26920686937E+03 -0.52250037053E+03  0.28093835548E+03  0.65146399386E+03  0.00000000000E+00 0.  1.
        -11    1    3    3    0    0 -0.13219653373E+03 -0.28150887511E+03  0.22474053670E+03  0.38370754375E+03  0.00000000000E+00 0. -1.
         22    1    1    2    0    0  0.40140340309E+03  0.80400924564E+03  0.54342310226E+02  0.90028253664E+03  0.00000000000E+00 0.  1.
<mgrwt>
<rscale>  0 0.18526626E+04</rscale>
<asrwt>0</asrwt>
<pdfrwt beam="1">  1        2 0.10580253E+00 0.18526626E+04</pdfrwt>
<pdfrwt beam="2">  1       -2 0.19195964E+00 0.18526626E+04</pdfrwt>
<totfact> 0.59195215E+00</totfact>
</mgrwt>
</event>
<event>
 6    1  0.2436515E-005  0.4716399E+04  0.7818608E-02  0.7873809E-01
         -2   -1    0    0    0  501 -0.00000000000E+00  0.00000000000E+00  0.16153439669E+04  0.16153439669E+04  0.00000000000E+00 0. -1.
          2   -1    0    0  501    0  0.00000000000E+00 -0.00000000000E+00 -0.34426753817E+04  0.34426753817E+04  0.00000000000E+00 0.  1.
         23    2    1    2    0    0  0.12267905220E+04 -0.14757346086E+04  0.55394261508E+03  0.19997071303E+04  0.95752629866E+02 0.  0.
         13    1    3    3    0    0  0.56409829293E+03 -0.75304293553E+03  0.27640421386E+03  0.98065276029E+03  0.00000000000E+00 0.  1.
        -13    1    3    3    0    0  0.66269222905E+03 -0.72269167309E+03  0.27753840122E+03  0.10190543700E+04  0.00000000000E+00 0. -1.
         22    1    1    2    0    0 -0.12267905220E+04  0.14757346086E+04 -0.23812740298E+04  0.30583122184E+04  0.00000000000E+00 0.  1.
<mgrwt>
<rscale>  0 0.47163990E+04</rscale>
<asrwt>0</asrwt>
<pdfrwt beam="1">  1        2 0.52964236E+00 0.47163990E+04</pdfrwt>
<pdfrwt beam="2">  1       -2 0.24851446E+00 0.47163990E+04</pdfrwt>
<totfact> 0.43473018E-02</totfact>
</mgrwt>
</event>
<event>
 6    1  0.2436515E-005  0.1762312E+04  0.7818608E-02  0.8726602E-01
          1   -1    0    0  501    0  0.00000000000E+00  0.00000000000E+00  0.16302359451E+04  0.16302359451E+04  0.00000000000E+00 0. -1.
         -1   -1    0    0    0  501 -0.00000000000E+00 -0.00000000000E+00 -0.47627201342E+03  0.47627201342E+03  0.00000000000E+00 0.  1.
         23    2    1    2    0    0 -0.41724979482E+03 -0.28035738153E+03  0.14401496321E+04  0.15280618436E+04  0.90798581456E+02 0.  0.
         11    1    3    3    0    0 -0.33811045391E+03 -0.23589003093E+03  0.12696005072E+04  0.13348588816E+04  0.00000000000E+00 0. -1.
        -11    1    3    3    0    0 -0.79139340906E+02 -0.44467350598E+02  0.17054912491E+03  0.19320296208E+03  0.00000000000E+00 0.  1.
         22    1    1    2    0    0  0.41724979482E+03  0.28035738153E+03 -0.28618570047E+03  0.57844611487E+03  0.00000000000E+00 0.  1.
<mgrwt>
<rscale>  0 0.17623118E+04</rscale>
<asrwt>0</asrwt>
<pdfrwt beam="1">  1        1 0.25080553E+00 0.17623118E+04</pdfrwt>
<pdfrwt beam="2">  1       -1 0.73272618E-01 0.17623118E+04</pdfrwt>
<totfact> 0.94519316E+00</totfact>
</mgrwt>
</event>
<event>
 6    1  0.2436515E-005  0.3556100E+04  0.7818608E-02  0.8100622E-01
          2   -1    0    0  501    0  0.00000000000E+00  0.00000000000E+00  0.23646338879E+04  0.23646338879E+04  0.00000000000E+00 0.  1.
         -2   -1    0    0    0  501 -0.00000000000E+00 -0.00000000000E+00 -0.13369774509E+04  0.13369774509E+04  0.00000000000E+00 0. -1.
         23    2    1    2    0    0  0.91300964935E+03 -0.65950003656E+03  0.19447153674E+04  0.22491912894E+04  0.91742454565E+02 0.  0.
         13    1    3    3    0    0  0.78044521920E+03 -0.60124133102E+03  0.16895608364E+04  0.19558122860E+04  0.00000000000E+00 0.  1.
        -13    1    3    3    0    0  0.13256443015E+03 -0.58258705540E+02  0.25515453104E+03  0.29337900338E+03  0.00000000000E+00 0. -1.
         22    1    1    2    0    0 -0.91300964935E+03  0.65950003656E+03 -0.91705893039E+03  0.14524200494E+04  0.00000000000E+00 0. -1.
<mgrwt>
<rscale>  0 0.35561002E+04</rscale>
<asrwt>0</asrwt>
<pdfrwt beam="1">  1        2 0.36378983E+00 0.35561002E+04</pdfrwt>
<pdfrwt beam="2">  1       -2 0.20568884E+00 0.35561002E+04</pdfrwt>
<totfact> 0.41596559E-01</totfact>
</mgrwt>
</event>
<event>
 6    1  0.2436515E-005  0.3956026E+04  0.7818608E-02  0.8013477E-01
          1   -1    0    0  501    0  0.00000000000E+00  0.00000000000E+00  0.22755519303E+04  0.22755519303E+04  0.00000000000E+00 0.  1.
         -1   -1    0    0    0  501 -0.00000000000E+00 -0.00000000000E+00 -0.17193783204E+04  0.17193783204E+04  0.00000000000E+00 0. -1.
         23    2    1    2    0    0  0.18211020594E+04  0.75829580693E+03  0.40961579968E+03  0.20168239762E+04  0.91480086083E+02 0.  0.
         11    1    3    3    0    0  0.12300661995E+04  0.46859874260E+03  0.28886470502E+03  0.13476240034E+04  0.00000000000E+00 0.  1.
        -11    1    3    3    0    0  0.59103585993E+03  0.28969706433E+03  0.12075109466E+03  0.66919997285E+03  0.00000000000E+00 0. -1.
         22    1    1    2    0    0 -0.18211020594E+04 -0.75829580693E+03  0.14655781025E+03  0.19781062745E+04  0.00000000000E+00 0. -1.
<mgrwt>
<rscale>  0 0.39560256E+04</rscale>
<asrwt>0</asrwt>
<pdfrwt beam="1">  1        1 0.35008491E+00 0.39560256E+04</pdfrwt>
<pdfrwt beam="2">  1       -1 0.26451974E+00 0.39560256E+04</pdfrwt>
<totfact> 0.85209684E-02</totfact>
</mgrwt>
</event>
<event>
 6    1  0.2436515E-005  0.1039810E+04  0.7818608E-02  0.9265928E-01
         -2   -1    0    0    0  501 -0.00000000000E+00  0.00000000000E+00  0.45476355940E+03  0.45476355940E+03  0.00000000000E+00 0. -1.
          2   -1    0    0  501    0  0.00000000000E+00 -0.00000000000E+00 -0.59437753286E+03  0.59437753286E+03  0.00000000000E+00 0.  1.
         23    2    1    2    0    0  0.13336234288E+03  0.46043417092E+03 -0.26299553154E+03  0.55415811364E+03  0.90218762174E+02 0.  0.
         13    1    3    3    0    0  0.61463207274E+02  0.20554406926E+03 -0.67239397177E+02  0.22482710422E+03  0.00000000000E+00 0.  1.
        -13    1    3    3    0    0  0.71899135608E+02  0.25489010166E+03 -0.19575613437E+03  0.32933100942E+03  0.00000000000E+00 0. -1.
         22    1    1    2    0    0 -0.13336234288E+03 -0.46043417092E+03  0.12338155809E+03  0.49498297863E+03  0.00000000000E+00 0. -1.
<mgrwt>
<rscale>  0 0.10398101E+04</rscale>
<asrwt>0</asrwt>
<pdfrwt beam="1">  1        2 0.91442697E-01 0.10398101E+04</pdfrwt>
<pdfrwt beam="2">  1       -2 0.69963625E-01 0.10398101E+04</pdfrwt>
<totfact> 0.93077538E+01</totfact>
</mgrwt>
</event>
<event>
 6    1  0.2549344E-005  0.2327105E+04  0.7818608E-02  0.8467310E-01
          2   -1    0    0  501    0  0.00000000000E+00  0.00000000000E+00  0.19894088229E+04  0.19894088229E+04  0.00000000000E+00 0.  1.
         -2   -1    0    0    0  501 -0.00000000000E+00 -0.00000000000E+00 -0.68053115185E+03  0.68053115185E+03  0.00000000000E+00 0. -1.
         23    2    1    2    0    0 -0.71634950313E+03 -0.49778964398E+03  0.15358061199E+04  0.17685811888E+04  0.90707458243E+02 0.  0.
         11    1    3    3    0    0 -0.28549683222E+03 -0.22598795700E+03  0.71893789936E+03  0.80588504208E+03  0.00000000000E+00 0. -1.
        -11    1    3    3    0    0 -0.43085267091E+03 -0.27180168698E+03  0.81686822055E+03  0.96269614667E+03  0.00000000000E+00 0.  1.
         22    1    1    2    0    0  0.71634950313E+03  0.49778964398E+03 -0.22692844882E+03  0.90135878604E+03  0.00000000000E+00 0. -1.
<mgrwt>
<rscale>  0 0.23271052E+04</rscale>
<asrwt>0</asrwt>
<pdfrwt beam="1">  1        2 0.30606289E+00 0.23271052E+04</pdfrwt>
<pdfrwt beam="2">  1       -2 0.10469710E+00 0.23271052E+04</pdfrwt>
<totfact> 0.45346146E+00</totfact>
</mgrwt>
</event>
<event>
 6    1  0.2436515E-005  0.2489679E+04  0.7818608E-02  0.8406672E-01
          2   -1    0    0  501    0  0.00000000000E+00  0.00000000000E+00  0.35678536454E+04  0.35678536454E+04  0.00000000000E+00 0.  1.
         -2   -1    0    0    0  501 -0.00000000000E+00 -0.00000000000E+00 -0.43432981634E+03  0.43432981634E+03  0.00000000000E+00 0. -1.
         23    2    1    2    0    0  0.92414051771E+01  0.59333350654E+03  0.33250084151E+04  0.33786480576E+04  0.86323134787E+02 0.  0.
         13    1    3    3    0    0  0.36831982631E+02  0.14485801357E+03  0.91071874490E+03  0.92290252538E+03  0.00000000000E+00 0. -1.
        -13    1    3    3    0    0 -0.27590577454E+02  0.44847549297E+03  0.24142896702E+04  0.24557455323E+04  0.00000000000E+00 0.  1.
         22    1    1    2    0    0 -0.92414051771E+01 -0.59333350654E+03 -0.19148458597E+03  0.62353540414E+03  0.00000000000E+00 0. -1.
<mgrwt>
<rscale>  0 0.24896789E+04</rscale>
<asrwt>0</asrwt>
<pdfrwt beam="1">  1        2 0.54890054E+00 0.24896789E+04</pdfrwt>
<pdfrwt beam="2">  1       -2 0.66819974E-01 0.24896789E+04</pdfrwt>
<totfact> 0.13387032E+00</totfact>
</mgrwt>
</event>
<event>
 6    1  0.2436515E-005  0.1332519E+04  0.7818608E-02  0.9004167E-01
         -2   -1    0    0    0  501 -0.00000000000E+00  0.00000000000E+00  0.10229111989E+04  0.10229111989E+04  0.00000000000E+00 0. -1.
          2   -1    0    0  501    0  0.00000000000E+00 -0.00000000000E+00 -0.43395937410E+03  0.43395937410E+03  0.00000000000E+00 0.  1.
         23    2    1    2    0    0  0.16101388958E+03  0.55247098300E+03  0.65641153047E+03  0.87747392852E+03  0.89077147417E+02 0.  0.
         13    1    3    3    0    0  0.51147588209E+02  0.28986132834E+03  0.38029651040E+03  0.48089614396E+03  0.00000000000E+00 0.  1.
        -13    1    3    3    0    0  0.10986630138E+03  0.26260965467E+03  0.27611502007E+03  0.39657778456E+03  0.00000000000E+00 0. -1.
         22    1    1    2    0    0 -0.16101388958E+03 -0.55247098300E+03 -0.67459705700E+02  0.57939664444E+03  0.00000000000E+00 0.  1.
<mgrwt>
<rscale>  0 0.13325193E+04</rscale>
<asrwt>0</asrwt>
<pdfrwt beam="1">  1        2 0.66762981E-01 0.13325193E+04</pdfrwt>
<pdfrwt beam="2">  1       -2 0.15737095E+00 0.13325193E+04</pdfrwt>
<totfact> 0.18660730E+01</totfact>
</mgrwt>
</event>
<event>
 6    1  0.2436515E-005  0.2140372E+04  0.7818608E-02  0.8543665E-01
          2   -1    0    0  501    0  0.00000000000E+00  0.00000000000E+00  0.21641847634E+04  0.21641847634E+04  0.00000000000E+00 0.  1.
         -2   -1    0    0    0  501 -0.00000000000E+00 -0.00000000000E+00 -0.52920529939E+03  0.52920529939E+03  0.00000000000E+00 0. -1.
         23    2    1    2    0    0  0.37715518669E+03  0.26899687233E+03  0.20302697339E+04  0.20844075099E+04  0.90300181345E+02 0.  0.
         13    1    3    3    0    0  0.17801726275E+03  0.86759347057E+02  0.99565395593E+03  0.10151571948E+04  0.00000000000E+00 0. -1.
        -13    1    3    3    0    0  0.19913792393E+03  0.18223752527E+03  0.10346157780E+04  0.10692503151E+04  0.00000000000E+00 0.  1.
         22    1    1    2    0    0 -0.37715518669E+03 -0.26899687233E+03 -0.39529026994E+03  0.60898255285E+03  0.00000000000E+00 0. -1.
<mgrwt>
<rscale>  0 0.21403720E+04</rscale>
<asrwt>0</asrwt>
<pdfrwt beam="1">  1        2 0.33295150E+00 0.21403720E+04</pdfrwt>
<pdfrwt beam="2">  1       -2 0.81416201E-01 0.21403720E+04</pdfrwt>
<totfact> 0.66003446E+00</totfact>
</mgrwt>
</event>
<event>
 6    1  0.2436515E-005  0.1953044E+04  0.7818608E-02  0.8628894E-01
          2   -1    0    0  501    0  0.00000000000E+00  0.00000000000E+00  0.10136601147E+04  0.10136601147E+04  0.00000000000E+00 0.  1.
         -2   -1    0    0    0  501 -0.00000000000E+00 -0.00000000000E+00 -0.94074493653E+03  0.94074493653E+03  0.00000000000E+00 0. -1.
         23    2    1    2    0    0  0.76218910183E+03  0.26131910286E+03  0.58439702924E+03  0.10000290328E+04  0.96531229335E+02 0.  0.
         13    1    3    3    0    0  0.52714174782E+03  0.17757652130E+03  0.45680448661E+03  0.71977925936E+03  0.00000000000E+00 0.  1.
        -13    1    3    3    0    0  0.23504735401E+03  0.83742581552E+02  0.12759254263E+03  0.28024977347E+03  0.00000000000E+00 0. -1.
         22    1    1    2    0    0 -0.76218910183E+03 -0.26131910286E+03 -0.51148185110E+03  0.95437601839E+03  0.00000000000E+00 0. -1.
<mgrwt>
<rscale>  0 0.19530444E+04</rscale>
<asrwt>0</asrwt>
<pdfrwt beam="1">  1        2 0.15594771E+00 0.19530444E+04</pdfrwt>
<pdfrwt beam="2">  1       -2 0.14472999E+00 0.19530444E+04</pdfrwt>
<totfact> 0.75800121E+00</totfact>
</mgrwt>
</event>
<event>
 6    1  0.2436515E-005  0.2148640E+04  0.7818608E-02  0.8540115E-01
          2   -1    0    0  501    0  0.00000000000E+00  0.00000000000E+00  0.99462159364E+03  0.99462159364E+03  0.00000000000E+00 0.  1.
         -2   -1    0    0    0  501 -0.00000000000E+00 -0.00000000000E+00 -0.11604043136E+04  0.11604043136E+04  0.00000000000E+00 0. -1.
         23    2    1    2    0    0  0.40246780285E+03  0.14651068314E+03 -0.10692098316E+04  0.11552127954E+04  0.88663554762E+02 0.  0.
         11    1    3    3    0    0  0.27971415775E+03  0.85215555285E+02 -0.61957140338E+03  0.68510614126E+03  0.00000000000E+00 0. -1.
        -11    1    3    3    0    0  0.12275364510E+03  0.61295127858E+02 -0.44963842825E+03  0.47010665411E+03  0.00000000000E+00 0.  1.
         22    1    1    2    0    0 -0.40246780285E+03 -0.14651068314E+03  0.90342711166E+03  0.99981311188E+03  0.00000000000E+00 0.  1.
<mgrwt>
<rscale>  0 0.21486397E+04</rscale>
<asrwt>0</asrwt>
<pdfrwt beam="1">  1        2 0.15301871E+00 0.21486397E+04</pdfrwt>
<pdfrwt beam="2">  1       -2 0.17852374E+00 0.21486397E+04</pdfrwt>
<totfact> 0.43257882E+00</totfact>
</mgrwt>
</event>
<event>
 6    1  0.2436515E-005  0.1219908E+04  0.7818608E-02  0.9095608E-01
          1   -1    0    0  501    0  0.00000000000E+00  0.00000000000E+00  0.49539712937E+04  0.49539712937E+04  0.00000000000E+00 0.  1.
         -1   -1    0    0    0  501 -0.00000000000E+00 -0.00000000000E+00 -0.75100106228E+02  0.75100106228E+02  0.00000000000E+00 0. -1.
         23    2    1    2    0    0 -0.27061801932E+03  0.49456215356E+03  0.15304901071E+04  0.16335623519E+04  0.91105177597E+02 0.  0.
         11    1    3    3    0    0 -0.17360198055E+03  0.29046324160E+03  0.10364347728E+04  0.10902768367E+04  0.00000000000E+00 0. -1.
        -11    1    3    3    0    0 -0.97016038766E+02  0.20409891196E+03  0.49405533435E+03  0.54328551521E+03  0.00000000000E+00 0.  1.
         22    1    1    2    0    0  0.27061801932E+03 -0.49456215356E+03  0.33483810804E+04  0.33955090481E+04  0.00000000000E+00 0.  1.
<mgrwt>
<rscale>  0 0.12199078E+04</rscale>
<asrwt>0</asrwt>
<pdfrwt beam="1">  1        1 0.76214917E+00 0.12199078E+04</pdfrwt>
<pdfrwt beam="2">  1       -1 0.11553866E-01 0.12199078E+04</pdfrwt>
<totfact> 0.52330245E-01</totfact>
</mgrwt>
</event>
<event>
 6    1  0.2436515E-005  0.1603147E+04  0.7818608E-02  0.8818617E-01
         -2   -1    0    0    0  501 -0.00000000000E+00  0.00000000000E+00  0.64123499757E+03  0.64123499757E+03  0.00000000000E+00 0. -1.
          2   -1    0    0  501    0  0.00000000000E+00 -0.00000000000E+00 -0.10020041126E+04  0.10020041126E+04  0.00000000000E+00 0.  1.
         23    2    1    2    0    0 -0.70366698217E+03 -0.20327255139E+03 -0.50806232606E+03  0.89613654559E+03  0.92013201392E+02 0.  0.
         13    1    3    3    0    0 -0.33686194504E+03 -0.14461714959E+03 -0.24368207259E+03  0.44019432354E+03  0.00000000000E+00 0. -1.
        -13    1    3    3    0    0 -0.36680503712E+03 -0.58655401799E+02 -0.26438025347E+03  0.45594222204E+03  0.00000000000E+00 0.  1.
         22    1    1    2    0    0  0.70366698217E+03  0.20327255139E+03  0.14729321107E+03  0.74710256456E+03  0.00000000000E+00 0. -1.
<mgrwt>
<rscale>  0 0.16031470E+04</rscale>
<asrwt>0</asrwt>
<pdfrwt beam="1">  1        2 0.15415448E+00 0.16031470E+04</pdfrwt>
<pdfrwt beam="2">  1       -2 0.98651539E-01 0.16031470E+04</pdfrwt>
<totfact> 0.20540514E+01</totfact>
</mgrwt>
</event>
<event>
 6    1  0.2436515E-005  0.1800291E+04  0.7818608E-02  0.8706145E-01
         -2   -1    0    0    0  501 -0.00000000000E+00  0.00000000000E+00  0.13584669974E+04  0.13584669974E+04  0.00000000000E+00 0. -1.
          2   -1    0    0  501    0  0.00000000000E+00 -0.00000000000E+00 -0.59645338388E+03  0.59645338388E+03  0.00000000000E+00 0.  1.
         23    2    1    2    0    0 -0.35668845804E+03  0.59448460858E+03 -0.23760019555E+03  0.73842279673E+03  0.90419952858E+02 0.  0.
         11    1    3    3    0    0 -0.25790580358E+03  0.37112172003E+03 -0.18648248407E+03  0.48889922424E+03  0.00000000000E+00 0. -1.
        -11    1    3    3    0    0 -0.98782654460E+02  0.22336288855E+03 -0.51117711481E+02  0.24952357249E+03  0.00000000000E+00 0.  1.
         22    1    1    2    0    0  0.35668845804E+03 -0.59448460858E+03  0.99961380908E+03  0.12164975846E+04  0.00000000000E+00 0. -1.
<mgrwt>
<rscale>  0 0.18002914E+04</rscale>
<asrwt>0</asrwt>
<pdfrwt beam="1">  1        2 0.91762059E-01 0.18002914E+04</pdfrwt>
<pdfrwt beam="2">  1       -2 0.20899492E+00 0.18002914E+04</pdfrwt>
<totfact> 0.54769274E+00</totfact>
</mgrwt>
</event>
<event>
 6    1  0.2436515E-005  0.3009141E+04  0.7818608E-02  0.8241125E-01
         -2   -1    0    0    0  501 -0.00000000000E+00  0.00000000000E+00  0.69489671264E+03  0.69489671264E+03  0.00000000000E+00 0. -1.
          2   -1    0    0  501    0  0.00000000000E+00 -0.00000000000E+00 -0.32576528489E+04  0.32576528489E+04  0.00000000000E+00 0.  1.
         23    2    1    2    0    0 -0.49575158158E+03  0.14190627093E+04 -0.13004946906E+04  0.19896912985E+04  0.89868901322E+02 0.  0.
         11    1    3    3    0    0 -0.16679553902E+03  0.49739534276E+03 -0.51048446625E+03  0.73199540239E+03  0.00000000000E+00 0. -1.
        -11    1    3    3    0    0 -0.32895604256E+03  0.92166736655E+03 -0.79001022438E+03  0.12576958961E+04  0.00000000000E+00 0.  1.
         22    1    1    2    0    0  0.49575158158E+03 -0.14190627093E+04 -0.12622614456E+04  0.19628582630E+04  0.00000000000E+00 0. -1.
<mgrwt>
<rscale>  0 0.30091409E+04</rscale>
<asrwt>0</asrwt>
<pdfrwt beam="1">  1        2 0.50117735E+00 0.30091409E+04</pdfrwt>
<pdfrwt beam="2">  1       -2 0.10690719E+00 0.30091409E+04</pdfrwt>
<totfact> 0.71501532E-01</totfact>
</mgrwt>
</event>
<event>
 6    1  0.2436515E-005  0.2246990E+04  0.7818608E-02  0.8499120E-01
         -2   -1    0    0    0  501 -0.00000000000E+00  0.00000000000E+00  0.86057853800E+03  0.86057853800E+03  0.00000000000E+00 0. -1.
          2   -1    0    0  501    0  0.00000000000E+00 -0.00000000000E+00 -0.14667359704E+04  0.14667359704E+04  0.00000000000E+00 0.  1.
         23    2    1    2    0    0 -0.79911238760E+03 -0.62619436068E+03 -0.79765695703E+03  0.12941775120E+04  0.89100090161E+02 0.  0.
         13    1    3    3    0    0 -0.56584968424E+03 -0.39156343418E+03 -0.52771012908E+03  0.86717112987E+03  0.00000000000E+00 0.  1.
        -13    1    3    3    0    0 -0.23326270336E+03 -0.23463092650E+03 -0.26994682794E+03  0.42700638211E+03  0.00000000000E+00 0. -1.
         22    1    1    2    0    0  0.79911238760E+03  0.62619436068E+03  0.19149952466E+03  0.10331369964E+04  0.00000000000E+00 0. -1.
<mgrwt>
<rscale>  0 0.22469904E+04</rscale>
<asrwt>0</asrwt>
<pdfrwt beam="1">  1        2 0.22565169E+00 0.22469904E+04</pdfrwt>
<pdfrwt beam="2">  1       -2 0.13239670E+00 0.22469904E+04</pdfrwt>
<totfact> 0.50055173E+00</totfact>
</mgrwt>
</event>
<event>
 6    1  0.2436515E-005  0.4190612E+04  0.7818608E-02  0.7967160E-01
         -2   -1    0    0    0  501 -0.00000000000E+00  0.00000000000E+00  0.11297441992E+04  0.11297441992E+04  0.00000000000E+00 0. -1.
          2   -1    0    0  501    0  0.00000000000E+00 -0.00000000000E+00 -0.38861075812E+04  0.38861075812E+04  0.00000000000E+00 0.  1.
         23    2    1    2    0    0  0.16751859324E+04 -0.82757222718E+03 -0.25102893972E+04  0.31312626726E+04  0.11013341018E+03 0.  0.
         11    1    3    3    0    0  0.93379999655E+03 -0.44852750853E+03 -0.14807788793E+04  0.18071705644E+04  0.00000000000E+00 0. -1.
        -11    1    3    3    0    0  0.74138593583E+03 -0.37904471865E+03 -0.10295105178E+04  0.13240921082E+04  0.00000000000E+00 0.  1.
         22    1    1    2    0    0 -0.16751859324E+04  0.82757222718E+03 -0.24607398478E+03  0.18845891078E+04  0.00000000000E+00 0. -1.
<mgrwt>
<rscale>  0 0.41906121E+04</rscale>
<asrwt>0</asrwt>
<pdfrwt beam="1">  1        2 0.59786271E+00 0.41906121E+04</pdfrwt>
<pdfrwt beam="2">  1       -2 0.17380680E+00 0.41906121E+04</pdfrwt>
<totfact> 0.65373048E-02</totfact>
</mgrwt>
</event>
<event>
 6    1  0.2436515E-005  0.3405918E+04  0.7818608E-02  0.8136455E-01
         -1   -1    0    0    0  501 -0.00000000000E+00  0.00000000000E+00  0.97246252781E+03  0.97246252781E+03  0.00000000000E+00 0. -1.
          1   -1    0    0  501    0  0.00000000000E+00 -0.00000000000E+00 -0.29821905615E+04  0.29821905615E+04  0.00000000000E+00 0.  1.
         23    2    1    2    0    0  0.12514361935E+04 -0.97653123125E+03 -0.29336330935E+03  0.16167878967E+04  0.90748440478E+02 0.  0.
         11    1    3    3    0    0  0.39457499706E+03 -0.26530467817E+03 -0.11273204138E+03  0.48865582337E+03  0.00000000000E+00 0. -1.
        -11    1    3    3    0    0  0.85686119646E+03 -0.71122655308E+03 -0.18063126798E+03  0.11281320733E+04  0.00000000000E+00 0.  1.
         22    1    1    2    0    0 -0.12514361935E+04  0.97653123125E+03 -0.17163647244E+04  0.23378651927E+04  0.00000000000E+00 0.  1.
<mgrwt>
<rscale>  0 0.34059175E+04</rscale>
<asrwt>0</asrwt>
<pdfrwt beam="1">  1        1 0.45879855E+00 0.34059175E+04</pdfrwt>
<pdfrwt beam="2">  1       -1 0.14960962E+00 0.34059175E+04</pdfrwt>
<totfact> 0.17780784E-01</totfact>
</mgrwt>
</event>
<event>
 6    1  0.2436515E-005  0.3323815E+04  0.7818608E-02  0.8156862E-01
          2   -1    0    0  501    0  0.00000000000E+00  0.00000000000E+00  0.16138989275E+04  0.16138989275E+04  0.00000000000E+00 0.  1.
         -2   -1    0    0    0  501 -0.00000000000E+00 -0.00000000000E+00 -0.17113440822E+04  0.17113440822E+04  0.00000000000E+00 0. -1.
         23    2    1    2    0    0  0.10550567122E+03 -0.13339911347E+04 -0.10324967963E+04  0.16927647200E+04  0.93482451928E+02 0.  0.
         11    1    3    3    0    0  0.11818323439E+03 -0.10593836952E+04 -0.80076220991E+03  0.13332221148E+04  0.00000000000E+00 0.  1.
        -11    1    3    3    0    0 -0.12677563178E+02 -0.27460743946E+03 -0.23173458638E+03  0.35954260518E+03  0.00000000000E+00 0. -1.
         22    1    1    2    0    0 -0.10550567122E+03  0.13339911347E+04  0.93505164156E+03  0.16324782897E+04  0.00000000000E+00 0.  1.
<mgrwt>
<rscale>  0 0.33238149E+04</rscale>
<asrwt>0</asrwt>
<pdfrwt beam="1">  1        2 0.24829214E+00 0.33238149E+04</pdfrwt>
<pdfrwt beam="2">  1       -2 0.26328370E+00 0.33238149E+04</pdfrwt>
<totfact> 0.48643125E-01</totfact>
</mgrwt>
</event>
<event>
 6    1  0.2436515E-005  0.1488749E+04  0.7818608E-02  0.8891969E-01
         -2   -1    0    0    0  501 -0.00000000000E+00  0.00000000000E+00  0.39252266181E+03  0.39252266181E+03  0.00000000000E+00 0. -1.
          2   -1    0    0  501    0  0.00000000000E+00 -0.00000000000E+00 -0.14116215451E+04  0.14116215451E+04  0.00000000000E+00 0.  1.
         23    2    1    2    0    0  0.35715791656E+03 -0.53578842526E+03 -0.65677821787E+02  0.65364747308E+03  0.91161553232E+02 0.  0.
         11    1    3    3    0    0  0.13757100505E+03 -0.14793342131E+03  0.66028935285E+01  0.20212292491E+03  0.00000000000E+00 0. -1.
        -11    1    3    3    0    0  0.21958691151E+03 -0.38785500395E+03 -0.72280715316E+02  0.45152454818E+03  0.00000000000E+00 0.  1.
         22    1    1    2    0    0 -0.35715791656E+03  0.53578842526E+03 -0.95342106147E+03  0.11504967338E+04  0.00000000000E+00 0.  1.
<mgrwt>
<rscale>  0 0.14887491E+04</rscale>
<asrwt>0</asrwt>
<pdfrwt beam="1">  1        2 0.21717255E+00 0.14887491E+04</pdfrwt>
<pdfrwt beam="2">  1       -2 0.60388101E-01 0.14887491E+04</pdfrwt>
<totfact> 0.35202518E+01</totfact>
</mgrwt>
</event>
<event>
 6    1  0.3036014E-005  0.4945881E+04  0.7818608E-02  0.7836910E-01
          2   -1    0    0  501    0  0.00000000000E+00  0.00000000000E+00  0.31677459403E+04  0.31677459403E+04  0.00000000000E+00 0.  1.
         -2   -1    0    0    0  501 -0.00000000000E+00 -0.00000000000E+00 -0.19305321626E+04  0.19305321626E+04  0.00000000000E+00 0. -1.
         23    2    1    2    0    0  0.16337154393E+04  0.13295953990E+04 -0.71504147334E+03  0.22263187322E+04  0.91437010801E+02 0.  0.
         13    1    3    3    0    0  0.63812330120E+03  0.55082361697E+03 -0.32582956632E+03  0.90375489533E+03  0.00000000000E+00 0.  1.
        -13    1    3    3    0    0  0.99559213814E+03  0.77877178202E+03 -0.38921190701E+03  0.13225638369E+04  0.00000000000E+00 0. -1.
         22    1    1    2    0    0 -0.16337154393E+04 -0.13295953990E+04  0.19522552511E+04  0.28719593707E+04  0.00000000000E+00 0.  1.
<mgrwt>
<rscale>  0 0.49458813E+04</rscale>
<asrwt>0</asrwt>
<pdfrwt beam="1">  1        2 0.48734553E+00 0.49458813E+04</pdfrwt>
<pdfrwt beam="2">  1       -2 0.29700495E+00 0.49458813E+04</pdfrwt>
<totfact> 0.32962267E-02</totfact>
</mgrwt>
</event>
<event>
 6    1  0.2436515E-005  0.3986682E+04  0.7818608E-02  0.8007239E-01
         -2   -1    0    0    0  501 -0.00000000000E+00  0.00000000000E+00  0.20723404605E+04  0.20723404605E+04  0.00000000000E+00 0. -1.
          2   -1    0    0  501    0  0.00000000000E+00 -0.00000000000E+00 -0.19173528568E+04  0.19173528568E+04  0.00000000000E+00 0.  1.
         23    2    1    2    0    0  0.10699475140E+04 -0.13357880206E+04  0.10981984456E+04  0.20355275078E+04  0.90637136544E+02 0.  0.
         13    1    3    3    0    0  0.56836158046E+03 -0.64054349412E+03  0.53237324838E+03  0.10083412763E+04  0.00000000000E+00 0. -1.
        -13    1    3    3    0    0  0.50158593350E+03 -0.69524452650E+03  0.56582519724E+03  0.10271862315E+04  0.00000000000E+00 0.  1.
         22    1    1    2    0    0 -0.10699475140E+04  0.13357880206E+04 -0.94321084185E+03  0.19541658095E+04  0.00000000000E+00 0.  1.
<mgrwt>
<rscale>  0 0.39866818E+04</rscale>
<asrwt>0</asrwt>
<pdfrwt beam="1">  1        2 0.29497736E+00 0.39866818E+04</pdfrwt>
<pdfrwt beam="2">  1       -2 0.31882161E+00 0.39866818E+04</pdfrwt>
<totfact> 0.14280164E-01</totfact>
</mgrwt>
</event>
<event>
 6    1  0.2436515E-005  0.3718069E+04  0.7818608E-02  0.8063969E-01
          2   -1    0    0  501    0  0.00000000000E+00  0.00000000000E+00  0.33194966794E+04  0.33194966794E+04  0.00000000000E+00 0.  1.
         -2   -1    0    0    0  501 -0.00000000000E+00 -0.00000000000E+00 -0.10411242901E+04  0.10411242901E+04  0.00000000000E+00 0. -1.
         23    2    1    2    0    0  0.35031418131E+03  0.16975205941E+04  0.19245507958E+04  0.25915856638E+04  0.90134866636E+02 0.  0.
         13    1    3    3    0    0  0.17489312439E+03  0.66628917213E+03  0.72763537191E+03  0.10019890720E+04  0.00000000000E+00 0. -1.
        -13    1    3    3    0    0  0.17542105692E+03  0.10312314219E+04  0.11969154239E+04  0.15895965919E+04  0.00000000000E+00 0.  1.
         22    1    1    2    0    0 -0.35031418131E+03 -0.16975205941E+04  0.35382159339E+03  0.17690353057E+04  0.00000000000E+00 0. -1.
<mgrwt>
<rscale>  0 0.37180687E+04</rscale>
<asrwt>0</asrwt>
<pdfrwt beam="1">  1        2 0.51069179E+00 0.37180687E+04</pdfrwt>
<pdfrwt beam="2">  1       -2 0.16017297E+00 0.37180687E+04</pdfrwt>
<totfact> 0.21884314E-01</totfact>
</mgrwt>
</event>
<event>
 6    1  0.2436515E-005  0.1464419E+04  0.7818608E-02  0.8908465E-01
         -2   -1    0    0    0  501 -0.00000000000E+00  0.00000000000E+00  0.34814980643E+03  0.34814980643E+03  0.00000000000E+00 0. -1.
          2   -1    0    0  501    0  0.00000000000E+00 -0.00000000000E+00 -0.15399431781E+04  0.15399431781E+04  0.00000000000E+00 0.  1.
         23    2    1    2    0    0  0.25784782659E+03 -0.57286357354E+03 -0.12059500854E+03  0.64627008705E+03  0.91998335649E+02 0.  0.
         13    1    3    3    0    0  0.14365370159E+03 -0.41840025238E+03 -0.72837916538E+02  0.44833081453E+03  0.00000000000E+00 0.  1.
        -13    1    3    3    0    0  0.11419412500E+03 -0.15446332116E+03 -0.47757092002E+02  0.19793927252E+03  0.00000000000E+00 0. -1.
         22    1    1    2    0    0 -0.25784782659E+03  0.57286357354E+03 -0.10711983632E+04  0.12418228975E+04  0.00000000000E+00 0.  1.
<mgrwt>
<rscale>  0 0.14644192E+04</rscale>
<asrwt>0</asrwt>
<pdfrwt beam="1">  1        2 0.23691434E+00 0.14644192E+04</pdfrwt>
<pdfrwt beam="2">  1       -2 0.53561509E-01 0.14644192E+04</pdfrwt>
<totfact> 0.38345176E+01</totfact>
</mgrwt>
</event>
<event>
 6    1  0.2436515E-005  0.4298984E+04  0.7818608E-02  0.7946806E-01
         -2   -1    0    0    0  501 -0.00000000000E+00  0.00000000000E+00  0.16880687314E+04  0.16880687314E+04  0.00000000000E+00 0. -1.
          2   -1    0    0  501    0  0.00000000000E+00 -0.00000000000E+00 -0.27370420975E+04  0.27370420975E+04  0.00000000000E+00 0.  1.
         23    2    1    2    0    0  0.16333958577E+04 -0.97323358088E+03 -0.15544881423E+04  0.24576986150E+04  0.93185120800E+02 0.  0.
         13    1    3    3    0    0  0.10092524022E+03 -0.68645117658E+02 -0.12926226793E+03  0.17778298626E+03  0.00000000000E+00 0.  1.
        -13    1    3    3    0    0  0.15324706174E+04 -0.90458846322E+03 -0.14252258743E+04  0.22799156287E+04  0.00000000000E+00 0. -1.
         22    1    1    2    0    0 -0.16333958577E+04  0.97323358088E+03  0.50551477616E+03  0.19674122140E+04  0.00000000000E+00 0. -1.
<mgrwt>
<rscale>  0 0.42989837E+04</rscale>
<asrwt>0</asrwt>
<pdfrwt beam="1">  1        2 0.42108339E+00 0.42989837E+04</pdfrwt>
<pdfrwt beam="2">  1       -2 0.25970289E+00 0.42989837E+04</pdfrwt>
<totfact> 0.10886092E-01</totfact>
</mgrwt>
</event>
<event>
 6    1  0.2436515E-005  0.2013918E+04  0.7818608E-02  0.8600141E-01
          2   -1    0    0  501    0  0.00000000000E+00  0.00000000000E+00  0.55268141949E+03  0.55268141949E+03  0.00000000000E+00 0.  1.
         -2   -1    0    0    0  501 -0.00000000000E+00 -0.00000000000E+00 -0.18346302988E+04  0.18346302988E+04  0.00000000000E+00 0. -1.
         23    2    1    2    0    0 -0.45656566858E+03 -0.91244121605E+02  0.41344595411E+03  0.62914752214E+03  0.90063023400E+02 0.  0.
         13    1    3    3    0    0 -0.11295678769E+03  0.11834722392E+02  0.12444268173E+03  0.16847930904E+03  0.00000000000E+00 0. -1.
        -13    1    3    3    0    0 -0.34360888089E+03 -0.10307884400E+03  0.28900327238E+03  0.46066821310E+03  0.00000000000E+00 0.  1.
         22    1    1    2    0    0  0.45656566858E+03  0.91244121605E+02 -0.16953948334E+04  0.17581641961E+04  0.00000000000E+00 0. -1.
<mgrwt>
<rscale>  0 0.20139177E+04</rscale>
<asrwt>0</asrwt>
<pdfrwt beam="1">  1        2 0.85027911E-01 0.20139177E+04</pdfrwt>
<pdfrwt beam="2">  1       -2 0.28225081E+00 0.20139177E+04</pdfrwt>
<totfact> 0.20735866E+00</totfact>
</mgrwt>
</event>
<event>
 6    1  0.2436515E-005  0.8608487E+03  0.7818608E-02  0.9475891E-01
          2   -1    0    0  501    0  0.00000000000E+00  0.00000000000E+00  0.35431085595E+03  0.35431085595E+03  0.00000000000E+00 0.  1.
         -2   -1    0    0    0  501 -0.00000000000E+00 -0.00000000000E+00 -0.52288868772E+03  0.52288868772E+03  0.00000000000E+00 0. -1.
         23    2    1    2    0    0  0.98281049853E+02  0.16193072228E+03 -0.47389656216E+03  0.51789431033E+03  0.88067255354E+02 0.  0.
         13    1    3    3    0    0  0.12583686313E+02  0.79184210545E+02 -0.11859982505E+03  0.14315867722E+03  0.00000000000E+00 0.  1.
        -13    1    3    3    0    0  0.85697363540E+02  0.82746511734E+02 -0.35529673711E+03  0.37473563311E+03  0.00000000000E+00 0. -1.
         22    1    1    2    0    0 -0.98281049853E+02 -0.16193072228E+03  0.30531873039E+03  0.35930523334E+03  0.00000000000E+00 0.  1.
<mgrwt>
<rscale>  0 0.86084874E+03</rscale>
<asrwt>0</asrwt>
<pdfrwt beam="1">  1        2 0.54509363E-01 0.86084874E+03</pdfrwt>
<pdfrwt beam="2">  1       -2 0.80444413E-01 0.86084874E+03</pdfrwt>
<totfact> 0.12512101E+02</totfact>
</mgrwt>
</event>
<event>
 6    1  0.2436515E-005  0.3240775E+04  0.7818608E-02  0.8178131E-01
         -2   -1    0    0    0  501 -0.00000000000E+00  0.00000000000E+00  0.75371271984E+03  0.75371271984E+03  0.00000000000E+00 0. -1.
          2   -1    0    0  501    0  0.00000000000E+00 -0.00000000000E+00 -0.34836289343E+04  0.34836289343E+04  0.00000000000E+00 0.  1.
         23    2    1    2    0    0 -0.54356525010E+03  0.48572007605E+03 -0.32562954552E+04  0.33381963498E+04  0.93314545636E+02 0.  0.
         11    1    3    3    0    0 -0.16430039834E+03  0.11826322885E+03 -0.10744478782E+04  0.10933522101E+04  0.00000000000E+00 0.  1.
        -11    1    3    3    0    0 -0.37926485175E+03  0.36745684720E+03 -0.21818475770E+04  0.22448441397E+04  0.00000000000E+00 0. -1.
         22    1    1    2    0    0  0.54356525010E+03 -0.48572007605E+03  0.52637924073E+03  0.89914530442E+03  0.00000000000E+00 0. -1.
<mgrwt>
<rscale>  0 0.32407749E+04</rscale>
<asrwt>0</asrwt>
<pdfrwt beam="1">  1        2 0.53594290E+00 0.32407749E+04</pdfrwt>
<pdfrwt beam="2">  1       -2 0.11595581E+00 0.32407749E+04</pdfrwt>
<totfact> 0.40423617E-01</totfact>
</mgrwt>
</event>
<event>
 6    1  0.2436515E-005  0.3978992E+04  0.7818608E-02  0.8008798E-01
          2   -1    0    0  501    0  0.00000000000E+00  0.00000000000E+00  0.33949557267E+04  0.33949557267E+04  0.00000000000E+00 0.  1.
         -2   -1    0    0    0  501 -0.00000000000E+00 -0.00000000000E+00 -0.11658751368E+04  0.11658751368E+04  0.00000000000E+00 0. -1.
         23    2    1    2    0    0  0.62272368252E+03  0.14384518895E+04 -0.28612147101E+03  0.15971895171E+04  0.11054516802E+03 0.  0.
         11    1    3    3    0    0  0.14136650856E+03  0.22713788279E+03 -0.61689251368E+02  0.27455722769E+03  0.00000000000E+00 0. -1.
        -11    1    3    3    0    0  0.48135717396E+03  0.12113140067E+04 -0.22443221964E+03  0.13226322894E+04  0.00000000000E+00 0.  1.
         22    1    1    2    0    0 -0.62272368252E+03 -0.14384518895E+04  0.25152020608E+04  0.29636413464E+04  0.00000000000E+00 0.  1.
<mgrwt>
<rscale>  0 0.39789921E+04</rscale>
<asrwt>0</asrwt>
<pdfrwt beam="1">  1        2 0.52230088E+00 0.39789921E+04</pdfrwt>
<pdfrwt beam="2">  1       -2 0.17936541E+00 0.39789921E+04</pdfrwt>
<totfact> 0.13888907E-01</totfact>
</mgrwt>
</event>
<event>
 6    1  0.2436515E-005  0.3711468E+04  0.7818608E-02  0.8065425E-01
         -2   -1    0    0    0  501 -0.00000000000E+00  0.00000000000E+00  0.12429028427E+04  0.12429028427E+04  0.00000000000E+00 0. -1.
          2   -1    0    0  501    0  0.00000000000E+00 -0.00000000000E+00 -0.27707303639E+04  0.27707303639E+04  0.00000000000E+00 0.  1.
         23    2    1    2    0    0  0.74437075762E+03  0.77411999794E+03  0.87075477185E+03  0.13856022683E+04  0.91269804975E+02 0.  0.
         13    1    3    3    0    0  0.42495802545E+03  0.49187427693E+03  0.48940290428E+03  0.81366137331E+03  0.00000000000E+00 0. -1.
        -13    1    3    3    0    0  0.31941273216E+03  0.28224572101E+03  0.38135186757E+03  0.57194089502E+03  0.00000000000E+00 0.  1.
         22    1    1    2    0    0 -0.74437075762E+03 -0.77411999794E+03 -0.23985822930E+04  0.26280309382E+04  0.00000000000E+00 0.  1.
<mgrwt>
<rscale>  0 0.37114680E+04</rscale>
<asrwt>0</asrwt>
<pdfrwt beam="1">  1        2 0.42626621E+00 0.37114680E+04</pdfrwt>
<pdfrwt beam="2">  1       -2 0.19121582E+00 0.37114680E+04</pdfrwt>
<totfact> 0.29580792E-01</totfact>
</mgrwt>
</event>
<event>
 6    1  0.2436515E-005  0.1650719E+04  0.7818608E-02  0.8789981E-01
          1   -1    0    0  501    0  0.00000000000E+00  0.00000000000E+00  0.16393316045E+04  0.16393316045E+04  0.00000000000E+00 0.  1.
         -1   -1    0    0    0  501 -0.00000000000E+00 -0.00000000000E+00 -0.41554634028E+03  0.41554634028E+03  0.00000000000E+00 0. -1.
         23    2    1    2    0    0  0.70348797050E+03  0.39140228208E+03  0.82603837548E+03  0.11569393842E+04  0.89879196204E+02 0.  0.
         11    1    3    3    0    0  0.53248182520E+03  0.32835065871E+03  0.60276380241E+03  0.86872046755E+03  0.00000000000E+00 0. -1.
        -11    1    3    3    0    0  0.17100614530E+03  0.63051623370E+02  0.22327457308E+03  0.28821891666E+03  0.00000000000E+00 0.  1.
         22    1    1    2    0    0 -0.70348797050E+03 -0.39140228208E+03  0.39774688875E+03  0.89793856058E+03  0.00000000000E+00 0. -1.
<mgrwt>
<rscale>  0 0.16507189E+04</rscale>
<asrwt>0</asrwt>
<pdfrwt beam="1">  1        1 0.25220486E+00 0.16507189E+04</pdfrwt>
<pdfrwt beam="2">  1       -1 0.63930207E-01 0.16507189E+04</pdfrwt>
<totfact> 0.12432694E+01</totfact>
</mgrwt>
</event>
<event>
 6    1  0.2436515E-005  0.5676132E+04  0.7818608E-02  0.7731908E-01
          2   -1    0    0  501    0  0.00000000000E+00  0.00000000000E+00  0.41759120245E+04  0.41759120245E+04  0.00000000000E+00 0.  1.
         -2   -1    0    0    0  501 -0.00000000000E+00 -0.00000000000E+00 -0.19288286074E+04  0.19288286074E+04  0.00000000000E+00 0. -1.
         23    2    1    2    0    0 -0.22562349126E+04  0.44538910559E+03 -0.66338613018E+03  0.23953201352E+04  0.92249423438E+02 0.  0.
         11    1    3    3    0    0 -0.17883779319E+04  0.39064229194E+03 -0.53255925985E+03  0.19064407656E+04  0.00000000000E+00 0.  1.
        -11    1    3    3    0    0 -0.46785698066E+03  0.54746813648E+02 -0.13082687034E+03  0.48887936954E+03  0.00000000000E+00 0. -1.
         22    1    1    2    0    0  0.22562349126E+04 -0.44538910559E+03  0.29104695472E+04  0.37094204967E+04  0.00000000000E+00 0.  1.
<mgrwt>
<rscale>  0 0.56761320E+04</rscale>
<asrwt>0</asrwt>
<pdfrwt beam="1">  1        2 0.64244800E+00 0.56761320E+04</pdfrwt>
<pdfrwt beam="2">  1       -2 0.29674286E+00 0.56761320E+04</pdfrwt>
<totfact> 0.55638311E-03</totfact>
</mgrwt>
</event>
<event>
 6    1  0.2436515E-005  0.2214554E+04  0.7818608E-02  0.8512395E-01
          2   -1    0    0  501    0  0.00000000000E+00  0.00000000000E+00  0.19380203982E+04  0.19380203982E+04  0.00000000000E+00 0.  1.
         -2   -1    0    0    0  501 -0.00000000000E+00 -0.00000000000E+00 -0.63263653585E+03  0.63263653585E+03  0.00000000000E+00 0. -1.
         23    2    1    2    0    0  0.70902176616E+03  0.48041815887E+03  0.14648110377E+04  0.16994907636E+04  0.95310057145E+02 0.  0.
         11    1    3    3    0    0  0.17049296113E+03  0.11063631437E+03  0.43200215067E+03  0.47742444641E+03  0.00000000000E+00 0. -1.
        -11    1    3    3    0    0  0.53852880503E+03  0.36978184450E+03  0.10328088871E+04  0.12220663172E+04  0.00000000000E+00 0.  1.
         22    1    1    2    0    0 -0.70902176616E+03 -0.48041815887E+03 -0.15942717540E+03  0.87116617044E+03  0.00000000000E+00 0. -1.
<mgrwt>
<rscale>  0 0.22145541E+04</rscale>
<asrwt>0</asrwt>
<pdfrwt beam="1">  1        2 0.29815698E+00 0.22145541E+04</pdfrwt>
<pdfrwt beam="2">  1       -2 0.97328699E-01 0.22145541E+04</pdfrwt>
<totfact> 0.58142112E+00</totfact>
</mgrwt>
</event>
<event>
 6    1  0.2436515E-005  0.2739390E+04  0.7818608E-02  0.8322336E-01
          2   -1    0    0  501    0  0.00000000000E+00  0.00000000000E+00  0.25905290778E+04  0.25905290778E+04  0.00000000000E+00 0.  1.
         -2   -1    0    0    0  501 -0.00000000000E+00 -0.00000000000E+00 -0.72420141933E+03  0.72420141933E+03  0.00000000000E+00 0. -1.
         23    2    1    2    0    0  0.31362844340E+02 -0.68355495130E+03 -0.49940688102E+03  0.85202245297E+03  0.91126440166E+02 0.  0.
         13    1    3    3    0    0  0.44484111641E+02 -0.28116388727E+03 -0.16782087375E+03  0.33044789810E+03  0.00000000000E+00 0. -1.
        -13    1    3    3    0    0 -0.13121267301E+02 -0.40239106404E+03 -0.33158600727E+03  0.52157455487E+03  0.00000000000E+00 0.  1.
         22    1    1    2    0    0 -0.31362844340E+02  0.68355495130E+03  0.23657345394E+04  0.24627080441E+04  0.00000000000E+00 0.  1.
<mgrwt>
<rscale>  0 0.27393903E+04</rscale>
<asrwt>0</asrwt>
<pdfrwt beam="1">  1        2 0.39854293E+00 0.27393903E+04</pdfrwt>
<pdfrwt beam="2">  1       -2 0.11141560E+00 0.27393903E+04</pdfrwt>
<totfact> 0.17164292E+00</totfact>
</mgrwt>
</event>
<event>
 6    1  0.2436515E-005  0.8395814E+04  0.7818608E-02  0.7448443E-01
         -2   -1    0    0    0  501 -0.00000000000E+00  0.00000000000E+00  0.43685050005E+04  0.43685050005E+04  0.00000000000E+00 0. -1.
          2   -1    0    0  501    0  0.00000000000E+00 -0.00000000000E+00 -0.40339711928E+04  0.40339711928E+04  0.00000000000E+00 0.  1.
         23    2    1    2    0    0 -0.28716966986E+04  0.13214439766E+04  0.29309122290E+04  0.43117504608E+04  0.89941259795E+02 0.  0.
         13    1    3    3    0    0 -0.23328411481E+04  0.11068346911E+04  0.23697673900E+04  0.35047151579E+04  0.00000000000E+00 0. -1.
        -13    1    3    3    0    0 -0.53885555049E+03  0.21460928549E+03  0.56114483907E+03  0.80703530290E+03  0.00000000000E+00 0.  1.
         22    1    1    2    0    0  0.28716966986E+04 -0.13214439766E+04 -0.25963784213E+04  0.40907257325E+04  0.00000000000E+00 0.  1.
<mgrwt>
<rscale>  0 0.83958140E+04</rscale>
<asrwt>0</asrwt>
<pdfrwt beam="1">  1        2 0.62061096E+00 0.83958140E+04</pdfrwt>
<pdfrwt beam="2">  1       -2 0.67207769E+00 0.83958140E+04</pdfrwt>
<totfact> 0.52814377E-05</totfact>
</mgrwt>
</event>
<event>
 6    1  0.2436515E-005  0.8204827E+03  0.7818608E-02  0.9530833E-01
         -2   -1    0    0    0  501 -0.00000000000E+00  0.00000000000E+00  0.96834236608E+02  0.96834236608E+02  0.00000000000E+00 0. -1.
          2   -1    0    0  501    0  0.00000000000E+00 -0.00000000000E+00 -0.17380006494E+04  0.17380006494E+04  0.00000000000E+00 0.  1.
         23    2    1    2    0    0  0.24563999620E+03 -0.24407791062E+03 -0.36044548868E+03  0.50812500075E+03  0.91416803098E+02 0.  0.
         11    1    3    3    0    0  0.93335413785E+02 -0.12619402081E+03 -0.21776184503E+03  0.26843370039E+03  0.00000000000E+00 0. -1.
        -11    1    3    3    0    0  0.15230458242E+03 -0.11788388981E+03 -0.14268364365E+03  0.23969130036E+03  0.00000000000E+00 0.  1.
         22    1    1    2    0    0 -0.24563999620E+03  0.24407791062E+03 -0.12807209241E+04  0.13267098852E+04  0.00000000000E+00 0.  1.
<mgrwt>
<rscale>  0 0.82048270E+03</rscale>
<asrwt>0</asrwt>
<pdfrwt beam="1">  1        2 0.26738470E+00 0.82048270E+03</pdfrwt>
<pdfrwt beam="2">  1       -2 0.14897576E-01 0.82048270E+03</pdfrwt>
<totfact> 0.33526649E+02</totfact>
</mgrwt>
</event>
<event>
 6    1  0.2436515E-005  0.7412779E+03  0.7818608E-02  0.9649134E-01
         -2   -1    0    0    0  501 -0.00000000000E+00  0.00000000000E+00  0.10262263631E+03  0.10262263631E+03  0.00000000000E+00 0. -1.
          2   -1    0    0  501    0  0.00000000000E+00 -0.00000000000E+00 -0.13386250499E+04  0.13386250499E+04  0.00000000000E+00 0.  1.
         23    2    1    2    0    0  0.10358239725E+03 -0.27163298501E+03 -0.10566726041E+04  0.10996734305E+04  0.90613851632E+02 0.  0.
         13    1    3    3    0    0  0.25764701560E+01 -0.10445141969E+03 -0.28131329573E+03  0.30008983259E+03  0.00000000000E+00 0. -1.
        -13    1    3    3    0    0  0.10100592710E+03 -0.16718156532E+03 -0.77535930833E+03  0.79958359795E+03  0.00000000000E+00 0.  1.
         22    1    1    2    0    0 -0.10358239725E+03  0.27163298501E+03 -0.17932980957E+03  0.34157425571E+03  0.00000000000E+00 0. -1.
<mgrwt>
<rscale>  0 0.74127790E+03</rscale>
<asrwt>0</asrwt>
<pdfrwt beam="1">  1        2 0.20594230E+00 0.74127790E+03</pdfrwt>
<pdfrwt beam="2">  1       -2 0.15788099E-01 0.74127790E+03</pdfrwt>
<totfact> 0.50925273E+02</totfact>
</mgrwt>
</event>
<event>
 6    1  0.2436515E-005  0.4661657E+04  0.7818608E-02  0.7882931E-01
         -2   -1    0    0    0  501 -0.00000000000E+00  0.00000000000E+00  0.12888662758E+04  0.12888662758E+04  0.00000000000E+00 0. -1.
          2   -1    0    0  501    0  0.00000000000E+00 -0.00000000000E+00 -0.42151474917E+04  0.42151474917E+04  0.00000000000E+00 0.  1.
         23    2    1    2    0    0 -0.12470523394E+03 -0.88581896057E+03 -0.40038096707E+04  0.41035516305E+04  0.91746814654E+02 0.  0.
         13    1    3    3    0    0 -0.97746356071E+02 -0.80077022659E+03 -0.34872323909E+04  0.35793263409E+04  0.00000000000E+00 0. -1.
        -13    1    3    3    0    0 -0.26958877868E+02 -0.85048733978E+02 -0.51657727980E+03  0.52422528960E+03  0.00000000000E+00 0.  1.
         22    1    1    2    0    0  0.12470523394E+03  0.88581896057E+03  0.10775284548E+04  0.14004621370E+04  0.00000000000E+00 0. -1.
<mgrwt>
<rscale>  0 0.46616570E+04</rscale>
<asrwt>0</asrwt>
<pdfrwt beam="1">  1        2 0.64848422E+00 0.46616570E+04</pdfrwt>
<pdfrwt beam="2">  1       -2 0.19828712E+00 0.46616570E+04</pdfrwt>
<totfact> 0.22888978E-02</totfact>
</mgrwt>
</event>
<event>
 6    1  0.2436515E-005  0.7079344E+03  0.7818608E-02  0.9703759E-01
         -2   -1    0    0    0  501 -0.00000000000E+00  0.00000000000E+00  0.19617294315E+03  0.19617294315E+03  0.00000000000E+00 0. -1.
          2   -1    0    0  501    0  0.00000000000E+00 -0.00000000000E+00 -0.63868539902E+03  0.63868539902E+03  0.00000000000E+00 0.  1.
         23    2    1    2    0    0  0.87302491472E+02  0.32329912402E+03 -0.11764381425E+03  0.36829250231E+03  0.98261139907E+02 0.  0.
         11    1    3    3    0    0  0.46541806369E+02  0.21003401197E+03 -0.12297778478E+03  0.24779822734E+03  0.00000000000E+00 0.  1.
        -11    1    3    3    0    0  0.40760685103E+02  0.11326511206E+03  0.53339705304E+01  0.12049427497E+03  0.00000000000E+00 0. -1.
         22    1    1    2    0    0 -0.87302491472E+02 -0.32329912402E+03 -0.32486864162E+03  0.46656583985E+03  0.00000000000E+00 0. -1.
<mgrwt>
<rscale>  0 0.70793444E+03</rscale>
<asrwt>0</asrwt>
<pdfrwt beam="1">  1        2 0.98259293E-01 0.70793444E+03</pdfrwt>
<pdfrwt beam="2">  1       -2 0.30180453E-01 0.70793444E+03</pdfrwt>
<totfact> 0.46871384E+02</totfact>
</mgrwt>
</event>
<event>
 6    1  0.2436515E-005  0.2734878E+04  0.7818608E-02  0.8323776E-01
         -2   -1    0    0    0  501 -0.00000000000E+00  0.00000000000E+00  0.64665806228E+03  0.64665806228E+03  0.00000000000E+00 0. -1.
          2   -1    0    0  501    0  0.00000000000E+00 -0.00000000000E+00 -0.28916198915E+04  0.28916198915E+04  0.00000000000E+00 0.  1.
         23    2    1    2    0    0  0.12892767100E+04  0.82745121829E+02 -0.54964249981E+03  0.14068022165E+04  0.88906741688E+02 0.  0.
         13    1    3    3    0    0  0.10402643473E+04  0.57843102276E+02 -0.40547615332E+03  0.11179922395E+04  0.00000000000E+00 0. -1.
        -13    1    3    3    0    0  0.24901236266E+03  0.24902019552E+02 -0.14416634649E+03  0.28880997697E+03  0.00000000000E+00 0.  1.
         22    1    1    2    0    0 -0.12892767100E+04 -0.82745121829E+02 -0.16953193295E+04  0.21314757373E+04  0.00000000000E+00 0.  1.
<mgrwt>
<rscale>  0 0.27348779E+04</rscale>
<asrwt>0</asrwt>
<pdfrwt beam="1">  1        2 0.44486459E+00 0.27348779E+04</pdfrwt>
<pdfrwt beam="2">  1       -2 0.99485857E-01 0.27348779E+04</pdfrwt>
<totfact> 0.14866247E+00</totfact>
</mgrwt>
</event>
<event>
 6    1  0.2436515E-005  0.2510889E+04  0.7818608E-02  0.8399116E-01
          2   -1    0    0  501    0  0.00000000000E+00  0.00000000000E+00  0.30085217479E+04  0.30085217479E+04  0.00000000000E+00 0.  1.
         -2   -1    0    0    0  501 -0.00000000000E+00 -0.00000000000E+00 -0.52389230462E+03  0.52389230462E+03  0.00000000000E+00 0. -1.
         23    2    1    2    0    0 -0.40640040684E+03  0.49901716163E+03  0.27577489368E+04  0.28332905469E+04  0.90425142082E+02 0.  0.
         11    1    3    3    0    0 -0.10205810978E+03  0.17702283170E+03  0.98956449448E+03  0.10104409084E+04  0.00000000000E+00 0. -1.
        -11    1    3    3    0    0 -0.30434229705E+03  0.32199432993E+03  0.17681844424E+04  0.18228496385E+04  0.00000000000E+00 0.  1.
         22    1    1    2    0    0  0.40640040684E+03 -0.49901716163E+03 -0.27311949358E+03  0.69912350558E+03  0.00000000000E+00 0. -1.
<mgrwt>
<rscale>  0 0.25108894E+04</rscale>
<asrwt>0</asrwt>
<pdfrwt beam="1">  1        2 0.46284949E+00 0.25108894E+04</pdfrwt>
<pdfrwt beam="2">  1       -2 0.80598818E-01 0.25108894E+04</pdfrwt>
<totfact> 0.20834036E+00</totfact>
</mgrwt>
</event>
<event>
 6    1  0.2436515E-005  0.8388052E+03  0.7818608E-02  0.9505487E-01
          2   -1    0    0  501    0  0.00000000000E+00  0.00000000000E+00  0.10559844216E+04  0.10559844216E+04  0.00000000000E+00 0.  1.
         -2   -1    0    0    0  501 -0.00000000000E+00 -0.00000000000E+00 -0.16657304174E+03  0.16657304174E+03  0.00000000000E+00 0. -1.
         23    2    1    2    0    0  0.24081226442E+03 -0.19330846258E+03  0.47484914738E+02  0.32578609836E+03  0.92320400553E+02 0.  0.
         13    1    3    3    0    0  0.14875740435E+03 -0.14750742929E+03  0.69339275296E+02  0.22066975811E+03  0.00000000000E+00 0. -1.
        -13    1    3    3    0    0  0.92054860063E+02 -0.45801033281E+02 -0.21854360558E+02  0.10511634024E+03  0.00000000000E+00 0.  1.
         22    1    1    2    0    0 -0.24081226442E+03  0.19330846258E+03  0.84192646510E+03  0.89677136497E+03  0.00000000000E+00 0.  1.
<mgrwt>
<rscale>  0 0.83880519E+03</rscale>
<asrwt>0</asrwt>
<pdfrwt beam="1">  1        2 0.16245914E+00 0.83880519E+03</pdfrwt>
<pdfrwt beam="2">  1       -2 0.25626622E-01 0.83880519E+03</pdfrwt>
<totfact> 0.31917885E+02</totfact>
</mgrwt>
</event>
<event>
 6    1  0.2436515E-005  0.2066392E+04  0.7818608E-02  0.8576194E-01
          4   -1    0    0  501    0  0.00000000000E+00  0.00000000000E+00  0.68107142809E+03  0.68107142809E+03  0.00000000000E+00 0.  1.
         -4   -1    0    0    0  501 -0.00000000000E+00 -0.00000000000E+00 -0.15673751869E+04  0.15673751869E+04  0.00000000000E+00 0. -1.
         23    2    1    2    0    0  0.40357765412E+03  0.81893351389E+03  0.77110884977E+02  0.92115810117E+03  0.95179491967E+02 0.  0.
         13    1    3    3    0    0  0.23564219589E+03  0.43699696274E+03 -0.20659148264E+01  0.49648550627E+03  0.00000000000E+00 0. -1.
        -13    1    3    3    0    0  0.16793545823E+03  0.38193655115E+03  0.79176799803E+02  0.42467259490E+03  0.00000000000E+00 0.  1.
         22    1    1    2    0    0 -0.40357765412E+03 -0.81893351389E+03 -0.96341464380E+03  0.13272885138E+04  0.00000000000E+00 0. -1.
<mgrwt>
<rscale>  0 0.20663925E+04</rscale>
<asrwt>0</asrwt>
<pdfrwt beam="1">  1        4 0.10478022E+00 0.20663925E+04</pdfrwt>
<pdfrwt beam="2">  1       -4 0.24113464E+00 0.20663925E+04</pdfrwt>
<totfact> 0.97832930E-02</totfact>
</mgrwt>
</event>
<event>
 6    1  0.2436515E-005  0.2040537E+04  0.7818608E-02  0.8587899E-01
          2   -1    0    0  501    0  0.00000000000E+00  0.00000000000E+00  0.10177616734E+04  0.10177616734E+04  0.00000000000E+00 0.  1.
         -2   -1    0    0    0  501 -0.00000000000E+00 -0.00000000000E+00 -0.10227812030E+04  0.10227812030E+04  0.00000000000E+00 0. -1.
         23    2    1    2    0    0 -0.37236438907E+03  0.55712845314E+03 -0.76913157484E+03  0.10242188290E+04  0.91725017349E+02 0.  0.
         13    1    3    3    0    0 -0.22482947071E+03  0.35802310854E+03 -0.41862499403E+03  0.59495858913E+03  0.00000000000E+00 0.  1.
        -13    1    3    3    0    0 -0.14753491836E+03  0.19910534460E+03 -0.35050658081E+03  0.42926023991E+03  0.00000000000E+00 0. -1.
         22    1    1    2    0    0  0.37236438907E+03 -0.55712845314E+03  0.76411204519E+03  0.10163240473E+04  0.00000000000E+00 0.  1.
<mgrwt>
<rscale>  0 0.20405367E+04</rscale>
<asrwt>0</asrwt>
<pdfrwt beam="1">  1        2 0.15657872E+00 0.20405367E+04</pdfrwt>
<pdfrwt beam="2">  1       -2 0.15735095E+00 0.20405367E+04</pdfrwt>
<totfact> 0.59882595E+00</totfact>
</mgrwt>
</event>
<event>
 6    1  0.2436515E-005  0.2141819E+04  0.7818608E-02  0.8543042E-01
          2   -1    0    0  501    0  0.00000000000E+00  0.00000000000E+00  0.64391396069E+03  0.64391396069E+03  0.00000000000E+00 0.  1.
         -2   -1    0    0    0  501 -0.00000000000E+00 -0.00000000000E+00 -0.17810559799E+04  0.17810559799E+04  0.00000000000E+00 0. -1.
         23    2    1    2    0    0 -0.70944399890E+03 -0.51161258246E+03  0.12594786880E+03  0.88859294021E+03  0.93146796140E+02 0.  0.
         11    1    3    3    0    0 -0.46425214558E+03 -0.38780662546E+03  0.89969362324E+02  0.61157053525E+03  0.00000000000E+00 0.  1.
        -11    1    3    3    0    0 -0.24519185332E+03 -0.12380595700E+03  0.35978506480E+02  0.27702240496E+03  0.00000000000E+00 0. -1.
         22    1    1    2    0    0  0.70944399890E+03  0.51161258246E+03 -0.12630898881E+04  0.15363770004E+04  0.00000000000E+00 0. -1.
<mgrwt>
<rscale>  0 0.21418187E+04</rscale>
<asrwt>0</asrwt>
<pdfrwt beam="1">  1        2 0.99063688E-01 0.21418187E+04</pdfrwt>
<pdfrwt beam="2">  1       -2 0.27400861E+00 0.21418187E+04</pdfrwt>
<totfact> 0.19141682E+00</totfact>
</mgrwt>
</event>
<event>
 6    1  0.2436515E-005  0.8392804E+03  0.7818608E-02  0.9504838E-01
          2   -1    0    0  501    0  0.00000000000E+00  0.00000000000E+00  0.15558903181E+04  0.15558903181E+04  0.00000000000E+00 0.  1.
         -2   -1    0    0    0  501 -0.00000000000E+00 -0.00000000000E+00 -0.11318143531E+03  0.11318143531E+03  0.00000000000E+00 0. -1.
         23    2    1    2    0    0  0.65830218471E+02 -0.14074092798E+03  0.14944550307E+04  0.15053057915E+04  0.91695478374E+02 0.  0.
         11    1    3    3    0    0  0.78158932185E+02 -0.11762852103E+03  0.14053995518E+04  0.14124776769E+04  0.00000000000E+00 0. -1.
        -11    1    3    3    0    0 -0.12328713715E+02 -0.23112406951E+02  0.89055478885E+02  0.92828114580E+02  0.00000000000E+00 0.  1.
         22    1    1    2    0    0 -0.65830218471E+02  0.14074092798E+03 -0.51746147858E+02  0.16376596194E+03  0.00000000000E+00 0. -1.
<mgrwt>
<rscale>  0 0.83928040E+03</rscale>
<asrwt>0</asrwt>
<pdfrwt beam="1">  1        2 0.23936773E+00 0.83928040E+03</pdfrwt>
<pdfrwt beam="2">  1       -2 0.17412530E-01 0.83928040E+03</pdfrwt>
<totfact> 0.32327293E+02</totfact>
</mgrwt>
</event>
<event>
 6    1  0.2436515E-005  0.1521371E+04  0.7818608E-02  0.8870364E-01
         -2   -1    0    0    0  501 -0.00000000000E+00  0.00000000000E+00  0.37713043033E+03  0.37713043033E+03  0.00000000000E+00 0. -1.
          2   -1    0    0  501    0  0.00000000000E+00 -0.00000000000E+00 -0.15343304975E+04  0.15343304975E+04  0.00000000000E+00 0.  1.
         23    2    1    2    0    0  0.17671384212E+03 -0.36308054848E+03 -0.13865524428E+04  0.14470712434E+04  0.91827230122E+02 0.  0.
         11    1    3    3    0    0  0.14211575050E+03 -0.21900506890E+03 -0.77368922578E+03  0.81655074848E+03  0.00000000000E+00 0. -1.
        -11    1    3    3    0    0  0.34598091618E+02 -0.14407547957E+03 -0.61286321705E+03  0.63052049496E+03  0.00000000000E+00 0.  1.
         22    1    1    2    0    0 -0.17671384212E+03  0.36308054848E+03  0.22935237570E+03  0.46438968434E+03  0.00000000000E+00 0. -1.
<mgrwt>
<rscale>  0 0.15213714E+04</rscale>
<asrwt>0</asrwt>
<pdfrwt beam="1">  1        2 0.23605084E+00 0.15213714E+04</pdfrwt>
<pdfrwt beam="2">  1       -2 0.58020067E-01 0.15213714E+04</pdfrwt>
<totfact> 0.32551022E+01</totfact>
</mgrwt>
</event>
<event>
 6    1  0.2436515E-005  0.1692169E+04  0.7818608E-02  0.8765843E-01
         -2   -1    0    0    0  501 -0.00000000000E+00  0.00000000000E+00  0.97191949442E+03  0.97191949442E+03  0.00000000000E+00 0. -1.
          2   -1    0    0  501    0  0.00000000000E+00 -0.00000000000E+00 -0.73654183466E+03  0.73654183466E+03  0.00000000000E+00 0.  1.
         23    2    1    2    0    0 -0.60169300881E+03  0.12078784791E+03  0.70209025557E+03  0.93745884651E+03  0.96302548669E+02 0.  0.
         11    1    3    3    0    0 -0.24632411928E+03  0.81199044721E+02  0.24171002512E+03  0.35453151179E+03  0.00000000000E+00 0.  1.
        -11    1    3    3    0    0 -0.35536888952E+03  0.39588803186E+02  0.46038023045E+03  0.58292733472E+03  0.00000000000E+00 0. -1.
         22    1    1    2    0    0  0.60169300881E+03 -0.12078784791E+03 -0.46671259581E+03  0.77100248257E+03  0.00000000000E+00 0.  1.
<mgrwt>
<rscale>  0 0.16921695E+04</rscale>
<asrwt>0</asrwt>
<pdfrwt beam="1">  1        2 0.11331413E+00 0.16921695E+04</pdfrwt>
<pdfrwt beam="2">  1       -2 0.14952608E+00 0.16921695E+04</pdfrwt>
<totfact> 0.11038616E+01</totfact>
</mgrwt>
</event>
<event>
 6    1  0.2802659E-005  0.3377207E+04  0.7818608E-02  0.8143523E-01
          2   -1    0    0  501    0  0.00000000000E+00  0.00000000000E+00  0.20721305376E+04  0.20721305376E+04  0.00000000000E+00 0.  1.
         -2   -1    0    0    0  501 -0.00000000000E+00 -0.00000000000E+00 -0.13760629151E+04  0.13760629151E+04  0.00000000000E+00 0. -1.
         23    2    1    2    0    0  0.74933028524E+02 -0.78466168631E+03 -0.11750382520E+04  0.14178372982E+04  0.90767778734E+02 0.  0.
         13    1    3    3    0    0  0.90908051393E+02 -0.49469183776E+03 -0.75297994712E+03  0.90551813285E+03  0.00000000000E+00 0. -1.
        -13    1    3    3    0    0 -0.15975022869E+02 -0.28996984855E+03 -0.42205830490E+03  0.51231916532E+03  0.00000000000E+00 0.  1.
         22    1    1    2    0    0 -0.74933028524E+02  0.78466168631E+03  0.18711058745E+04  0.20303561546E+04  0.00000000000E+00 0.  1.
<mgrwt>
<rscale>  0 0.33772071E+04</rscale>
<asrwt>0</asrwt>
<pdfrwt beam="1">  1        2 0.31878931E+00 0.33772071E+04</pdfrwt>
<pdfrwt beam="2">  1       -2 0.21170199E+00 0.33772071E+04</pdfrwt>
<totfact> 0.56444415E-01</totfact>
</mgrwt>
</event>
<event>
 6    1  0.2436515E-005  0.2761225E+04  0.7818608E-02  0.8315409E-01
         -2   -1    0    0    0  501 -0.00000000000E+00  0.00000000000E+00  0.19360530067E+04  0.19360530067E+04  0.00000000000E+00 0. -1.
          2   -1    0    0  501    0  0.00000000000E+00 -0.00000000000E+00 -0.98452380684E+03  0.98452380684E+03  0.00000000000E+00 0.  1.
         23    2    1    2    0    0 -0.13031228358E+04  0.44477139452E+03  0.38813050704E+03  0.14328373183E+04  0.80167147268E+02 0.  0.
         13    1    3    3    0    0 -0.77893587549E+03  0.26588989224E+03  0.27271740950E+03  0.86707169160E+03  0.00000000000E+00 0. -1.
        -13    1    3    3    0    0 -0.52418696033E+03  0.17888150228E+03  0.11541309753E+03  0.56576562667E+03  0.00000000000E+00 0.  1.
         22    1    1    2    0    0  0.13031228358E+04 -0.44477139452E+03  0.56339869278E+03  0.14877394952E+04  0.00000000000E+00 0.  1.
<mgrwt>
<rscale>  0 0.27612246E+04</rscale>
<asrwt>0</asrwt>
<pdfrwt beam="1">  1        2 0.15146520E+00 0.27612246E+04</pdfrwt>
<pdfrwt beam="2">  1       -2 0.29785431E+00 0.27612246E+04</pdfrwt>
<totfact> 0.73707018E-01</totfact>
</mgrwt>
</event>
<event>
 6    1  0.2436515E-005  0.2475184E+04  0.7818608E-02  0.8411880E-01
         -1   -1    0    0    0  501 -0.00000000000E+00  0.00000000000E+00  0.12724189338E+04  0.12724189338E+04  0.00000000000E+00 0. -1.
          1   -1    0    0  501    0  0.00000000000E+00 -0.00000000000E+00 -0.12037186482E+04  0.12037186482E+04  0.00000000000E+00 0.  1.
         23    2    1    2    0    0  0.11191050143E+04  0.52428948463E+03  0.20179898067E+02  0.12393555783E+04  0.91211427893E+02 0.  0.
         13    1    3    3    0    0  0.65029613585E+03  0.26452685186E+03 -0.15428907171E+02  0.70220906490E+03  0.00000000000E+00 0.  1.
        -13    1    3    3    0    0  0.46880887842E+03  0.25976263277E+03  0.35608805238E+02  0.53714651342E+03  0.00000000000E+00 0. -1.
         22    1    1    2    0    0 -0.11191050143E+04 -0.52428948463E+03  0.48520387562E+02  0.12367820037E+04  0.00000000000E+00 0. -1.
<mgrwt>
<rscale>  0 0.24751844E+04</rscale>
<asrwt>0</asrwt>
<pdfrwt beam="1">  1        1 0.18518749E+00 0.24751844E+04</pdfrwt>
<pdfrwt beam="2">  1       -1 0.19575676E+00 0.24751844E+04</pdfrwt>
<totfact> 0.15226486E+00</totfact>
</mgrwt>
</event>
<event>
 6    1  0.2436515E-005  0.2956199E+04  0.7818608E-02  0.8256350E-01
         -2   -1    0    0    0  501 -0.00000000000E+00  0.00000000000E+00  0.18744646109E+04  0.18744646109E+04  0.00000000000E+00 0. -1.
          2   -1    0    0  501    0  0.00000000000E+00 -0.00000000000E+00 -0.11655474881E+04  0.11655474881E+04  0.00000000000E+00 0.  1.
         23    2    1    2    0    0 -0.15348713914E+03  0.98826455223E+03  0.14720275717E+04  0.17820126219E+04  0.92079778808E+02 0.  0.
         13    1    3    3    0    0 -0.67332054666E+02  0.48016326923E+03  0.79441758767E+03  0.93069311500E+03  0.00000000000E+00 0. -1.
        -13    1    3    3    0    0 -0.86155084469E+02  0.50810128300E+03  0.67760998407E+03  0.85131950693E+03  0.00000000000E+00 0.  1.
         22    1    1    2    0    0  0.15348713914E+03 -0.98826455223E+03 -0.76311044891E+03  0.12579994771E+04  0.00000000000E+00 0.  1.
<mgrwt>
<rscale>  0 0.29561986E+04</rscale>
<asrwt>0</asrwt>
<pdfrwt beam="1">  1        2 0.17931500E+00 0.29561986E+04</pdfrwt>
<pdfrwt beam="2">  1       -2 0.28837917E+00 0.29561986E+04</pdfrwt>
<totfact> 0.63886615E-01</totfact>
</mgrwt>
</event>
<event>
 6    1  0.2436515E-005  0.2135639E+04  0.7818608E-02  0.8545705E-01
          2   -1    0    0  501    0  0.00000000000E+00  0.00000000000E+00  0.35859519426E+04  0.35859519426E+04  0.00000000000E+00 0.  1.
         -2   -1    0    0    0  501 -0.00000000000E+00 -0.00000000000E+00 -0.31797370166E+03  0.31797370166E+03  0.00000000000E+00 0. -1.
         23    2    1    2    0    0  0.77161415221E+03 -0.17054624256E+03  0.29446206682E+04  0.30500904490E+04  0.88240847120E+02 0.  0.
         13    1    3    3    0    0  0.53096708928E+03 -0.79235675902E+02  0.20575875511E+04  0.21264691093E+04  0.00000000000E+00 0. -1.
        -13    1    3    3    0    0  0.24064706293E+03 -0.91310566662E+02  0.88703311707E+03  0.92362133976E+03  0.00000000000E+00 0.  1.
         22    1    1    2    0    0 -0.77161415221E+03  0.17054624256E+03  0.32335757277E+03  0.85383519523E+03  0.00000000000E+00 0. -1.
<mgrwt>
<rscale>  0 0.21356389E+04</rscale>
<asrwt>0</asrwt>
<pdfrwt beam="1">  1        2 0.55168489E+00 0.21356389E+04</pdfrwt>
<pdfrwt beam="2">  1       -2 0.48919034E-01 0.21356389E+04</pdfrwt>
<totfact> 0.25812805E+00</totfact>
</mgrwt>
</event>
<event>
 6    1  0.2436515E-005  0.1744545E+04  0.7818608E-02  0.8736359E-01
          2   -1    0    0  501    0  0.00000000000E+00  0.00000000000E+00  0.10028347867E+04  0.10028347867E+04  0.00000000000E+00 0.  1.
         -2   -1    0    0    0  501 -0.00000000000E+00 -0.00000000000E+00 -0.75870861590E+03  0.75870861590E+03  0.00000000000E+00 0. -1.
         23    2    1    2    0    0  0.58925855558E+03 -0.63254169978E+03  0.26447852473E+02  0.87007355028E+03  0.94835893582E+02 0.  0.
         11    1    3    3    0    0  0.35410613323E+03 -0.37715258758E+03 -0.30682696027E+02  0.51824381882E+03  0.00000000000E+00 0. -1.
        -11    1    3    3    0    0  0.23515242235E+03 -0.25538911220E+03  0.57130548500E+02  0.35182973146E+03  0.00000000000E+00 0.  1.
         22    1    1    2    0    0 -0.58925855558E+03  0.63254169978E+03  0.21767831832E+03  0.89146985230E+03  0.00000000000E+00 0. -1.
<mgrwt>
<rscale>  0 0.17445451E+04</rscale>
<asrwt>0</asrwt>
<pdfrwt beam="1">  1        2 0.15428228E+00 0.17445451E+04</pdfrwt>
<pdfrwt beam="2">  1       -2 0.11672440E+00 0.17445451E+04</pdfrwt>
<totfact> 0.13523911E+01</totfact>
</mgrwt>
</event>
<event>
 6    1  0.2436515E-005  0.2351576E+04  0.7818608E-02  0.8457858E-01
         -2   -1    0    0    0  501 -0.00000000000E+00  0.00000000000E+00  0.42075743003E+03  0.42075743003E+03  0.00000000000E+00 0. -1.
          2   -1    0    0  501    0  0.00000000000E+00 -0.00000000000E+00 -0.32856886482E+04  0.32856886482E+04  0.00000000000E+00 0.  1.
         23    2    1    2    0    0 -0.87187710434E+03  0.88551278419E+02 -0.20316033506E+03  0.90411932209E+03  0.90258588844E+02 0.  0.
         13    1    3    3    0    0 -0.37441534085E+03  0.36402211919E+02 -0.41534589085E+02  0.37846676286E+03  0.00000000000E+00 0.  1.
        -13    1    3    3    0    0 -0.49746176348E+03  0.52149066501E+02 -0.16162574597E+03  0.52565255923E+03  0.00000000000E+00 0. -1.
         22    1    1    2    0    0  0.87187710434E+03 -0.88551278419E+02 -0.26617708831E+04  0.28023267561E+04  0.00000000000E+00 0.  1.
<mgrwt>
<rscale>  0 0.23515764E+04</rscale>
<asrwt>0</asrwt>
<pdfrwt beam="1">  1        2 0.50549055E+00 0.23515764E+04</pdfrwt>
<pdfrwt beam="2">  1       -2 0.64731914E-01 0.23515764E+04</pdfrwt>
<totfact> 0.22674479E+00</totfact>
</mgrwt>
</event>
<event>
 6    1  0.2436515E-005  0.1362705E+04  0.7818608E-02  0.8981266E-01
         -2   -1    0    0    0  501 -0.00000000000E+00  0.00000000000E+00  0.27798419331E+03  0.27798419331E+03  0.00000000000E+00 0. -1.
          2   -1    0    0  501    0  0.00000000000E+00 -0.00000000000E+00 -0.16700280555E+04  0.16700280555E+04  0.00000000000E+00 0.  1.
         23    2    1    2    0    0 -0.62958598317E+03  0.14463967611E+03 -0.40262403768E+03  0.76638170789E+03  0.89082323484E+02 0.  0.
         11    1    3    3    0    0 -0.26493851102E+03  0.24220369921E+02 -0.13521502649E+03  0.29843281376E+03  0.00000000000E+00 0. -1.
        -11    1    3    3    0    0 -0.36464747215E+03  0.12041930619E+03 -0.26740901119E+03  0.46794889413E+03  0.00000000000E+00 0.  1.
         22    1    1    2    0    0  0.62958598317E+03 -0.14463967611E+03 -0.98941982455E+03  0.11816305410E+04  0.00000000000E+00 0.  1.
<mgrwt>
<rscale>  0 0.13627053E+04</rscale>
<asrwt>0</asrwt>
<pdfrwt beam="1">  1        2 0.25692739E+00 0.13627053E+04</pdfrwt>
<pdfrwt beam="2">  1       -2 0.42766799E-01 0.13627053E+04</pdfrwt>
<totfact> 0.51542883E+01</totfact>
</mgrwt>
</event>
<event>
 6    1  0.2436515E-005  0.2491663E+04  0.7818608E-02  0.8405962E-01
         -2   -1    0    0    0  501 -0.00000000000E+00  0.00000000000E+00  0.77563823680E+03  0.77563823680E+03  0.00000000000E+00 0. -1.
          2   -1    0    0  501    0  0.00000000000E+00 -0.00000000000E+00 -0.20010568858E+04  0.20010568858E+04  0.00000000000E+00 0.  1.
         23    2    1    2    0    0 -0.11629047969E+04  0.42409910221E+03 -0.47386352229E+03  0.13285781647E+04  0.91464128150E+02 0.  0.
         11    1    3    3    0    0 -0.88139325221E+02  0.84209509370E+01 -0.41538862208E+02  0.97800460831E+02  0.00000000000E+00 0. -1.
        -11    1    3    3    0    0 -0.10747654717E+04  0.41567815127E+03 -0.43232466008E+03  0.12307777039E+04  0.00000000000E+00 0.  1.
         22    1    1    2    0    0  0.11629047969E+04 -0.42409910221E+03 -0.75155512666E+03  0.14481169579E+04  0.00000000000E+00 0. -1.
<mgrwt>
<rscale>  0 0.24916631E+04</rscale>
<asrwt>0</asrwt>
<pdfrwt beam="1">  1        2 0.30785490E+00 0.24916631E+04</pdfrwt>
<pdfrwt beam="2">  1       -2 0.11932896E+00 0.24916631E+04</pdfrwt>
<totfact> 0.32064374E+00</totfact>
</mgrwt>
</event>
<event>
 6    1  0.2436515E-005  0.4567424E+04  0.7818608E-02  0.7898938E-01
         -2   -1    0    0    0  501 -0.00000000000E+00  0.00000000000E+00  0.37853761284E+04  0.37853761284E+04  0.00000000000E+00 0.  1.
          2   -1    0    0  501    0  0.00000000000E+00 -0.00000000000E+00 -0.13777603135E+04  0.13777603135E+04  0.00000000000E+00 0. -1.
         23    2    1    2    0    0 -0.12186811524E+04 -0.11836516108E+04 -0.51923397805E+03  0.17789578714E+04  0.94192872984E+02 0.  0.
         13    1    3    3    0    0 -0.54291848153E+03 -0.51904352171E+03 -0.18113272709E+03  0.77264203862E+03  0.00000000000E+00 0. -1.
        -13    1    3    3    0    0 -0.67576267088E+03 -0.66460808908E+03 -0.33810125097E+03  0.10063158328E+04  0.00000000000E+00 0.  1.
         22    1    1    2    0    0  0.12186811524E+04  0.11836516108E+04  0.29268497929E+04  0.33841785705E+04  0.00000000000E+00 0.  1.
<mgrwt>
<rscale>  0 0.45674242E+04</rscale>
<asrwt>0</asrwt>
<pdfrwt beam="1">  1        2 0.21196313E+00 0.45674242E+04</pdfrwt>
<pdfrwt beam="2">  1       -2 0.58236555E+00 0.45674242E+04</pdfrwt>
<totfact> 0.67797727E-03</totfact>
</mgrwt>
</event>
<event>
 6    1  0.2436515E-005  0.1304412E+04  0.7818608E-02  0.9026074E-01
          2   -1    0    0  501    0  0.00000000000E+00  0.00000000000E+00  0.36772273824E+03  0.36772273824E+03  0.00000000000E+00 0.  1.
         -2   -1    0    0    0  501 -0.00000000000E+00 -0.00000000000E+00 -0.11567759985E+04  0.11567759985E+04  0.00000000000E+00 0. -1.
         23    2    1    2    0    0 -0.36590349369E+03  0.85010061311E+02  0.22005579560E+03  0.44773824162E+03  0.10456052129E+03 0.  0.
         13    1    3    3    0    0 -0.20045251398E+03  0.76427112377E+02  0.17277140515E+03  0.27544921911E+03  0.00000000000E+00 0. -1.
        -13    1    3    3    0    0 -0.16545097971E+03  0.85829489337E+01  0.47284390450E+02  0.17228902251E+03  0.00000000000E+00 0.  1.
         22    1    1    2    0    0  0.36590349369E+03 -0.85010061311E+02 -0.10091090559E+04  0.10767604951E+04  0.00000000000E+00 0. -1.
<mgrwt>
<rscale>  0 0.13044123E+04</rscale>
<asrwt>0</asrwt>
<pdfrwt beam="1">  1        2 0.56572729E-01 0.13044123E+04</pdfrwt>
<pdfrwt beam="2">  1       -2 0.17796554E+00 0.13044123E+04</pdfrwt>
<totfact> 0.16027510E+01</totfact>
</mgrwt>
</event>
<event>
 6    1  0.2436515E-005  0.5137378E+04  0.7818608E-02  0.7807658E-01
          2   -1    0    0  501    0  0.00000000000E+00  0.00000000000E+00  0.30516691540E+04  0.30516691540E+04  0.00000000000E+00 0.  1.
         -2   -1    0    0    0  501 -0.00000000000E+00 -0.00000000000E+00 -0.21621485161E+04  0.21621485161E+04  0.00000000000E+00 0. -1.
         23    2    1    2    0    0  0.19455100388E+04 -0.83206004115E+03 -0.10316811062E+04  0.23557852413E+04  0.89582225022E+02 0.  0.
         11    1    3    3    0    0  0.84412447774E+02 -0.41014699491E+02 -0.26575158975E+02  0.97539253576E+02  0.00000000000E+00 0. -1.
        -11    1    3    3    0    0  0.18610975910E+04 -0.79104534166E+03 -0.10051059472E+04  0.22582459877E+04  0.00000000000E+00 0.  1.
         22    1    1    2    0    0 -0.19455100388E+04  0.83206004115E+03  0.19212017440E+04  0.28580324289E+04  0.00000000000E+00 0. -1.
<mgrwt>
<rscale>  0 0.51373775E+04</rscale>
<asrwt>0</asrwt>
<pdfrwt beam="1">  1        2 0.46948756E+00 0.51373775E+04</pdfrwt>
<pdfrwt beam="2">  1       -2 0.33263823E+00 0.51373775E+04</pdfrwt>
<totfact> 0.23239120E-02</totfact>
</mgrwt>
</event>
<event>
 6    1  0.2436515E-005  0.2131074E+04  0.7818608E-02  0.8547677E-01
          2   -1    0    0  501    0  0.00000000000E+00  0.00000000000E+00  0.35441860088E+04  0.35441860088E+04  0.00000000000E+00 0.  1.
         -2   -1    0    0    0  501 -0.00000000000E+00 -0.00000000000E+00 -0.32034687887E+03  0.32034687887E+03  0.00000000000E+00 0. -1.
         23    2    1    2    0    0 -0.61932655947E+03 -0.31224792504E+02  0.48183171886E+02  0.62889830714E+03  0.93011223698E+02 0.  0.
         13    1    3    3    0    0 -0.58752358348E+03 -0.85866868951E+01  0.39537321374E+02  0.58891501264E+03  0.00000000000E+00 0.  1.
        -13    1    3    3    0    0 -0.31802975995E+02 -0.22638105609E+02  0.86458505121E+01  0.39983294496E+02  0.00000000000E+00 0. -1.
         22    1    1    2    0    0  0.61932655947E+03  0.31224792504E+02  0.31756559581E+04  0.32356345806E+04  0.00000000000E+00 0.  1.
<mgrwt>
<rscale>  0 0.21310738E+04</rscale>
<asrwt>0</asrwt>
<pdfrwt beam="1">  1        2 0.54525936E+00 0.21310738E+04</pdfrwt>
<pdfrwt beam="2">  1       -2 0.49284138E-01 0.21310738E+04</pdfrwt>
<totfact> 0.27231920E+00</totfact>
</mgrwt>
</event>
<event>
 6    1  0.2436515E-005  0.6796197E+03  0.7818608E-02  0.9752734E-01
          2   -1    0    0  501    0  0.00000000000E+00  0.00000000000E+00  0.17828573725E+04  0.17828573725E+04  0.00000000000E+00 0.  1.
         -2   -1    0    0    0  501 -0.00000000000E+00 -0.00000000000E+00 -0.64767232029E+02  0.64767232029E+02  0.00000000000E+00 0. -1.
         23    2    1    2    0    0  0.10242148472E+03 -0.29364748359E+03  0.54727579314E+03  0.63621004251E+03  0.92376508274E+02 0.  0.
         13    1    3    3    0    0  0.66060928263E+02 -0.11678955786E+03  0.15931199914E+03  0.20828864621E+03  0.00000000000E+00 0.  1.
        -13    1    3    3    0    0  0.36360556460E+02 -0.17685792573E+03  0.38796379400E+03  0.42792139630E+03  0.00000000000E+00 0. -1.
         22    1    1    2    0    0 -0.10242148472E+03  0.29364748359E+03  0.11708143474E+04  0.12114145621E+04  0.00000000000E+00 0.  1.
<mgrwt>
<rscale>  0 0.67961971E+03</rscale>
<asrwt>0</asrwt>
<pdfrwt beam="1">  1        2 0.27428571E+00 0.67961971E+03</pdfrwt>
<pdfrwt beam="2">  1       -2 0.99641909E-02 0.67961971E+03</pdfrwt>
<totfact> 0.62273658E+02</totfact>
</mgrwt>
</event>
<event>
 6    1  0.2436515E-005  0.1718278E+04  0.7818608E-02  0.8751008E-01
         -2   -1    0    0    0  501 -0.00000000000E+00  0.00000000000E+00  0.11287640897E+04  0.11287640897E+04  0.00000000000E+00 0. -1.
          2   -1    0    0  501    0  0.00000000000E+00 -0.00000000000E+00 -0.65391864013E+03  0.65391864013E+03  0.00000000000E+00 0.  1.
         23    2    1    2    0    0  0.38001077713E+03  0.31385506641E+03  0.96511154163E+03  0.10875035914E+04  0.91162382871E+02 0.  0.
         11    1    3    3    0    0  0.23904840379E+03  0.18955862446E+03  0.49824572838E+03  0.58423061997E+03  0.00000000000E+00 0.  1.
        -11    1    3    3    0    0  0.14096237334E+03  0.12429644194E+03  0.46686581325E+03  0.50327297142E+03  0.00000000000E+00 0. -1.
         22    1    1    2    0    0 -0.38001077713E+03 -0.31385506641E+03 -0.49026609208E+03  0.69517913842E+03  0.00000000000E+00 0.  1.
<mgrwt>
<rscale>  0 0.17182781E+04</rscale>
<asrwt>0</asrwt>
<pdfrwt beam="1">  1        2 0.10060287E+00 0.17182781E+04</pdfrwt>
<pdfrwt beam="2">  1       -2 0.17365601E+00 0.17182781E+04</pdfrwt>
<totfact> 0.85084810E+00</totfact>
</mgrwt>
</event>
<event>
 6    1  0.2436515E-005  0.3036192E+04  0.7818608E-02  0.8233471E-01
          2   -1    0    0  501    0  0.00000000000E+00  0.00000000000E+00  0.40518918996E+04  0.40518918996E+04  0.00000000000E+00 0.  1.
         -2   -1    0    0    0  501 -0.00000000000E+00 -0.00000000000E+00 -0.56877504351E+03  0.56877504351E+03  0.00000000000E+00 0. -1.
         23    2    1    2    0    0  0.33919140874E+03  0.74085378334E+03  0.36899712014E+04  0.37800101403E+04  0.93134597543E+02 0.  0.
         11    1    3    3    0    0  0.25066896820E+03  0.44184034654E+03  0.22381862787E+04  0.22951112482E+04  0.00000000000E+00 0.  1.
        -11    1    3    3    0    0  0.88522440540E+02  0.29901343681E+03  0.14517849227E+04  0.14848988921E+04  0.00000000000E+00 0. -1.
         22    1    1    2    0    0 -0.33919140874E+03 -0.74085378334E+03 -0.20685434528E+03  0.84065680287E+03  0.00000000000E+00 0. -1.
<mgrwt>
<rscale>  0 0.30361917E+04</rscale>
<asrwt>0</asrwt>
<pdfrwt beam="1">  1        2 0.62336797E+00 0.30361917E+04</pdfrwt>
<pdfrwt beam="2">  1       -2 0.87503856E-01 0.30361917E+04</pdfrwt>
<totfact> 0.29835245E-01</totfact>
</mgrwt>
</event>
<event>
 6    1  0.2436515E-005  0.1648497E+04  0.7818608E-02  0.8791296E-01
         -2   -1    0    0    0  501 -0.00000000000E+00  0.00000000000E+00  0.63666311550E+03  0.63666311550E+03  0.00000000000E+00 0. -1.
          2   -1    0    0  501    0  0.00000000000E+00 -0.00000000000E+00 -0.10671031699E+04  0.10671031699E+04  0.00000000000E+00 0.  1.
         23    2    1    2    0    0 -0.31322185726E+03  0.30332677935E+03  0.50399804199E+03  0.67260692676E+03  0.90944954009E+02 0.  0.
         11    1    3    3    0    0 -0.14712504896E+03  0.20145204396E+03  0.25939172268E+03  0.35987882939E+03  0.00000000000E+00 0. -1.
        -11    1    3    3    0    0 -0.16609680830E+03  0.10187473538E+03  0.24460631931E+03  0.31272809737E+03  0.00000000000E+00 0.  1.
         22    1    1    2    0    0  0.31322185726E+03 -0.30332677935E+03 -0.93443809634E+03  0.10311593586E+04  0.00000000000E+00 0.  1.
<mgrwt>
<rscale>  0 0.16484966E+04</rscale>
<asrwt>0</asrwt>
<pdfrwt beam="1">  1        2 0.16416972E+00 0.16484966E+04</pdfrwt>
<pdfrwt beam="2">  1       -2 0.97948172E-01 0.16484966E+04</pdfrwt>
<totfact> 0.18929809E+01</totfact>
</mgrwt>
</event>
<event>
 6    1  0.2436515E-005  0.8957372E+03  0.7818608E-02  0.9430926E-01
          2   -1    0    0  501    0  0.00000000000E+00  0.00000000000E+00  0.73249921391E+03  0.73249921391E+03  0.00000000000E+00 0.  1.
         -2   -1    0    0    0  501 -0.00000000000E+00 -0.00000000000E+00 -0.27383824504E+03  0.27383824504E+03  0.00000000000E+00 0. -1.
         23    2    1    2    0    0  0.30963958788E+03 -0.29229541785E+03  0.96161490187E+02  0.44712447830E+03  0.96746995913E+02 0.  0.
         13    1    3    3    0    0  0.22824492641E+03 -0.20981143295E+03  0.24766439452E+02  0.31101440538E+03  0.00000000000E+00 0.  1.
        -13    1    3    3    0    0  0.81394661467E+02 -0.82483984903E+02  0.71395050735E+02  0.13611007292E+03  0.00000000000E+00 0. -1.
         22    1    1    2    0    0 -0.30963958788E+03  0.29229541785E+03  0.36249947869E+03  0.55921298065E+03  0.00000000000E+00 0. -1.
<mgrwt>
<rscale>  0 0.89573724E+03</rscale>
<asrwt>0</asrwt>
<pdfrwt beam="1">  1        2 0.11269219E+00 0.89573724E+03</pdfrwt>
<pdfrwt beam="2">  1       -2 0.42128961E-01 0.89573724E+03</pdfrwt>
<totfact> 0.20702363E+02</totfact>
</mgrwt>
</event>
<event>
 6    1  0.2436515E-005  0.3855181E+04  0.7818608E-02  0.8034416E-01
          2   -1    0    0  501    0  0.00000000000E+00  0.00000000000E+00  0.19562331808E+04  0.19562331808E+04  0.00000000000E+00 0.  1.
         -2   -1    0    0    0  501 -0.00000000000E+00 -0.00000000000E+00 -0.18993669236E+04  0.18993669236E+04  0.00000000000E+00 0. -1.
         23    2    1    2    0    0  0.97493717545E+03 -0.12163674788E+04  0.11605099286E+04  0.19456048968E+04  0.92427164090E+02 0.  0.
         11    1    3    3    0    0  0.91435315590E+03 -0.11441956078E+04  0.11160652502E+04  0.18414198124E+04  0.00000000000E+00 0. -1.
        -11    1    3    3    0    0  0.60584019546E+02 -0.72171871007E+02  0.44444678319E+02  0.10418508444E+03  0.00000000000E+00 0.  1.
         22    1    1    2    0    0 -0.97493717545E+03  0.12163674788E+04 -0.11036436713E+04  0.19099952076E+04  0.00000000000E+00 0. -1.
<mgrwt>
<rscale>  0 0.38551807E+04</rscale>
<asrwt>0</asrwt>
<pdfrwt beam="1">  1        2 0.30095895E+00 0.38551807E+04</pdfrwt>
<pdfrwt beam="2">  1       -2 0.29221030E+00 0.38551807E+04</pdfrwt>
<totfact> 0.20006674E-01</totfact>
</mgrwt>
</event>
<event>
 6    1  0.2436515E-005  0.1131751E+04  0.7818608E-02  0.9174786E-01
          2   -1    0    0  501    0  0.00000000000E+00  0.00000000000E+00  0.40852979971E+03  0.40852979971E+03  0.00000000000E+00 0.  1.
         -2   -1    0    0    0  501 -0.00000000000E+00 -0.00000000000E+00 -0.78382314010E+03  0.78382314010E+03  0.00000000000E+00 0. -1.
         23    2    1    2    0    0  0.34084385549E+03 -0.20223849340E+03  0.23162570638E+03  0.46749042086E+03  0.88441413992E+02 0.  0.
         13    1    3    3    0    0  0.10663714248E+03 -0.24170353762E+02  0.86565692678E+02  0.13946076619E+03  0.00000000000E+00 0. -1.
        -13    1    3    3    0    0  0.23420671301E+03 -0.17806813964E+03  0.14506001370E+03  0.32802965468E+03  0.00000000000E+00 0.  1.
         22    1    1    2    0    0 -0.34084385549E+03  0.20223849340E+03 -0.60691904677E+03  0.72486251894E+03  0.00000000000E+00 0. -1.
<mgrwt>
<rscale>  0 0.11317511E+04</rscale>
<asrwt>0</asrwt>
<pdfrwt beam="1">  1        2 0.62850739E-01 0.11317511E+04</pdfrwt>
<pdfrwt beam="2">  1       -2 0.12058817E+00 0.11317511E+04</pdfrwt>
<totfact> 0.40346313E+01</totfact>
</mgrwt>
</event>
<event>
 6    1  0.2436515E-005  0.2259767E+04  0.7818608E-02  0.8493956E-01
         -2   -1    0    0    0  501 -0.00000000000E+00  0.00000000000E+00  0.22774922571E+04  0.22774922571E+04  0.00000000000E+00 0. -1.
          2   -1    0    0  501    0  0.00000000000E+00 -0.00000000000E+00 -0.56054481272E+03  0.56054481272E+03  0.00000000000E+00 0.  1.
         23    2    1    2    0    0 -0.36469931225E+02 -0.84227832994E+03 -0.81465104642E+02  0.85182194112E+03  0.90560560615E+02 0.  0.
         13    1    3    3    0    0 -0.22046944051E+02 -0.56087649858E+03 -0.11197722485E+02  0.56142132431E+03  0.00000000000E+00 0.  1.
        -13    1    3    3    0    0 -0.14422987174E+02 -0.28140183136E+03 -0.70267382156E+02  0.29040061682E+03  0.00000000000E+00 0. -1.
         22    1    1    2    0    0  0.36469931225E+02  0.84227832994E+03  0.17984125490E+04  0.19862151287E+04  0.00000000000E+00 0. -1.
<mgrwt>
<rscale>  0 0.22597668E+04</rscale>
<asrwt>0</asrwt>
<pdfrwt beam="1">  1        2 0.86237665E-01 0.22597668E+04</pdfrwt>
<pdfrwt beam="2">  1       -2 0.35038342E+00 0.22597668E+04</pdfrwt>
<totfact> 0.75833670E-01</totfact>
</mgrwt>
</event>
<event>
 6    1  0.2436515E-005  0.1570054E+04  0.7818608E-02  0.8839159E-01
          2   -1    0    0  501    0  0.00000000000E+00  0.00000000000E+00  0.33372416374E+04  0.33372416374E+04  0.00000000000E+00 0.  1.
         -2   -1    0    0    0  501 -0.00000000000E+00 -0.00000000000E+00 -0.18466372392E+03  0.18466372392E+03  0.00000000000E+00 0. -1.
         23    2    1    2    0    0 -0.74512472683E+03 -0.22197523189E+03  0.13867568064E+04  0.15924992236E+04  0.92062342518E+02 0.  0.
         13    1    3    3    0    0 -0.33578081361E+03 -0.55850047220E+02  0.63832974155E+03  0.72341747388E+03  0.00000000000E+00 0.  1.
        -13    1    3    3    0    0 -0.40934391322E+03 -0.16612518467E+03  0.74842706481E+03  0.86908174967E+03  0.00000000000E+00 0. -1.
         22    1    1    2    0    0  0.74512472683E+03  0.22197523189E+03  0.17658211071E+04  0.19294061377E+04  0.00000000000E+00 0. -1.
<mgrwt>
<rscale>  0 0.15700541E+04</rscale>
<asrwt>0</asrwt>
<pdfrwt beam="1">  1        2 0.51342174E+00 0.15700541E+04</pdfrwt>
<pdfrwt beam="2">  1       -2 0.28409806E-01 0.15700541E+04</pdfrwt>
<totfact> 0.11587761E+01</totfact>
</mgrwt>
</event>
<event>
 6    1  0.2436515E-005  0.4784001E+04  0.7818608E-02  0.7862719E-01
          2   -1    0    0  501    0  0.00000000000E+00  0.00000000000E+00  0.26640240974E+04  0.26640240974E+04  0.00000000000E+00 0.  1.
         -2   -1    0    0    0  501 -0.00000000000E+00 -0.00000000000E+00 -0.21477535631E+04  0.21477535631E+04  0.00000000000E+00 0. -1.
         23    2    1    2    0    0  0.98333771124E+03  0.21213247788E+04 -0.24521980153E+03  0.23527454519E+04  0.91140217197E+02 0.  0.
         13    1    3    3    0    0  0.41475604573E+03  0.85132147846E+03 -0.14040146916E+03  0.95733140015E+03  0.00000000000E+00 0. -1.
        -13    1    3    3    0    0  0.56858166551E+03  0.12700033003E+04 -0.10481833237E+03  0.13954140518E+04  0.00000000000E+00 0.  1.
         22    1    1    2    0    0 -0.98333771124E+03 -0.21213247788E+04  0.76149033576E+03  0.24590322086E+04  0.00000000000E+00 0.  1.
<mgrwt>
<rscale>  0 0.47840014E+04</rscale>
<asrwt>0</asrwt>
<pdfrwt beam="1">  1        2 0.40984986E+00 0.47840014E+04</pdfrwt>
<pdfrwt beam="2">  1       -2 0.33042363E+00 0.47840014E+04</pdfrwt>
<totfact> 0.42624997E-02</totfact>
</mgrwt>
</event>
<event>
 6    1  0.2436515E-005  0.3441501E+04  0.7818608E-02  0.8127795E-01
          2   -1    0    0  501    0  0.00000000000E+00  0.00000000000E+00  0.11396965251E+04  0.11396965251E+04  0.00000000000E+00 0.  1.
         -2   -1    0    0    0  501 -0.00000000000E+00 -0.00000000000E+00 -0.25980440529E+04  0.25980440529E+04  0.00000000000E+00 0. -1.
         23    2    1    2    0    0  0.52896371775E+03 -0.25452401038E+03 -0.24850510150E+04  0.25550719273E+04  0.91262916658E+02 0.  0.
         11    1    3    3    0    0  0.13730925414E+03 -0.10135737674E+03 -0.83600393071E+03  0.85324657706E+03  0.00000000000E+00 0. -1.
        -11    1    3    3    0    0  0.39165446361E+03 -0.15316663364E+03 -0.16490470843E+04  0.17018253502E+04  0.00000000000E+00 0.  1.
         22    1    1    2    0    0 -0.52896371775E+03  0.25452401038E+03  0.10267034873E+04  0.11826686507E+04  0.00000000000E+00 0.  1.
<mgrwt>
<rscale>  0 0.34415007E+04</rscale>
<asrwt>0</asrwt>
<pdfrwt beam="1">  1        2 0.17533793E+00 0.34415007E+04</pdfrwt>
<pdfrwt beam="2">  1       -2 0.39969908E+00 0.34415007E+04</pdfrwt>
<totfact> 0.12668877E-01</totfact>
</mgrwt>
</event>
<event>
 6    1  0.2436515E-005  0.2949952E+03  0.7818608E-02  0.1087770E+00
         -1   -1    0    0    0  501 -0.00000000000E+00  0.00000000000E+00  0.20634435566E+02  0.20634435566E+02  0.00000000000E+00 0. -1.
          1   -1    0    0  501    0  0.00000000000E+00 -0.00000000000E+00 -0.10543317634E+04  0.10543317634E+04  0.00000000000E+00 0.  1.
         23    2    1    2    0    0  0.49865899285E+02 -0.10974286084E+03 -0.36085139495E+03  0.39140804283E+03  0.91958813280E+02 0.  0.
         11    1    3    3    0    0  0.45490928027E+02 -0.83225701968E+01 -0.15714563247E+03  0.16380915576E+03  0.00000000000E+00 0.  1.
        -11    1    3    3    0    0  0.43749712587E+01 -0.10142029065E+03 -0.20370576248E+03  0.22759888707E+03  0.00000000000E+00 0. -1.
         22    1    1    2    0    0 -0.49865899285E+02  0.10974286084E+03 -0.67284593290E+03  0.68355815615E+03  0.00000000000E+00 0.  1.
<mgrwt>
<rscale>  0 0.29499519E+03</rscale>
<asrwt>0</asrwt>
<pdfrwt beam="1">  1        1 0.16220491E+00 0.29499519E+03</pdfrwt>
<pdfrwt beam="2">  1       -1 0.31745280E-02 0.29499519E+03</pdfrwt>
<totfact> 0.50600081E+03</totfact>
</mgrwt>
</event>
<event>
 6    1  0.2436515E-005  0.1508705E+04  0.7818608E-02  0.8878685E-01
          2   -1    0    0  501    0  0.00000000000E+00  0.00000000000E+00  0.15858379025E+04  0.15858379025E+04  0.00000000000E+00 0.  1.
         -2   -1    0    0    0  501 -0.00000000000E+00 -0.00000000000E+00 -0.35883075722E+03  0.35883075722E+03  0.00000000000E+00 0. -1.
         23    2    1    2    0    0 -0.27548135403E+03 -0.11383288819E+03  0.15050778412E+04  0.15370276231E+04  0.91360294337E+02 0.  0.
         11    1    3    3    0    0 -0.71030570957E+02 -0.60657008300E+02  0.32355548200E+03  0.33676811696E+03  0.00000000000E+00 0. -1.
        -11    1    3    3    0    0 -0.20445078307E+03 -0.53175879894E+02  0.11815223592E+04  0.12002595062E+04  0.00000000000E+00 0.  1.
         22    1    1    2    0    0  0.27548135403E+03  0.11383288819E+03 -0.27807069587E+03  0.40764103664E+03  0.00000000000E+00 0. -1.
<mgrwt>
<rscale>  0 0.15087046E+04</rscale>
<asrwt>0</asrwt>
<pdfrwt beam="1">  1        2 0.24397506E+00 0.15087046E+04</pdfrwt>
<pdfrwt beam="2">  1       -2 0.55204733E-01 0.15087046E+04</pdfrwt>
<totfact> 0.33826088E+01</totfact>
</mgrwt>
</event>
<event>
 6    1  0.2436515E-005  0.1275712E+04  0.7818608E-02  0.9049051E-01
          2   -1    0    0  501    0  0.00000000000E+00  0.00000000000E+00  0.29725893207E+04  0.29725893207E+04  0.00000000000E+00 0.  1.
         -2   -1    0    0    0  501 -0.00000000000E+00 -0.00000000000E+00 -0.13687069517E+03  0.13687069517E+03  0.00000000000E+00 0. -1.
         23    2    1    2    0    0 -0.15967988973E+03 -0.60351078097E+03  0.11439476795E+04  0.13061819276E+04  0.88158973243E+02 0.  0.
         13    1    3    3    0    0 -0.14967568412E+03 -0.40655930281E+03  0.79207727971E+03  0.90281764169E+03  0.00000000000E+00 0.  1.
        -13    1    3    3    0    0 -0.10004205616E+02 -0.19695147816E+03  0.35187039982E+03  0.40336428591E+03  0.00000000000E+00 0. -1.
         22    1    1    2    0    0  0.15967988973E+03  0.60351078097E+03  0.16917709460E+04  0.18032780883E+04  0.00000000000E+00 0.  1.
<mgrwt>
<rscale>  0 0.12757121E+04</rscale>
<asrwt>0</asrwt>
<pdfrwt beam="1">  1        2 0.45732139E+00 0.12757121E+04</pdfrwt>
<pdfrwt beam="2">  1       -2 0.21057032E-01 0.12757121E+04</pdfrwt>
<totfact> 0.35113432E+01</totfact>
</mgrwt>
</event>
<event>
 6    1  0.2436515E-005  0.7001862E+03  0.7818608E-02  0.9716914E-01
          2   -1    0    0  501    0  0.00000000000E+00  0.00000000000E+00  0.14426127029E+04  0.14426127029E+04  0.00000000000E+00 0.  1.
         -2   -1    0    0    0  501 -0.00000000000E+00 -0.00000000000E+00 -0.84960551835E+02  0.84960551835E+02  0.00000000000E+00 0. -1.
         23    2    1    2    0    0 -0.11802287860E+03 -0.20166955764E+03  0.12417416289E+04  0.12667375603E+04  0.90009795480E+02 0.  0.
         11    1    3    3    0    0 -0.93535731160E+02 -0.16929133795E+03  0.11535400033E+04  0.11696422656E+04  0.00000000000E+00 0. -1.
        -11    1    3    3    0    0 -0.24487147436E+02 -0.32378219691E+02  0.88201625609E+02  0.97095294736E+02  0.00000000000E+00 0.  1.
         22    1    1    2    0    0  0.11802287860E+03  0.20166955764E+03  0.11591052213E+03  0.26083569444E+03  0.00000000000E+00 0. -1.
<mgrwt>
<rscale>  0 0.70018618E+03</rscale>
<asrwt>0</asrwt>
<pdfrwt beam="1">  1        2 0.22194040E+00 0.70018618E+03</pdfrwt>
<pdfrwt beam="2">  1       -2 0.13070855E-01 0.70018618E+03</pdfrwt>
<totfact> 0.61245346E+02</totfact>
</mgrwt>
</event>
<event>
 6    1  0.2436515E-005  0.6908509E+03  0.7818608E-02  0.9733008E-01
         -2   -1    0    0    0  501 -0.00000000000E+00  0.00000000000E+00  0.43171183609E+02  0.43171183609E+02  0.00000000000E+00 0. -1.
          2   -1    0    0  501    0  0.00000000000E+00 -0.00000000000E+00 -0.27638514826E+04  0.27638514826E+04  0.00000000000E+00 0.  1.
         23    2    1    2    0    0 -0.95177285512E+02  0.29594183472E+03 -0.19378646566E+04  0.19647396882E+04  0.90787276264E+02 0.  0.
         11    1    3    3    0    0 -0.15066256830E+02  0.73474861608E+02 -0.73779622017E+03  0.74159882004E+03  0.00000000000E+00 0. -1.
        -11    1    3    3    0    0 -0.80111028682E+02  0.22246697311E+03 -0.12000684365E+04  0.12231408681E+04  0.00000000000E+00 0.  1.
         22    1    1    2    0    0  0.95177285512E+02 -0.29594183472E+03 -0.78281564233E+03  0.84228297804E+03  0.00000000000E+00 0.  1.
<mgrwt>
<rscale>  0 0.69085090E+03</rscale>
<asrwt>0</asrwt>
<pdfrwt beam="1">  1        2 0.42520801E+00 0.69085090E+03</pdfrwt>
<pdfrwt beam="2">  1       -2 0.66417192E-02 0.69085090E+03</pdfrwt>
<totfact> 0.33870651E+02</totfact>
</mgrwt>
</event>
<event>
 6    1  0.2436515E-005  0.1652767E+04  0.7818608E-02  0.8788771E-01
         -2   -1    0    0    0  501 -0.00000000000E+00  0.00000000000E+00  0.34942457735E+03  0.34942457735E+03  0.00000000000E+00 0.  1.
          2   -1    0    0  501    0  0.00000000000E+00 -0.00000000000E+00 -0.19543838314E+04  0.19543838314E+04  0.00000000000E+00 0. -1.
         23    2    1    2    0    0  0.10829385122E+03  0.44944455244E+03 -0.17556086380E+04  0.18175747192E+04  0.87682416529E+02 0.  0.
         13    1    3    3    0    0  0.47687765923E+02  0.63232541086E+02 -0.26830470913E+03  0.27974969922E+03  0.00000000000E+00 0. -1.
        -13    1    3    3    0    0  0.60606085295E+02  0.38621201135E+03 -0.14873039289E+04  0.15378250200E+04  0.00000000000E+00 0.  1.
         22    1    1    2    0    0 -0.10829385122E+03 -0.44944455244E+03  0.15064938398E+03  0.48623368951E+03  0.00000000000E+00 0.  1.
<mgrwt>
<rscale>  0 0.16527671E+04</rscale>
<asrwt>0</asrwt>
<pdfrwt beam="1">  1        2 0.30067444E+00 0.16527671E+04</pdfrwt>
<pdfrwt beam="2">  1       -2 0.53757627E-01 0.16527671E+04</pdfrwt>
<totfact> 0.22055569E+01</totfact>
</mgrwt>
</event>
<event>
 6    1  0.2436515E-005  0.4330214E+04  0.7818608E-02  0.7941055E-01
         -2   -1    0    0    0  501 -0.00000000000E+00  0.00000000000E+00  0.12701329164E+04  0.12701329164E+04  0.00000000000E+00 0. -1.
          2   -1    0    0  501    0  0.00000000000E+00 -0.00000000000E+00 -0.36907064296E+04  0.36907064296E+04  0.00000000000E+00 0.  1.
         23    2    1    2    0    0 -0.94932857505E+03 -0.12347267936E+03 -0.34343505029E+04  0.35664885900E+04  0.92775210381E+02 0.  0.
         11    1    3    3    0    0 -0.36644388457E+03 -0.33431058654E+02 -0.14817688353E+04  0.15267736039E+04  0.00000000000E+00 0. -1.
        -11    1    3    3    0    0 -0.58288469048E+03 -0.90041620708E+02 -0.19525816676E+04  0.20397149861E+04  0.00000000000E+00 0.  1.
         22    1    1    2    0    0  0.94932857505E+03  0.12347267936E+03  0.10137769897E+04  0.13943507560E+04  0.00000000000E+00 0. -1.
<mgrwt>
<rscale>  0 0.43302137E+04</rscale>
<asrwt>0</asrwt>
<pdfrwt beam="1">  1        2 0.56780098E+00 0.43302137E+04</pdfrwt>
<pdfrwt beam="2">  1       -2 0.19540507E+00 0.43302137E+04</pdfrwt>
<totfact> 0.64802485E-02</totfact>
</mgrwt>
</event>
<event>
 6    1  0.2436515E-005  0.1533368E+04  0.7818608E-02  0.8862562E-01
         -2   -1    0    0    0  501 -0.00000000000E+00  0.00000000000E+00  0.25490461549E+03  0.25490461549E+03  0.00000000000E+00 0. -1.
          2   -1    0    0  501    0  0.00000000000E+00 -0.00000000000E+00 -0.23059770106E+04  0.23059770106E+04  0.00000000000E+00 0.  1.
         23    2    1    2    0    0 -0.34293174786E+03  0.97731774979E+02 -0.21575635741E+04  0.21887337325E+04  0.91220019770E+02 0.  0.
         13    1    3    3    0    0 -0.20418312640E+03  0.31123947645E+02 -0.14490908662E+04  0.14637362426E+04  0.00000000000E+00 0. -1.
        -13    1    3    3    0    0 -0.13874862146E+03  0.66607827334E+02 -0.70847270784E+03  0.72499748990E+03  0.00000000000E+00 0.  1.
         22    1    1    2    0    0  0.34293174786E+03 -0.97731774979E+02  0.10649117895E+03  0.37214789362E+03  0.00000000000E+00 0. -1.
<mgrwt>
<rscale>  0 0.15333678E+04</rscale>
<asrwt>0</asrwt>
<pdfrwt beam="1">  1        2 0.35476568E+00 0.15333678E+04</pdfrwt>
<pdfrwt beam="2">  1       -2 0.39216096E-01 0.15333678E+04</pdfrwt>
<totfact> 0.26691473E+01</totfact>
</mgrwt>
</event>
<event>
 6    1  0.2535156E-005  0.3047038E+04  0.7818608E-02  0.8230425E-01
          2   -1    0    0  501    0  0.00000000000E+00  0.00000000000E+00  0.14349495282E+04  0.14349495282E+04  0.00000000000E+00 0.  1.
         -2   -1    0    0    0  501 -0.00000000000E+00 -0.00000000000E+00 -0.16175554985E+04  0.16175554985E+04  0.00000000000E+00 0. -1.
         23    2    1    2    0    0 -0.13032380256E+04 -0.57533101545E+03  0.44597185125E+03  0.14954099087E+04  0.89021202045E+02 0.  0.
         13    1    3    3    0    0 -0.52138186738E+03 -0.27802892982E+03  0.18706927841E+03  0.61978548899E+03  0.00000000000E+00 0. -1.
        -13    1    3    3    0    0 -0.78185615819E+03 -0.29730208563E+03  0.25890257284E+03  0.87562441974E+03  0.00000000000E+00 0.  1.
         22    1    1    2    0    0  0.13032380256E+04  0.57533101545E+03 -0.62857782158E+03  0.15570951180E+04  0.00000000000E+00 0.  1.
<mgrwt>
<rscale>  0 0.30470382E+04</rscale>
<asrwt>0</asrwt>
<pdfrwt beam="1">  1        2 0.22076147E+00 0.30470382E+04</pdfrwt>
<pdfrwt beam="2">  1       -2 0.24885469E+00 0.30470382E+04</pdfrwt>
<totfact> 0.76972103E-01</totfact>
</mgrwt>
</event>
<event>
 6    1  0.2436515E-005  0.2418826E+04  0.7818608E-02  0.8432489E-01
          2   -1    0    0  501    0  0.00000000000E+00  0.00000000000E+00  0.18057475509E+04  0.18057475509E+04  0.00000000000E+00 0.  1.
         -2   -1    0    0    0  501 -0.00000000000E+00 -0.00000000000E+00 -0.81001321629E+03  0.81001321629E+03  0.00000000000E+00 0. -1.
         23    2    1    2    0    0 -0.14809304755E+03 -0.18858140242E+03  0.17785964724E+04  0.17970009593E+04  0.91173131635E+02 0.  0.
         13    1    3    3    0    0 -0.15227632169E+03 -0.19447683722E+03  0.17557256706E+04  0.17730149320E+04  0.00000000000E+00 0. -1.
        -13    1    3    3    0    0  0.41832741377E+01  0.58954347966E+01  0.22870801796E+02  0.23986027365E+02  0.00000000000E+00 0.  1.
         22    1    1    2    0    0  0.14809304755E+03  0.18858140242E+03 -0.78286213785E+03  0.81875980785E+03  0.00000000000E+00 0. -1.
<mgrwt>
<rscale>  0 0.24188257E+04</rscale>
<asrwt>0</asrwt>
<pdfrwt beam="1">  1        2 0.27780732E+00 0.24188257E+04</pdfrwt>
<pdfrwt beam="2">  1       -2 0.12461742E+00 0.24188257E+04</pdfrwt>
<totfact> 0.37163315E+00</totfact>
</mgrwt>
</event>
<event>
 6    1  0.2436515E-005  0.8046255E+03  0.7818608E-02  0.9553346E-01
          2   -1    0    0  501    0  0.00000000000E+00  0.00000000000E+00  0.17731047092E+03  0.17731047092E+03  0.00000000000E+00 0.  1.
         -2   -1    0    0    0  501 -0.00000000000E+00 -0.00000000000E+00 -0.91283701760E+03  0.91283701760E+03  0.00000000000E+00 0. -1.
         23    2    1    2    0    0 -0.19945581677E+02 -0.39633112817E+03 -0.34619882482E+03  0.53422279543E+03  0.89800776522E+02 0.  0.
         11    1    3    3    0    0  0.20253936545E+02 -0.21802391432E+03 -0.14621822382E+03  0.26329530596E+03  0.00000000000E+00 0.  1.
        -11    1    3    3    0    0 -0.40199518221E+02 -0.17830721385E+03 -0.19998060100E+03  0.27092748947E+03  0.00000000000E+00 0. -1.
         22    1    1    2    0    0  0.19945581677E+02  0.39633112817E+03 -0.38932772185E+03  0.55592469309E+03  0.00000000000E+00 0. -1.
<mgrwt>
<rscale>  0 0.80462553E+03</rscale>
<asrwt>0</asrwt>
<pdfrwt beam="1">  1        2 0.27278534E-01 0.80462553E+03</pdfrwt>
<pdfrwt beam="2">  1       -2 0.14043647E+00 0.80462553E+03</pdfrwt>
<totfact> 0.71185328E+01</totfact>
</mgrwt>
</event>
<event>
 6    1  0.2436515E-005  0.9843696E+03  0.7818608E-02  0.9325856E-01
          2   -1    0    0  501    0  0.00000000000E+00  0.00000000000E+00  0.12238391638E+04  0.12238391638E+04  0.00000000000E+00 0.  1.
         -2   -1    0    0    0  501 -0.00000000000E+00 -0.00000000000E+00 -0.19793931330E+03  0.19793931330E+03  0.00000000000E+00 0. -1.
         23    2    1    2    0    0  0.36715640345E+03  0.32120295216E+03  0.48863511318E+03  0.69608669746E+03  0.88302069531E+02 0.  0.
         13    1    3    3    0    0  0.25570058013E+03  0.17364493412E+03  0.27704381183E+03  0.41507664774E+03  0.00000000000E+00 0.  1.
        -13    1    3    3    0    0  0.11145582332E+03  0.14755801803E+03  0.21159130135E+03  0.28101004972E+03  0.00000000000E+00 0. -1.
         22    1    1    2    0    0 -0.36715640345E+03 -0.32120295216E+03  0.53726473733E+03  0.72569177965E+03  0.00000000000E+00 0.  1.
<mgrwt>
<rscale>  0 0.98436961E+03</rscale>
<asrwt>0</asrwt>
<pdfrwt beam="1">  1        2 0.18828294E+00 0.98436961E+03</pdfrwt>
<pdfrwt beam="2">  1       -2 0.30452203E-01 0.98436961E+03</pdfrwt>
<totfact> 0.18235757E+02</totfact>
</mgrwt>
</event>
<event>
 6    1  0.2436515E-005  0.3493350E+04  0.7818608E-02  0.8115368E-01
         -2   -1    0    0    0  501 -0.00000000000E+00  0.00000000000E+00  0.13407850412E+04  0.13407850412E+04  0.00000000000E+00 0. -1.
          2   -1    0    0  501    0  0.00000000000E+00 -0.00000000000E+00 -0.22754383070E+04  0.22754383070E+04  0.00000000000E+00 0.  1.
         23    2    1    2    0    0  0.12917418652E+03 -0.39318426577E+03  0.12877095512E+04  0.13556534360E+04  0.91216846454E+02 0.  0.
         13    1    3    3    0    0  0.86134480432E+02 -0.33811383184E+03  0.98474078210E+03  0.10447270074E+04  0.00000000000E+00 0.  1.
        -13    1    3    3    0    0  0.43039706087E+02 -0.55070433934E+02  0.30296876910E+03  0.31092642867E+03  0.00000000000E+00 0. -1.
         22    1    1    2    0    0 -0.12917418652E+03  0.39318426577E+03 -0.22223628170E+04  0.22605699122E+04  0.00000000000E+00 0.  1.
<mgrwt>
<rscale>  0 0.34933501E+04</rscale>
<asrwt>0</asrwt>
<pdfrwt beam="1">  1        2 0.35006743E+00 0.34933501E+04</pdfrwt>
<pdfrwt beam="2">  1       -2 0.20627462E+00 0.34933501E+04</pdfrwt>
<totfact> 0.46583411E-01</totfact>
</mgrwt>
</event>
<event>
 6    1  0.2436515E-005  0.8293521E+03  0.7818608E-02  0.9518477E-01
          2   -1    0    0  501    0  0.00000000000E+00  0.00000000000E+00  0.31917946701E+04  0.31917946701E+04  0.00000000000E+00 0.  1.
         -2   -1    0    0    0  501 -0.00000000000E+00 -0.00000000000E+00 -0.53874457518E+02  0.53874457518E+02  0.00000000000E+00 0. -1.
         23    2    1    2    0    0  0.40033509276E+03 -0.25921940174E+02  0.12623547493E+04  0.13276790493E+04  0.90840582309E+02 0.  0.
         13    1    3    3    0    0  0.11868015521E+03  0.10156590380E+02  0.50457888770E+03  0.51844767284E+03  0.00000000000E+00 0.  1.
        -13    1    3    3    0    0  0.28165493755E+03 -0.36078530554E+02  0.75777586163E+03  0.80923137648E+03  0.00000000000E+00 0. -1.
         22    1    1    2    0    0 -0.40033509276E+03  0.25921940174E+02  0.18755654633E+04  0.19179900783E+04  0.00000000000E+00 0.  1.
<mgrwt>
<rscale>  0 0.82935205E+03</rscale>
<asrwt>0</asrwt>
<pdfrwt beam="1">  1        2 0.49104519E+00 0.82935205E+03</pdfrwt>
<pdfrwt beam="2">  1       -2 0.82883806E-02 0.82935205E+03</pdfrwt>
<totfact> 0.12848237E+02</totfact>
</mgrwt>
</event>
<event>
 6    1  0.2436515E-005  0.1700663E+04  0.7818608E-02  0.8760987E-01
         -1   -1    0    0    0  501 -0.00000000000E+00  0.00000000000E+00  0.38301728382E+03  0.38301728382E+03  0.00000000000E+00 0. -1.
          1   -1    0    0  501    0  0.00000000000E+00 -0.00000000000E+00 -0.18878086871E+04  0.18878086871E+04  0.00000000000E+00 0.  1.
         23    2    1    2    0    0 -0.54176529443E+03 -0.51725103178E+03 -0.12851268306E+04  0.14902423504E+04  0.90625758422E+02 0.  0.
         13    1    3    3    0    0 -0.50699976539E+03 -0.45005353689E+03 -0.11768686607E+04  0.13581667028E+04  0.00000000000E+00 0. -1.
        -13    1    3    3    0    0 -0.34765529041E+02 -0.67197494895E+02 -0.10825816989E+03  0.13207564756E+03  0.00000000000E+00 0.  1.
         22    1    1    2    0    0  0.54176529443E+03  0.51725103178E+03 -0.21966457268E+03  0.78058362052E+03  0.00000000000E+00 0. -1.
<mgrwt>
<rscale>  0 0.17006626E+04</rscale>
<asrwt>0</asrwt>
<pdfrwt beam="1">  1        1 0.29043211E+00 0.17006626E+04</pdfrwt>
<pdfrwt beam="2">  1       -1 0.58925735E-01 0.17006626E+04</pdfrwt>
<totfact> 0.98649033E+00</totfact>
</mgrwt>
</event>
<event>
 6    1  0.2436515E-005  0.3163046E+04  0.7818608E-02  0.8198645E-01
          2   -1    0    0  501    0  0.00000000000E+00  0.00000000000E+00  0.17980767860E+04  0.17980767860E+04  0.00000000000E+00 0. -1.
         -2   -1    0    0    0  501 -0.00000000000E+00 -0.00000000000E+00 -0.13910503824E+04  0.13910503824E+04  0.00000000000E+00 0.  1.
         23    2    1    2    0    0 -0.66325746971E+03  0.56809190945E+03 -0.11242459455E+04  0.14263356618E+04  0.88688136741E+02 0.  0.
         11    1    3    3    0    0 -0.13498331341E+03  0.93739462260E+02 -0.26359015119E+03  0.31062412895E+03  0.00000000000E+00 0. -1.
        -11    1    3    3    0    0 -0.52827415630E+03  0.47435244719E+03 -0.86065579430E+03  0.11157115329E+04  0.00000000000E+00 0.  1.
         22    1    1    2    0    0  0.66325746971E+03 -0.56809190945E+03  0.15312723491E+04  0.17627915066E+04  0.00000000000E+00 0. -1.
<mgrwt>
<rscale>  0 0.31630463E+04</rscale>
<asrwt>0</asrwt>
<pdfrwt beam="1">  1        2 0.27662720E+00 0.31630463E+04</pdfrwt>
<pdfrwt beam="2">  1       -2 0.21400775E+00 0.31630463E+04</pdfrwt>
<totfact> 0.78851881E-01</totfact>
</mgrwt>
</event>
<event>
 6    1  0.2436515E-005  0.4450487E+04  0.7818608E-02  0.7919363E-01
          2   -1    0    0  501    0  0.00000000000E+00  0.00000000000E+00  0.40225341856E+04  0.40225341856E+04  0.00000000000E+00 0.  1.
         -2   -1    0    0    0  501 -0.00000000000E+00 -0.00000000000E+00 -0.12309921110E+04  0.12309921110E+04  0.00000000000E+00 0. -1.
         23    2    1    2    0    0  0.10513027434E+04  0.79704531143E+03  0.35103939944E+04  0.37511059928E+04  0.86089991793E+02 0.  0.
         11    1    3    3    0    0  0.81799191533E+03  0.57381726650E+03  0.26488379390E+04  0.28310279857E+04  0.00000000000E+00 0. -1.
        -11    1    3    3    0    0  0.23331082805E+03  0.22322804493E+03  0.86155605535E+03  0.92007800705E+03  0.00000000000E+00 0.  1.
         22    1    1    2    0    0 -0.10513027434E+04 -0.79704531143E+03 -0.71885191981E+03  0.15024203038E+04  0.00000000000E+00 0. -1.
<mgrwt>
<rscale>  0 0.44504866E+04</rscale>
<asrwt>0</asrwt>
<pdfrwt beam="1">  1        2 0.61885141E+00 0.44504866E+04</pdfrwt>
<pdfrwt beam="2">  1       -2 0.18938340E+00 0.44504866E+04</pdfrwt>
<totfact> 0.38877294E-02</totfact>
</mgrwt>
</event>
<event>
 6    1  0.2436515E-005  0.3401017E+04  0.7818608E-02  0.8137657E-01
         -2   -1    0    0    0  501 -0.00000000000E+00  0.00000000000E+00  0.87944775645E+03  0.87944775645E+03  0.00000000000E+00 0. -1.
          2   -1    0    0  501    0  0.00000000000E+00 -0.00000000000E+00 -0.32881191562E+04  0.32881191562E+04  0.00000000000E+00 0.  1.
         23    2    1    2    0    0 -0.84792901966E+02 -0.15687597378E+04 -0.41102093720E+03  0.16261491348E+04  0.85004978942E+02 0.  0.
         11    1    3    3    0    0 -0.46250448715E+02 -0.84185573218E+03 -0.17673175687E+03  0.86144894898E+03  0.00000000000E+00 0.  1.
        -11    1    3    3    0    0 -0.38542453251E+02 -0.72690400564E+03 -0.23428918033E+03  0.76470018578E+03  0.00000000000E+00 0. -1.
         22    1    1    2    0    0  0.84792901966E+02  0.15687597378E+04 -0.19976504626E+04  0.25414177779E+04  0.00000000000E+00 0.  1.
<mgrwt>
<rscale>  0 0.34010169E+04</rscale>
<asrwt>0</asrwt>
<pdfrwt beam="1">  1        2 0.50586448E+00 0.34010169E+04</pdfrwt>
<pdfrwt beam="2">  1       -2 0.13529966E+00 0.34010169E+04</pdfrwt>
<totfact> 0.36818512E-01</totfact>
</mgrwt>
</event>
<event>
 6    1  0.2436515E-005  0.3560346E+04  0.7818608E-02  0.8099636E-01
         -2   -1    0    0    0  501 -0.00000000000E+00  0.00000000000E+00  0.10102681199E+04  0.10102681199E+04  0.00000000000E+00 0. -1.
          2   -1    0    0  501    0  0.00000000000E+00 -0.00000000000E+00 -0.31368066194E+04  0.31368066194E+04  0.00000000000E+00 0.  1.
         23    2    1    2    0    0  0.46604813432E+03 -0.15889113321E+04 -0.18210822437E+04  0.24632862701E+04  0.97972574296E+02 0.  0.
         11    1    3    3    0    0  0.27343561040E+03 -0.10208145946E+04 -0.12203784509E+04  0.16143583967E+04  0.00000000000E+00 0.  1.
        -11    1    3    3    0    0  0.19261252392E+03 -0.56809673755E+03 -0.60070379284E+03  0.84892787345E+03  0.00000000000E+00 0. -1.
         22    1    1    2    0    0 -0.46604813432E+03  0.15889113321E+04 -0.30545625579E+03  0.16837884692E+04  0.00000000000E+00 0.  1.
<mgrwt>
<rscale>  0 0.35603459E+04</rscale>
<asrwt>0</asrwt>
<pdfrwt beam="1">  1        2 0.48258563E+00 0.35603459E+04</pdfrwt>
<pdfrwt beam="2">  1       -2 0.15542587E+00 0.35603459E+04</pdfrwt>
<totfact> 0.31725540E-01</totfact>
</mgrwt>
</event>
<event>
 6    1  0.2436515E-005  0.4896997E+04  0.7818608E-02  0.7844596E-01
         -2   -1    0    0    0  501 -0.00000000000E+00  0.00000000000E+00  0.21397233887E+04  0.21397233887E+04  0.00000000000E+00 0.  1.
          2   -1    0    0  501    0  0.00000000000E+00 -0.00000000000E+00 -0.28018314962E+04  0.28018314962E+04  0.00000000000E+00 0. -1.
         23    2    1    2    0    0 -0.19881166273E+04 -0.13381193808E+04 -0.83357898878E+03  0.25389368411E+04  0.90416543827E+02 0.  0.
         11    1    3    3    0    0 -0.13418363920E+04 -0.85437771161E+03 -0.53837729913E+03  0.16793856892E+04  0.00000000000E+00 0. -1.
        -11    1    3    3    0    0 -0.64628023533E+03 -0.48374166922E+03 -0.29520168966E+03  0.85955115188E+03  0.00000000000E+00 0.  1.
         22    1    1    2    0    0  0.19881166273E+04  0.13381193808E+04  0.17147088124E+03  0.24026180438E+04  0.00000000000E+00 0.  1.
<mgrwt>
<rscale>  0 0.48969968E+04</rscale>
<asrwt>0</asrwt>
<pdfrwt beam="1">  1        2 0.43105100E+00 0.48969968E+04</pdfrwt>
<pdfrwt beam="2">  1       -2 0.32918821E+00 0.48969968E+04</pdfrwt>
<totfact> 0.35548164E-02</totfact>
</mgrwt>
</event>
<event>
 6    1  0.2436515E-005  0.1111847E+04  0.7818608E-02  0.9193721E-01
         -1   -1    0    0    0  501 -0.00000000000E+00  0.00000000000E+00  0.44885578034E+03  0.44885578034E+03  0.00000000000E+00 0. -1.
          1   -1    0    0  501    0  0.00000000000E+00 -0.00000000000E+00 -0.68853039794E+03  0.68853039794E+03  0.00000000000E+00 0.  1.
         23    2    1    2    0    0 -0.98971610296E+02  0.54034511947E+03 -0.17869121956E+03  0.58467721091E+03  0.90269935353E+02 0.  0.
         11    1    3    3    0    0 -0.79420653951E+01  0.27960281400E+03 -0.10568340547E+03  0.29901470230E+03  0.00000000000E+00 0.  1.
        -11    1    3    3    0    0 -0.91029544901E+02  0.26074230547E+03 -0.73007814090E+02  0.28566250861E+03  0.00000000000E+00 0. -1.
         22    1    1    2    0    0  0.98971610296E+02 -0.54034511947E+03 -0.60983398031E+02  0.55270896737E+03  0.00000000000E+00 0. -1.
<mgrwt>
<rscale>  0 0.11118468E+04</rscale>
<asrwt>0</asrwt>
<pdfrwt beam="1">  1        1 0.10592775E+00 0.11118468E+04</pdfrwt>
<pdfrwt beam="2">  1       -1 0.69054736E-01 0.11118468E+04</pdfrwt>
<totfact> 0.59038706E+01</totfact>
</mgrwt>
</event>
<event>
 6    1  0.2436515E-005  0.1291703E+04  0.7818608E-02  0.9036171E-01
         -2   -1    0    0    0  501 -0.00000000000E+00  0.00000000000E+00  0.33515977006E+03  0.33515977006E+03  0.00000000000E+00 0. -1.
          2   -1    0    0  501    0  0.00000000000E+00 -0.00000000000E+00 -0.12445524586E+04  0.12445524586E+04  0.00000000000E+00 0.  1.
         23    2    1    2    0    0  0.11412860583E+02 -0.53718318046E+03 -0.26286307284E+02  0.54599422873E+03  0.93395423344E+02 0.  0.
         11    1    3    3    0    0 -0.19677039301E+02 -0.28849782920E+03 -0.52889249115E+02  0.29396505915E+03  0.00000000000E+00 0.  1.
        -11    1    3    3    0    0  0.31089899884E+02 -0.24868535126E+03  0.26602941831E+02  0.25202916958E+03  0.00000000000E+00 0. -1.
         22    1    1    2    0    0 -0.11412860583E+02  0.53718318046E+03 -0.88310638123E+03  0.10337179999E+04  0.00000000000E+00 0.  1.
<mgrwt>
<rscale>  0 0.12917026E+04</rscale>
<asrwt>0</asrwt>
<pdfrwt beam="1">  1        2 0.19146961E+00 0.12917026E+04</pdfrwt>
<pdfrwt beam="2">  1       -2 0.51563041E-01 0.12917026E+04</pdfrwt>
<totfact> 0.62077026E+01</totfact>
</mgrwt>
</event>
<event>
 6    1  0.2436515E-005  0.3900295E+04  0.7818608E-02  0.8024968E-01
         -2   -1    0    0    0  501 -0.00000000000E+00  0.00000000000E+00  0.98794763077E+03  0.98794763077E+03  0.00000000000E+00 0. -1.
          2   -1    0    0  501    0  0.00000000000E+00 -0.00000000000E+00 -0.38494703347E+04  0.38494703347E+04  0.00000000000E+00 0.  1.
         23    2    1    2    0    0 -0.21753781341E+03 -0.14516353523E+04  0.15900967299E+03  0.14791172439E+04  0.89083381216E+02 0.  0.
         13    1    3    3    0    0 -0.51085619495E+02 -0.28203206760E+03 -0.32386571060E+01  0.28663969818E+03  0.00000000000E+00 0.  1.
        -13    1    3    3    0    0 -0.16645219391E+03 -0.11696032847E+04  0.16224833010E+03  0.11924775457E+04  0.00000000000E+00 0. -1.
         22    1    1    2    0    0  0.21753781341E+03  0.14516353523E+04 -0.30205323769E+04  0.33583007215E+04  0.00000000000E+00 0.  1.
<mgrwt>
<rscale>  0 0.39002949E+04</rscale>
<asrwt>0</asrwt>
<pdfrwt beam="1">  1        2 0.59222621E+00 0.39002949E+04</pdfrwt>
<pdfrwt beam="2">  1       -2 0.15199194E+00 0.39002949E+04</pdfrwt>
<totfact> 0.10323204E-01</totfact>
</mgrwt>
</event>
<event>
 6    1  0.2436515E-005  0.1677569E+04  0.7818608E-02  0.8774262E-01
         -2   -1    0    0    0  501 -0.00000000000E+00  0.00000000000E+00  0.50699377972E+03  0.50699377972E+03  0.00000000000E+00 0. -1.
          2   -1    0    0  501    0  0.00000000000E+00 -0.00000000000E+00 -0.13877084597E+04  0.13877084597E+04  0.00000000000E+00 0.  1.
         23    2    1    2    0    0 -0.12878892496E+03 -0.81300124971E+03 -0.60871158100E+03  0.10277862660E+04  0.90869139020E+02 0.  0.
         11    1    3    3    0    0 -0.10824583502E+03 -0.40052352931E+03 -0.31786540123E+03  0.52266114417E+03  0.00000000000E+00 0. -1.
        -11    1    3    3    0    0 -0.20543089938E+02 -0.41247772040E+03 -0.29084617977E+03  0.50512512178E+03  0.00000000000E+00 0.  1.
         22    1    1    2    0    0  0.12878892496E+03  0.81300124971E+03 -0.27200309901E+03  0.86691597349E+03  0.00000000000E+00 0.  1.
<mgrwt>
<rscale>  0 0.16775691E+04</rscale>
<asrwt>0</asrwt>
<pdfrwt beam="1">  1        2 0.21349361E+00 0.16775691E+04</pdfrwt>
<pdfrwt beam="2">  1       -2 0.77999043E-01 0.16775691E+04</pdfrwt>
<totfact> 0.20513385E+01</totfact>
</mgrwt>
</event>
<event>
 6    1  0.2436515E-005  0.6033025E+03  0.7818608E-02  0.9898578E-01
         -2   -1    0    0    0  501 -0.00000000000E+00  0.00000000000E+00  0.13690157522E+03  0.13690157522E+03  0.00000000000E+00 0. -1.
          2   -1    0    0  501    0  0.00000000000E+00 -0.00000000000E+00 -0.66466354863E+03  0.66466354863E+03  0.00000000000E+00 0.  1.
         23    2    1    2    0    0  0.28065640601E+03  0.75787657241E+02 -0.19023408455E+03  0.35610259682E+03  0.78155392091E+02 0.  0.
         13    1    3    3    0    0  0.25983720552E+03  0.81937355746E+02 -0.15160156959E+03  0.31178861355E+03  0.00000000000E+00 0. -1.
        -13    1    3    3    0    0  0.20819200491E+02 -0.61496985054E+01 -0.38632514964E+02  0.44313983270E+02  0.00000000000E+00 0.  1.
         22    1    1    2    0    0 -0.28065640601E+03 -0.75787657241E+02 -0.33752788886E+03  0.44546252703E+03  0.00000000000E+00 0.  1.
<mgrwt>
<rscale>  0 0.60330253E+03</rscale>
<asrwt>0</asrwt>
<pdfrwt beam="1">  1        2 0.10225593E+00 0.60330253E+03</pdfrwt>
<pdfrwt beam="2">  1       -2 0.21061781E-01 0.60330253E+03</pdfrwt>
<totfact> 0.85600044E+02</totfact>
</mgrwt>
</event>
<event>
 6    1  0.2436515E-005  0.2570492E+04  0.7818608E-02  0.8378294E-01
          2   -1    0    0  501    0  0.00000000000E+00  0.00000000000E+00  0.20707712886E+04  0.20707712886E+04  0.00000000000E+00 0.  1.
         -2   -1    0    0    0  501 -0.00000000000E+00 -0.00000000000E+00 -0.79770157187E+03  0.79770157187E+03  0.00000000000E+00 0. -1.
         23    2    1    2    0    0  0.21403694882E+03  0.34241607163E+03 -0.72240800762E+03  0.83254753522E+03  0.90562063551E+02 0.  0.
         13    1    3    3    0    0  0.79315586100E+02  0.57625416275E+02 -0.19347809556E+03  0.21689957184E+03  0.00000000000E+00 0. -1.
        -13    1    3    3    0    0  0.13472136272E+03  0.28479065536E+03 -0.52892991206E+03  0.61564796339E+03  0.00000000000E+00 0.  1.
         22    1    1    2    0    0 -0.21403694882E+03 -0.34241607163E+03  0.19954777244E+04  0.20359253253E+04  0.00000000000E+00 0.  1.
<mgrwt>
<rscale>  0 0.25704922E+04</rscale>
<asrwt>0</asrwt>
<pdfrwt beam="1">  1        2 0.31858020E+00 0.25704922E+04</pdfrwt>
<pdfrwt beam="2">  1       -2 0.12272332E+00 0.25704922E+04</pdfrwt>
<totfact> 0.27162045E+00</totfact>
</mgrwt>
</event>
<event>
 6    1  0.2436515E-005  0.2095909E+04  0.7818608E-02  0.8563048E-01
          1   -1    0    0  501    0  0.00000000000E+00  0.00000000000E+00  0.66640639331E+03  0.66640639331E+03  0.00000000000E+00 0.  1.
         -1   -1    0    0    0  501 -0.00000000000E+00 -0.00000000000E+00 -0.16479564133E+04  0.16479564133E+04  0.00000000000E+00 0. -1.
         23    2    1    2    0    0 -0.96804849725E+03  0.39447590798E+03 -0.53373351372E+03  0.11771430573E+04  0.89806339725E+02 0.  0.
         13    1    3    3    0    0 -0.71450351864E+03  0.27822613753E+03 -0.43306341441E+03  0.88060716705E+03  0.00000000000E+00 0.  1.
        -13    1    3    3    0    0 -0.25354497861E+03  0.11624977045E+03 -0.10067009931E+03  0.29653589024E+03  0.00000000000E+00 0. -1.
         22    1    1    2    0    0  0.96804849725E+03 -0.39447590798E+03 -0.44781650630E+03  0.11372197493E+04  0.00000000000E+00 0. -1.
<mgrwt>
<rscale>  0 0.20959091E+04</rscale>
<asrwt>0</asrwt>
<pdfrwt beam="1">  1        1 0.10252406E+00 0.20959091E+04</pdfrwt>
<pdfrwt beam="2">  1       -1 0.25353175E+00 0.20959091E+04</pdfrwt>
<totfact> 0.17848770E+00</totfact>
</mgrwt>
</event>
<event>
 6    1  0.2436515E-005  0.1156329E+04  0.7818608E-02  0.9151964E-01
          2   -1    0    0  501    0  0.00000000000E+00  0.00000000000E+00  0.29002320625E+04  0.29002320625E+04  0.00000000000E+00 0.  1.
         -2   -1    0    0    0  501 -0.00000000000E+00 -0.00000000000E+00 -0.11525777527E+03  0.11525777527E+03  0.00000000000E+00 0. -1.
         23    2    1    2    0    0 -0.19306305629E+03 -0.41432991808E+03  0.23088624596E+04  0.23554708251E+04  0.91947407045E+02 0.  0.
         13    1    3    3    0    0 -0.85432758158E+02 -0.13400109445E+03  0.10042799324E+04  0.10167759006E+04  0.00000000000E+00 0. -1.
        -13    1    3    3    0    0 -0.10763029814E+03 -0.28032882363E+03  0.13045825272E+04  0.13386949245E+04  0.00000000000E+00 0.  1.
         22    1    1    2    0    0  0.19306305629E+03  0.41432991808E+03  0.47611182763E+03  0.66001901271E+03  0.00000000000E+00 0. -1.
<mgrwt>
<rscale>  0 0.11563292E+04</rscale>
<asrwt>0</asrwt>
<pdfrwt beam="1">  1        2 0.44618949E+00 0.11563292E+04</pdfrwt>
<pdfrwt beam="2">  1       -2 0.17731968E-01 0.11563292E+04</pdfrwt>
<totfact> 0.53153210E+01</totfact>
</mgrwt>
</event>
<event>
 6    1  0.2436515E-005  0.3160652E+04  0.7818608E-02  0.8199287E-01
          2   -1    0    0  501    0  0.00000000000E+00  0.00000000000E+00  0.16357354586E+04  0.16357354586E+04  0.00000000000E+00 0.  1.
         -2   -1    0    0    0  501 -0.00000000000E+00 -0.00000000000E+00 -0.15267936712E+04  0.15267936712E+04  0.00000000000E+00 0. -1.
         23    2    1    2    0    0  0.40451724524E+03 -0.15252029910E+04 -0.51049721750E+01  0.15804782365E+04  0.89482009528E+02 0.  0.
         11    1    3    3    0    0  0.28565740384E+03 -0.10803125310E+04  0.37072576424E+02  0.11180562119E+04  0.00000000000E+00 0. -1.
        -11    1    3    3    0    0  0.11885984140E+03 -0.44489045999E+03 -0.42177548599E+02  0.46242202466E+03  0.00000000000E+00 0.  1.
         22    1    1    2    0    0 -0.40451724524E+03  0.15252029910E+04  0.11404675958E+03  0.15820508932E+04  0.00000000000E+00 0.  1.
<mgrwt>
<rscale>  0 0.31606522E+04</rscale>
<asrwt>0</asrwt>
<pdfrwt beam="1">  1        2 0.25165161E+00 0.31606522E+04</pdfrwt>
<pdfrwt beam="2">  1       -2 0.23489133E+00 0.31606522E+04</pdfrwt>
<totfact> 0.71705163E-01</totfact>
</mgrwt>
</event>
<event>
 6    1  0.2436515E-005  0.2790340E+04  0.7818608E-02  0.8306274E-01
         -2   -1    0    0    0  501 -0.00000000000E+00  0.00000000000E+00  0.12751994242E+04  0.12751994242E+04  0.00000000000E+00 0. -1.
          2   -1    0    0  501    0  0.00000000000E+00 -0.00000000000E+00 -0.15264270209E+04  0.15264270209E+04  0.00000000000E+00 0.  1.
         23    2    1    2    0    0 -0.11219544111E+04 -0.40123052828E+03  0.60006628489E+03  0.13372259157E+04  0.91246731761E+02 0.  0.
         13    1    3    3    0    0 -0.79993979724E+03 -0.30452440249E+03  0.38855399034E+03  0.94000691185E+03  0.00000000000E+00 0. -1.
        -13    1    3    3    0    0 -0.32201461387E+03 -0.96706125785E+02  0.21151229455E+03  0.39721900390E+03  0.00000000000E+00 0.  1.
         22    1    1    2    0    0  0.11219544111E+04  0.40123052828E+03 -0.85129388160E+03  0.14644005293E+04  0.00000000000E+00 0.  1.
<mgrwt>
<rscale>  0 0.27903397E+04</rscale>
<asrwt>0</asrwt>
<pdfrwt beam="1">  1        2 0.23483493E+00 0.27903397E+04</pdfrwt>
<pdfrwt beam="2">  1       -2 0.19618453E+00 0.27903397E+04</pdfrwt>
<totfact> 0.15055918E+00</totfact>
</mgrwt>
</event>
<event>
 6    1  0.2436515E-005  0.4468757E+03  0.7818608E-02  0.1028658E+00
          2   -1    0    0  501    0  0.00000000000E+00  0.00000000000E+00  0.40626861162E+03  0.40626861162E+03  0.00000000000E+00 0.  1.
         -2   -1    0    0    0  501 -0.00000000000E+00 -0.00000000000E+00 -0.12288538245E+03  0.12288538245E+03  0.00000000000E+00 0. -1.
         23    2    1    2    0    0 -0.44730026717E+02  0.15191979155E+03  0.31831509833E+03  0.36697929247E+03  0.90933497247E+02 0.  0.
         13    1    3    3    0    0 -0.58856565152E+02  0.44742447926E+02  0.14384089767E+03  0.16172874126E+03  0.00000000000E+00 0. -1.
        -13    1    3    3    0    0  0.14126538435E+02  0.10717734363E+03  0.17447420066E+03  0.20525055121E+03  0.00000000000E+00 0.  1.
         22    1    1    2    0    0  0.44730026717E+02 -0.15191979155E+03 -0.34931869154E+02  0.16217470160E+03  0.00000000000E+00 0. -1.
<mgrwt>
<rscale>  0 0.44687570E+03</rscale>
<asrwt>0</asrwt>
<pdfrwt beam="1">  1        2 0.62502863E-01 0.44687570E+03</pdfrwt>
<pdfrwt beam="2">  1       -2 0.18905444E-01 0.44687570E+03</pdfrwt>
<totfact> 0.18291780E+03</totfact>
</mgrwt>
</event>
<event>
 6    1  0.2436515E-005  0.2828688E+04  0.7818608E-02  0.8294417E-01
         -2   -1    0    0    0  501 -0.00000000000E+00  0.00000000000E+00  0.10572239107E+04  0.10572239107E+04  0.00000000000E+00 0. -1.
          2   -1    0    0  501    0  0.00000000000E+00 -0.00000000000E+00 -0.18920961585E+04  0.18920961585E+04  0.00000000000E+00 0.  1.
         23    2    1    2    0    0  0.87461209406E+03 -0.29864893555E+03 -0.15321567365E+04  0.17915881658E+04  0.90257347698E+02 0.  0.
         11    1    3    3    0    0  0.44578241931E+03 -0.18727460585E+03 -0.85829453620E+03  0.98512093381E+03  0.00000000000E+00 0. -1.
        -11    1    3    3    0    0  0.42882967475E+03 -0.11137432970E+03 -0.67386220033E+03  0.80646723200E+03  0.00000000000E+00 0.  1.
         22    1    1    2    0    0 -0.87461209406E+03  0.29864893555E+03  0.69728448871E+03  0.11577319033E+04  0.00000000000E+00 0. -1.
<mgrwt>
<rscale>  0 0.28286882E+04</rscale>
<asrwt>0</asrwt>
<pdfrwt beam="1">  1        2 0.29109171E+00 0.28286882E+04</pdfrwt>
<pdfrwt beam="2">  1       -2 0.16264983E+00 0.28286882E+04</pdfrwt>
<totfact> 0.16038702E+00</totfact>
</mgrwt>
</event>
<event>
 6    1  0.2436515E-005  0.2318132E+04  0.7818608E-02  0.8470806E-01
          2   -1    0    0  501    0  0.00000000000E+00  0.00000000000E+00  0.31726350659E+04  0.31726350659E+04  0.00000000000E+00 0.  1.
         -2   -1    0    0    0  501 -0.00000000000E+00 -0.00000000000E+00 -0.42344420532E+03  0.42344420532E+03  0.00000000000E+00 0. -1.
         23    2    1    2    0    0  0.93400919253E+03 -0.24796749270E+03  0.23657689504E+04  0.25564286518E+04  0.67850394922E+02 0.  0.
         13    1    3    3    0    0  0.65032712645E+03 -0.14135913791E+03  0.16026528922E+04  0.17353397564E+04  0.00000000000E+00 0. -1.
        -13    1    3    3    0    0  0.28368206608E+03 -0.10660835479E+03  0.76311605825E+03  0.82108889548E+03  0.00000000000E+00 0.  1.
         22    1    1    2    0    0 -0.93400919253E+03  0.24796749270E+03  0.38342191015E+03  0.10396506194E+04  0.00000000000E+00 0. -1.
<mgrwt>
<rscale>  0 0.23181319E+04</rscale>
<asrwt>0</asrwt>
<pdfrwt beam="1">  1        2 0.48809769E+00 0.23181319E+04</pdfrwt>
<pdfrwt beam="2">  1       -2 0.65145264E-01 0.23181319E+04</pdfrwt>
<totfact> 0.26607094E+00</totfact>
</mgrwt>
</event>
<event>
 6    1  0.2436515E-005  0.1757183E+04  0.7818608E-02  0.8729406E-01
          2   -1    0    0  501    0  0.00000000000E+00  0.00000000000E+00  0.59086901932E+03  0.59086901932E+03  0.00000000000E+00 0.  1.
         -2   -1    0    0    0  501 -0.00000000000E+00 -0.00000000000E+00 -0.13064203511E+04  0.13064203511E+04  0.00000000000E+00 0. -1.
         23    2    1    2    0    0  0.41855897085E+03 -0.34418570909E+03 -0.11023065936E+04  0.12315303698E+04  0.89060715098E+02 0.  0.
         13    1    3    3    0    0  0.24738954515E+03 -0.23124557476E+03 -0.59986263639E+03  0.68884779555E+03  0.00000000000E+00 0. -1.
        -13    1    3    3    0    0  0.17116942570E+03 -0.11294013434E+03 -0.50244395722E+03  0.54268257424E+03  0.00000000000E+00 0.  1.
         22    1    1    2    0    0 -0.41855897085E+03  0.34418570909E+03  0.38675526180E+03  0.66575900065E+03  0.00000000000E+00 0.  1.
<mgrwt>
<rscale>  0 0.17571833E+04</rscale>
<asrwt>0</asrwt>
<pdfrwt beam="1">  1        2 0.90902927E-01 0.17571833E+04</pdfrwt>
<pdfrwt beam="2">  1       -2 0.20098775E+00 0.17571833E+04</pdfrwt>
<totfact> 0.62658543E+00</totfact>
</mgrwt>
</event>
<event>
 6    1  0.2436515E-005  0.4874277E+04  0.7818608E-02  0.7848199E-01
          2   -1    0    0  501    0  0.00000000000E+00  0.00000000000E+00  0.27535472891E+04  0.27535472891E+04  0.00000000000E+00 0.  1.
         -2   -1    0    0    0  501 -0.00000000000E+00 -0.00000000000E+00 -0.21570885296E+04  0.21570885296E+04  0.00000000000E+00 0. -1.
         23    2    1    2    0    0 -0.51997920505E+03 -0.20393574445E+04 -0.93799260768E+03  0.23060440737E+04  0.93016009728E+02 0.  0.
         13    1    3    3    0    0 -0.38533803854E+03 -0.16563712141E+04 -0.76566969719E+03  0.18650203988E+04  0.00000000000E+00 0. -1.
        -13    1    3    3    0    0 -0.13464116651E+03 -0.38298623034E+03 -0.17232291049E+03  0.44102367491E+03  0.00000000000E+00 0.  1.
         22    1    1    2    0    0  0.51997920505E+03  0.20393574445E+04  0.15344513672E+04  0.26045917450E+04  0.00000000000E+00 0.  1.
<mgrwt>
<rscale>  0 0.48742775E+04</rscale>
<asrwt>0</asrwt>
<pdfrwt beam="1">  1        2 0.42362266E+00 0.48742775E+04</pdfrwt>
<pdfrwt beam="2">  1       -2 0.33185977E+00 0.48742775E+04</pdfrwt>
<totfact> 0.36655730E-02</totfact>
</mgrwt>
</event>
<event>
 6    1  0.2436515E-005  0.3483118E+04  0.7818608E-02  0.8117802E-01
         -2   -1    0    0    0  501 -0.00000000000E+00  0.00000000000E+00  0.10525585033E+04  0.10525585033E+04  0.00000000000E+00 0. -1.
          2   -1    0    0  501    0  0.00000000000E+00 -0.00000000000E+00 -0.28815766135E+04  0.28815766135E+04  0.00000000000E+00 0.  1.
         23    2    1    2    0    0 -0.13538656200E+04 -0.96925058533E+03 -0.14871177590E+04  0.22343425812E+04  0.91480745143E+02 0.  0.
         11    1    3    3    0    0 -0.80792918070E+03 -0.56211520315E+03 -0.82097866519E+03  0.12816899123E+04  0.00000000000E+00 0. -1.
        -11    1    3    3    0    0 -0.54593643932E+03 -0.40713538217E+03 -0.66613909380E+03  0.95265266886E+03  0.00000000000E+00 0.  1.
         22    1    1    2    0    0  0.13538656200E+04  0.96925058533E+03 -0.34190035118E+03  0.16997925357E+04  0.00000000000E+00 0.  1.
<mgrwt>
<rscale>  0 0.34831181E+04</rscale>
<asrwt>0</asrwt>
<pdfrwt beam="1">  1        2 0.44331949E+00 0.34831181E+04</pdfrwt>
<pdfrwt beam="2">  1       -2 0.16193207E+00 0.34831181E+04</pdfrwt>
<totfact> 0.41341007E-01</totfact>
</mgrwt>
</event>
<event>
 6    1  0.2436515E-005  0.1909527E+04  0.7818608E-02  0.8650128E-01
          2   -1    0    0  501    0  0.00000000000E+00  0.00000000000E+00  0.18730236115E+04  0.18730236115E+04  0.00000000000E+00 0.  1.
         -2   -1    0    0    0  501 -0.00000000000E+00 -0.00000000000E+00 -0.48668570397E+03  0.48668570397E+03  0.00000000000E+00 0. -1.
         23    2    1    2    0    0 -0.39407033391E+03 -0.77278689767E+03  0.11811152978E+04  0.14683018123E+04  0.91574275669E+02 0.  0.
         13    1    3    3    0    0 -0.33530837365E+02 -0.13826226384E+03  0.20481445294E+03  0.24937868952E+03  0.00000000000E+00 0. -1.
        -13    1    3    3    0    0 -0.36053949655E+03 -0.63452463383E+03  0.97630084483E+03  0.12189231227E+04  0.00000000000E+00 0.  1.
         22    1    1    2    0    0  0.39407033391E+03  0.77278689767E+03  0.20522260980E+03  0.89140750325E+03  0.00000000000E+00 0. -1.
<mgrwt>
<rscale>  0 0.19095275E+04</rscale>
<asrwt>0</asrwt>
<pdfrwt beam="1">  1        2 0.28815747E+00 0.19095275E+04</pdfrwt>
<pdfrwt beam="2">  1       -2 0.74874725E-01 0.19095275E+04</pdfrwt>
<totfact> 0.11788103E+01</totfact>
</mgrwt>
</event>
<event>
 6    1  0.2436515E-005  0.1606475E+04  0.7818608E-02  0.8816580E-01
         -2   -1    0    0    0  501 -0.00000000000E+00  0.00000000000E+00  0.39216809726E+03  0.39216809726E+03  0.00000000000E+00 0.  1.
          2   -1    0    0  501    0  0.00000000000E+00 -0.00000000000E+00 -0.16451875930E+04  0.16451875930E+04  0.00000000000E+00 0. -1.
         23    2    1    2    0    0 -0.40259187292E+03 -0.25946400395E+03  0.18835186716E+03  0.51848993212E+03  0.62877645961E+02 0.  0.
         11    1    3    3    0    0 -0.16652344579E+03 -0.10230197822E+03  0.10999869772E+03  0.22426650719E+03  0.00000000000E+00 0.  1.
        -11    1    3    3    0    0 -0.23606842713E+03 -0.15716202573E+03  0.78353169438E+02  0.29422342494E+03  0.00000000000E+00 0. -1.
         22    1    1    2    0    0  0.40259187292E+03  0.25946400395E+03 -0.14413713629E+04  0.15188657582E+04  0.00000000000E+00 0. -1.
<mgrwt>
<rscale>  0 0.16064745E+04</rscale>
<asrwt>0</asrwt>
<pdfrwt beam="1">  1        2 0.25310579E+00 0.16064745E+04</pdfrwt>
<pdfrwt beam="2">  1       -2 0.60333551E-01 0.16064745E+04</pdfrwt>
<totfact> 0.25810403E+01</totfact>
</mgrwt>
</event>
<event>
 6    1  0.2436515E-005  0.1725785E+04  0.7818608E-02  0.8746793E-01
          2   -1    0    0  501    0  0.00000000000E+00  0.00000000000E+00  0.23361264834E+04  0.23361264834E+04  0.00000000000E+00 0.  1.
         -2   -1    0    0    0  501 -0.00000000000E+00 -0.00000000000E+00 -0.31872558394E+03  0.31872558394E+03  0.00000000000E+00 0. -1.
         23    2    1    2    0    0  0.40572195530E+03  0.75854461360E+03  0.97008823109E+03  0.12995424860E+04  0.87973070350E+02 0.  0.
         13    1    3    3    0    0  0.19007809142E+03  0.31135680316E+03  0.46888102607E+03  0.59407251772E+03  0.00000000000E+00 0.  1.
        -13    1    3    3    0    0  0.21564386389E+03  0.44718781044E+03  0.50120720502E+03  0.70546996832E+03  0.00000000000E+00 0. -1.
         22    1    1    2    0    0 -0.40572195530E+03 -0.75854461360E+03  0.10473126684E+04  0.13553095813E+04  0.00000000000E+00 0.  1.
<mgrwt>
<rscale>  0 0.17257848E+04</rscale>
<asrwt>0</asrwt>
<pdfrwt beam="1">  1        2 0.35940406E+00 0.17257848E+04</pdfrwt>
<pdfrwt beam="2">  1       -2 0.49034707E-01 0.17257848E+04</pdfrwt>
<totfact> 0.16183514E+01</totfact>
</mgrwt>
</event>
<event>
 6    1  0.2436515E-005  0.1864803E+04  0.7818608E-02  0.8672577E-01
          2   -1    0    0  501    0  0.00000000000E+00  0.00000000000E+00  0.20790699020E+04  0.20790699020E+04  0.00000000000E+00 0.  1.
         -2   -1    0    0    0  501 -0.00000000000E+00 -0.00000000000E+00 -0.41815455637E+03  0.41815455637E+03  0.00000000000E+00 0. -1.
         23    2    1    2    0    0  0.85004836684E+03 -0.37727553408E+03  0.80881852640E+03  0.12358807130E+04  0.91075098861E+02 0.  0.
         13    1    3    3    0    0  0.52641382553E+03 -0.24113081186E+03  0.44488301132E+03  0.73018934387E+03  0.00000000000E+00 0. -1.
        -13    1    3    3    0    0  0.32363454131E+03 -0.13614472221E+03  0.36393551508E+03  0.50569136917E+03  0.00000000000E+00 0.  1.
         22    1    1    2    0    0 -0.85004836684E+03  0.37727553408E+03  0.85209681926E+03  0.12613437454E+04  0.00000000000E+00 0. -1.
<mgrwt>
<rscale>  0 0.18648030E+04</rscale>
<asrwt>0</asrwt>
<pdfrwt beam="1">  1        2 0.31985690E+00 0.18648030E+04</pdfrwt>
<pdfrwt beam="2">  1       -2 0.64331472E-01 0.18648030E+04</pdfrwt>
<totfact> 0.12655297E+01</totfact>
</mgrwt>
</event>
<event>
 6    1  0.2436515E-005  0.4779141E+03  0.7818608E-02  0.1019710E+00
         -2   -1    0    0    0  501 -0.00000000000E+00  0.00000000000E+00  0.66073455171E+02  0.66073455171E+02  0.00000000000E+00 0. -1.
          2   -1    0    0  501    0  0.00000000000E+00 -0.00000000000E+00 -0.86419697714E+03  0.86419697714E+03  0.00000000000E+00 0.  1.
         23    2    1    2    0    0  0.13382902135E+03 -0.44247370369E+02 -0.58313646479E+02  0.17715245443E+03  0.90080375241E+02 0.  0.
         13    1    3    3    0    0 -0.10550147695E+02  0.82290598829E+01 -0.19626360864E+01  0.13523127720E+02  0.00000000000E+00 0. -1.
        -13    1    3    3    0    0  0.14437916904E+03 -0.52476430252E+02 -0.56351010393E+02  0.16362932671E+03  0.00000000000E+00 0.  1.
         22    1    1    2    0    0 -0.13382902135E+03  0.44247370369E+02 -0.73980987549E+03  0.75311797788E+03  0.00000000000E+00 0.  1.
<mgrwt>
<rscale>  0 0.47791414E+03</rscale>
<asrwt>0</asrwt>
<pdfrwt beam="1">  1        2 0.13295339E+00 0.47791414E+03</pdfrwt>
<pdfrwt beam="2">  1       -2 0.10165147E-01 0.47791414E+03</pdfrwt>
<totfact> 0.20783166E+03</totfact>
</mgrwt>
</event>
<event>
 6    1  0.2436515E-005  0.2591607E+04  0.7818608E-02  0.8371058E-01
          2   -1    0    0  501    0  0.00000000000E+00  0.00000000000E+00  0.98363295015E+03  0.98363295015E+03  0.00000000000E+00 0.  1.
         -2   -1    0    0    0  501 -0.00000000000E+00 -0.00000000000E+00 -0.17070457651E+04  0.17070457651E+04  0.00000000000E+00 0. -1.
         23    2    1    2    0    0  0.29649302955E+03  0.83910065334E+03 -0.13377060909E+04  0.16093118710E+04  0.91810072615E+02 0.  0.
         11    1    3    3    0    0  0.22746404206E+03  0.53164830369E+03 -0.82393852424E+03  0.10066104018E+04  0.00000000000E+00 0.  1.
        -11    1    3    3    0    0  0.69028987484E+02  0.30745234965E+03 -0.51376756670E+03  0.60270146923E+03  0.00000000000E+00 0. -1.
         22    1    1    2    0    0 -0.29649302955E+03 -0.83910065334E+03  0.61429327596E+03  0.10813668443E+04  0.00000000000E+00 0.  1.
<mgrwt>
<rscale>  0 0.25916068E+04</rscale>
<asrwt>0</asrwt>
<pdfrwt beam="1">  1        2 0.15132815E+00 0.25916068E+04</pdfrwt>
<pdfrwt beam="2">  1       -2 0.26262242E+00 0.25916068E+04</pdfrwt>
<totfact> 0.12283192E+00</totfact>
</mgrwt>
</event>
<event>
 6    1  0.2436515E-005  0.2464895E+04  0.7818608E-02  0.8415600E-01
         -1   -1    0    0    0  501 -0.00000000000E+00  0.00000000000E+00  0.11608152679E+04  0.11608152679E+04  0.00000000000E+00 0. -1.
          1   -1    0    0  501    0  0.00000000000E+00 -0.00000000000E+00 -0.13084998340E+04  0.13084998340E+04  0.00000000000E+00 0.  1.
         23    2    1    2    0    0  0.84341031494E+03 -0.30542844872E+03  0.77024656893E+03  0.11858724405E+04  0.91576042314E+02 0.  0.
         11    1    3    3    0    0  0.52853637109E+03 -0.21768313387E+03  0.44130481905E+03  0.72214028115E+03  0.00000000000E+00 0.  1.
        -11    1    3    3    0    0  0.31487394385E+03 -0.87745314848E+02  0.32894174988E+03  0.46373215935E+03  0.00000000000E+00 0. -1.
         22    1    1    2    0    0 -0.84341031494E+03  0.30542844872E+03 -0.91793113502E+03  0.12834426615E+04  0.00000000000E+00 0.  1.
<mgrwt>
<rscale>  0 0.24648948E+04</rscale>
<asrwt>0</asrwt>
<pdfrwt beam="1">  1        1 0.20130767E+00 0.24648948E+04</pdfrwt>
<pdfrwt beam="2">  1       -1 0.17858696E+00 0.24648948E+04</pdfrwt>
<totfact> 0.16935102E+00</totfact>
</mgrwt>
</event>
<event>
 6    1  0.2436515E-005  0.1233456E+04  0.7818608E-02  0.9084066E-01
         -2   -1    0    0    0  501 -0.00000000000E+00  0.00000000000E+00  0.20094330314E+03  0.20094330314E+03  0.00000000000E+00 0. -1.
          2   -1    0    0  501    0  0.00000000000E+00 -0.00000000000E+00 -0.18928401956E+04  0.18928401956E+04  0.00000000000E+00 0.  1.
         23    2    1    2    0    0  0.10896240104E+03 -0.39143505681E+02 -0.18730737486E+04  0.18787717035E+04  0.89290690436E+02 0.  0.
         13    1    3    3    0    0 -0.25213131877E+01 -0.27501517183E+02 -0.64568522335E+03  0.64627555897E+03  0.00000000000E+00 0. -1.
        -13    1    3    3    0    0  0.11148371422E+03 -0.11641988498E+02 -0.12273885252E+04  0.12324961445E+04  0.00000000000E+00 0.  1.
         22    1    1    2    0    0 -0.10896240104E+03  0.39143505681E+02  0.18117685615E+03  0.21501179521E+03  0.00000000000E+00 0. -1.
<mgrwt>
<rscale>  0 0.12334562E+04</rscale>
<asrwt>0</asrwt>
<pdfrwt beam="1">  1        2 0.29120618E+00 0.12334562E+04</pdfrwt>
<pdfrwt beam="2">  1       -2 0.30914354E-01 0.12334562E+04</pdfrwt>
<totfact> 0.73183473E+01</totfact>
</mgrwt>
</event>
<event>
 6    1  0.2436515E-005  0.1357554E+04  0.7818608E-02  0.8985130E-01
          2   -1    0    0  501    0  0.00000000000E+00  0.00000000000E+00  0.17320742865E+04  0.17320742865E+04  0.00000000000E+00 0.  1.
         -2   -1    0    0    0  501 -0.00000000000E+00 -0.00000000000E+00 -0.26600355765E+03  0.26600355765E+03  0.00000000000E+00 0. -1.
         23    2    1    2    0    0  0.50647303514E+03 -0.28809967058E+03  0.12399470496E+04  0.13730592254E+04  0.91140523864E+02 0.  0.
         13    1    3    3    0    0  0.36896782952E+03 -0.19030404143E+03  0.78860874113E+03  0.89121076856E+03  0.00000000000E+00 0. -1.
        -13    1    3    3    0    0  0.13750520561E+03 -0.97795629148E+02  0.45133830848E+03  0.48184845684E+03  0.00000000000E+00 0.  1.
         22    1    1    2    0    0 -0.50647303514E+03  0.28809967058E+03  0.22612367927E+03  0.62501861879E+03  0.00000000000E+00 0. -1.
<mgrwt>
<rscale>  0 0.13575536E+04</rscale>
<asrwt>0</asrwt>
<pdfrwt beam="1">  1        2 0.26647296E+00 0.13575536E+04</pdfrwt>
<pdfrwt beam="2">  1       -2 0.40923625E-01 0.13575536E+04</pdfrwt>
<totfact> 0.51956304E+01</totfact>
</mgrwt>
</event>
<event>
 6    1  0.2436515E-005  0.7536843E+04  0.7818608E-02  0.7524470E-01
         -2   -1    0    0    0  501 -0.00000000000E+00  0.00000000000E+00  0.35316496576E+04  0.35316496576E+04  0.00000000000E+00 0. -1.
          2   -1    0    0  501    0  0.00000000000E+00 -0.00000000000E+00 -0.40210677210E+04  0.40210677210E+04  0.00000000000E+00 0.  1.
         23    2    1    2    0    0  0.47623098645E+02 -0.11820500102E+04  0.33401162097E+04  0.35446202073E+04  0.91901760958E+02 0.  0.
         13    1    3    3    0    0  0.50639553190E+02 -0.37666848265E+03  0.11441450336E+04  0.12056165924E+04  0.00000000000E+00 0. -1.
        -13    1    3    3    0    0 -0.30164545449E+01 -0.80538152754E+03  0.21959711761E+04  0.23390036148E+04  0.00000000000E+00 0.  1.
         22    1    1    2    0    0 -0.47623098645E+02  0.11820500102E+04 -0.38295342731E+04  0.40080971714E+04  0.00000000000E+00 0.  1.
<mgrwt>
<rscale>  0 0.75368435E+04</rscale>
<asrwt>0</asrwt>
<pdfrwt beam="1">  1        2 0.61862580E+00 0.75368435E+04</pdfrwt>
<pdfrwt beam="2">  1       -2 0.54333072E+00 0.75368435E+04</pdfrwt>
<totfact> 0.18592425E-04</totfact>
</mgrwt>
</event>
<event>
 6    1  0.2436515E-005  0.1415291E+04  0.7818608E-02  0.8942824E-01
          2   -1    0    0  501    0  0.00000000000E+00  0.00000000000E+00  0.33344953146E+04  0.33344953146E+04  0.00000000000E+00 0.  1.
         -2   -1    0    0    0  501 -0.00000000000E+00 -0.00000000000E+00 -0.15017626260E+03  0.15017626260E+03  0.00000000000E+00 0. -1.
         23    2    1    2    0    0 -0.26072179864E+03 -0.65327724698E+03  0.14903391435E+04  0.16504646783E+04  0.90420539059E+02 0.  0.
         13    1    3    3    0    0 -0.73767364517E+02 -0.25681553933E+03  0.64730914961E+03  0.70028921202E+03  0.00000000000E+00 0.  1.
        -13    1    3    3    0    0 -0.18695443412E+03 -0.39646170765E+03  0.84302999394E+03  0.95017546629E+03  0.00000000000E+00 0. -1.
         22    1    1    2    0    0  0.26072179864E+03  0.65327724698E+03  0.16939799085E+04  0.18342068989E+04  0.00000000000E+00 0.  1.
<mgrwt>
<rscale>  0 0.14152908E+04</rscale>
<asrwt>0</asrwt>
<pdfrwt beam="1">  1        2 0.51299922E+00 0.14152908E+04</pdfrwt>
<pdfrwt beam="2">  1       -2 0.23104043E-01 0.14152908E+04</pdfrwt>
<totfact> 0.17220629E+01</totfact>
</mgrwt>
</event>
<event>
 6    1  0.2436515E-005  0.2137499E+04  0.7818608E-02  0.8544902E-01
          2   -1    0    0  501    0  0.00000000000E+00  0.00000000000E+00  0.16263714787E+04  0.16263714787E+04  0.00000000000E+00 0.  1.
         -2   -1    0    0    0  501 -0.00000000000E+00 -0.00000000000E+00 -0.70231525520E+03  0.70231525520E+03  0.00000000000E+00 0. -1.
         23    2    1    2    0    0 -0.55550990204E+03 -0.38328302255E+03 -0.43708190593E+03  0.80941252100E+03  0.92794989196E+02 0.  0.
         11    1    3    3    0    0 -0.40906801275E+03 -0.30344197963E+03 -0.28472207296E+03  0.58350692617E+03  0.00000000000E+00 0. -1.
        -11    1    3    3    0    0 -0.14644188928E+03 -0.79841042928E+02 -0.15235983297E+03  0.22590559483E+03  0.00000000000E+00 0.  1.
         22    1    1    2    0    0  0.55550990204E+03  0.38328302255E+03  0.13611381295E+04  0.15192742129E+04  0.00000000000E+00 0.  1.
<mgrwt>
<rscale>  0 0.21374990E+04</rscale>
<asrwt>0</asrwt>
<pdfrwt beam="1">  1        2 0.25021100E+00 0.21374990E+04</pdfrwt>
<pdfrwt beam="2">  1       -2 0.10804850E+00 0.21374990E+04</pdfrwt>
<totfact> 0.67954548E+00</totfact>
</mgrwt>
</event>
<event>
 6    1  0.2436515E-005  0.4217763E+04  0.7818608E-02  0.7962002E-01
         -2   -1    0    0    0  501 -0.00000000000E+00  0.00000000000E+00  0.17347279687E+04  0.17347279687E+04  0.00000000000E+00 0. -1.
          2   -1    0    0  501    0  0.00000000000E+00 -0.00000000000E+00 -0.25637336190E+04  0.25637336190E+04  0.00000000000E+00 0.  1.
         23    2    1    2    0    0  0.74861765035E+02 -0.14456899370E+04 -0.19761745363E+04  0.24514044335E+04  0.92164098673E+02 0.  0.
         11    1    3    3    0    0 -0.86707431811E+01 -0.54540663237E+03 -0.78648919657E+03  0.95713574416E+03  0.00000000000E+00 0.  1.
        -11    1    3    3    0    0  0.83532508216E+02 -0.90028330461E+03 -0.11896853397E+04  0.14942686894E+04  0.00000000000E+00 0. -1.
         22    1    1    2    0    0 -0.74861765035E+02  0.14456899370E+04  0.11471688861E+04  0.18470571542E+04  0.00000000000E+00 0. -1.
<mgrwt>
<rscale>  0 0.42177626E+04</rscale>
<asrwt>0</asrwt>
<pdfrwt beam="1">  1        2 0.39442055E+00 0.42177626E+04</pdfrwt>
<pdfrwt beam="2">  1       -2 0.26688123E+00 0.42177626E+04</pdfrwt>
<totfact> 0.12545255E-01</totfact>
</mgrwt>
</event>
<event>
 6    1  0.2436515E-005  0.1659698E+04  0.7818608E-02  0.8784690E-01
          2   -1    0    0  501    0  0.00000000000E+00  0.00000000000E+00  0.15308674356E+04  0.15308674356E+04  0.00000000000E+00 0.  1.
         -2   -1    0    0    0  501 -0.00000000000E+00 -0.00000000000E+00 -0.44984236754E+03  0.44984236754E+03  0.00000000000E+00 0. -1.
         23    2    1    2    0    0 -0.51303646603E+03 -0.25616583029E+03  0.12538672029E+04  0.13817926539E+04  0.91327037411E+02 0.  0.
         13    1    3    3    0    0 -0.28387880929E+03 -0.18384555137E+03  0.79083843234E+03  0.86012312560E+03  0.00000000000E+00 0. -1.
        -13    1    3    3    0    0 -0.22915765674E+03 -0.72320278917E+02  0.46302877056E+03  0.52166952829E+03  0.00000000000E+00 0.  1.
         22    1    1    2    0    0  0.51303646603E+03  0.25616583029E+03 -0.17284213484E+03  0.59891714924E+03  0.00000000000E+00 0. -1.
<mgrwt>
<rscale>  0 0.16596976E+04</rscale>
<asrwt>0</asrwt>
<pdfrwt beam="1">  1        2 0.23551806E+00 0.16596976E+04</pdfrwt>
<pdfrwt beam="2">  1       -2 0.69206519E-01 0.16596976E+04</pdfrwt>
<totfact> 0.22182293E+01</totfact>
</mgrwt>
</event>
<event>
 6    1  0.2436515E-005  0.1042567E+04  0.7818608E-02  0.9263052E-01
         -2   -1    0    0    0  501 -0.00000000000E+00  0.00000000000E+00  0.13941745465E+03  0.13941745465E+03  0.00000000000E+00 0. -1.
          2   -1    0    0  501    0  0.00000000000E+00 -0.00000000000E+00 -0.19490855548E+04  0.19490855548E+04  0.00000000000E+00 0.  1.
         23    2    1    2    0    0  0.31362626039E+03  0.38659223846E+03 -0.63586956122E+03  0.81350575453E+03  0.98216718183E+02 0.  0.
         11    1    3    3    0    0  0.16129139115E+03  0.12256372954E+03 -0.25616695314E+03  0.32658580578E+03  0.00000000000E+00 0.  1.
        -11    1    3    3    0    0  0.15233486923E+03  0.26402850892E+03 -0.37970260808E+03  0.48691994875E+03  0.00000000000E+00 0. -1.
         22    1    1    2    0    0 -0.31362626039E+03 -0.38659223846E+03 -0.11737985389E+04  0.12749972549E+04  0.00000000000E+00 0.  1.
<mgrwt>
<rscale>  0 0.10425671E+04</rscale>
<asrwt>0</asrwt>
<pdfrwt beam="1">  1        2 0.29985930E+00 0.10425671E+04</pdfrwt>
<pdfrwt beam="2">  1       -2 0.21448841E-01 0.10425671E+04</pdfrwt>
<totfact> 0.13449955E+02</totfact>
</mgrwt>
</event>
<event>
 6    1  0.2436515E-005  0.1545465E+04  0.7818608E-02  0.8854770E-01
          2   -1    0    0  501    0  0.00000000000E+00  0.00000000000E+00  0.12164871521E+04  0.12164871521E+04  0.00000000000E+00 0.  1.
         -2   -1    0    0    0  501 -0.00000000000E+00 -0.00000000000E+00 -0.49085242341E+03  0.49085242341E+03  0.00000000000E+00 0. -1.
         23    2    1    2    0    0 -0.66911975475E+03 -0.37809143808E+03  0.41759372563E+03  0.87935186949E+03  0.90558317845E+02 0.  0.
         13    1    3    3    0    0 -0.43788379306E+03 -0.20031111734E+03  0.24228130674E+03  0.53904266208E+03  0.00000000000E+00 0.  1.
        -13    1    3    3    0    0 -0.23123596170E+03 -0.17778032075E+03  0.17531241889E+03  0.34030920740E+03  0.00000000000E+00 0. -1.
         22    1    1    2    0    0  0.66911975475E+03  0.37809143808E+03  0.30804100304E+03  0.82798770601E+03  0.00000000000E+00 0.  1.
<mgrwt>
<rscale>  0 0.15454652E+04</rscale>
<asrwt>0</asrwt>
<pdfrwt beam="1">  1        2 0.18715187E+00 0.15454652E+04</pdfrwt>
<pdfrwt beam="2">  1       -2 0.75515758E-01 0.15454652E+04</pdfrwt>
<totfact> 0.28042900E+01</totfact>
</mgrwt>
</event>
<event>
 6    1  0.3884615E-005  0.3112823E+04  0.7818608E-02  0.8212228E-01
          2   -1    0    0  501    0  0.00000000000E+00  0.00000000000E+00  0.19472832646E+04  0.19472832646E+04  0.00000000000E+00 0.  1.
         -2   -1    0    0    0  501 -0.00000000000E+00 -0.00000000000E+00 -0.12439978500E+04  0.12439978500E+04  0.00000000000E+00 0. -1.
         23    2    1    2    0    0  0.13909754208E+04  0.30656080671E+03  0.99156722391E+03  0.17380438487E+04  0.93801444731E+02 0.  0.
         11    1    3    3    0    0  0.67521517975E+03  0.19636122863E+03  0.49647675981E+03  0.86079175420E+03  0.00000000000E+00 0.  1.
        -11    1    3    3    0    0  0.71576024104E+03  0.11019957808E+03  0.49509046410E+03  0.87725209450E+03  0.00000000000E+00 0. -1.
         22    1    1    2    0    0 -0.13909754208E+04 -0.30656080671E+03 -0.28828180936E+03  0.14532372659E+04  0.00000000000E+00 0. -1.
<mgrwt>
<rscale>  0 0.31128226E+04</rscale>
<asrwt>0</asrwt>
<pdfrwt beam="1">  1        2 0.29958204E+00 0.31128226E+04</pdfrwt>
<pdfrwt beam="2">  1       -2 0.19138428E+00 0.31128226E+04</pdfrwt>
<totfact> 0.91987072E-01</totfact>
</mgrwt>
</event>
<event>
 6    1  0.2436515E-005  0.1561865E+04  0.7818608E-02  0.8844325E-01
         -2   -1    0    0    0  501 -0.00000000000E+00  0.00000000000E+00  0.38772091820E+03  0.38772091820E+03  0.00000000000E+00 0. -1.
          2   -1    0    0  501    0  0.00000000000E+00 -0.00000000000E+00 -0.15729235248E+04  0.15729235248E+04  0.00000000000E+00 0.  1.
         23    2    1    2    0    0 -0.41802161729E+03 -0.60697555328E+03 -0.28074103781E+03  0.79393448578E+03  0.91405922116E+02 0.  0.
         11    1    3    3    0    0 -0.14222432666E+03 -0.28393924940E+03 -0.13163242648E+03  0.34376787538E+03  0.00000000000E+00 0. -1.
        -11    1    3    3    0    0 -0.27579729063E+03 -0.32303630388E+03 -0.14910861133E+03  0.45016661040E+03  0.00000000000E+00 0.  1.
         22    1    1    2    0    0  0.41802161729E+03  0.60697555328E+03 -0.90446156874E+03  0.11667099572E+04  0.00000000000E+00 0.  1.
<mgrwt>
<rscale>  0 0.15618647E+04</rscale>
<asrwt>0</asrwt>
<pdfrwt beam="1">  1        2 0.24198824E+00 0.15618647E+04</pdfrwt>
<pdfrwt beam="2">  1       -2 0.59649372E-01 0.15618647E+04</pdfrwt>
<totfact> 0.29119874E+01</totfact>
</mgrwt>
</event>
<event>
 6    1  0.2436515E-005  0.2920656E+04  0.7818608E-02  0.8266758E-01
         -2   -1    0    0    0  501 -0.00000000000E+00  0.00000000000E+00  0.15635653567E+04  0.15635653567E+04  0.00000000000E+00 0. -1.
          2   -1    0    0  501    0  0.00000000000E+00 -0.00000000000E+00 -0.13639071254E+04  0.13639071254E+04  0.00000000000E+00 0.  1.
         23    2    1    2    0    0 -0.33091541728E+03  0.35707820698E+03 -0.12785229811E+04  0.13711853762E+04  0.92295522248E+02 0.  0.
         11    1    3    3    0    0 -0.83809813279E+02  0.54495507157E+02 -0.19022521372E+03  0.21489410657E+03  0.00000000000E+00 0. -1.
        -11    1    3    3    0    0 -0.24710560400E+03  0.30258269983E+03 -0.10882977674E+04  0.11562912696E+04  0.00000000000E+00 0.  1.
         22    1    1    2    0    0  0.33091541728E+03 -0.35707820698E+03  0.14781812124E+04  0.15562871059E+04  0.00000000000E+00 0. -1.
<mgrwt>
<rscale>  0 0.29206560E+04</rscale>
<asrwt>0</asrwt>
<pdfrwt beam="1">  1        2 0.20983187E+00 0.29206560E+04</pdfrwt>
<pdfrwt beam="2">  1       -2 0.24054852E+00 0.29206560E+04</pdfrwt>
<totfact> 0.96123094E-01</totfact>
</mgrwt>
</event>
<event>
 6    1  0.2436515E-005  0.1775763E+04  0.7818608E-02  0.8719296E-01
          2   -1    0    0  501    0  0.00000000000E+00  0.00000000000E+00  0.17061888730E+04  0.17061888730E+04  0.00000000000E+00 0.  1.
         -2   -1    0    0    0  501 -0.00000000000E+00 -0.00000000000E+00 -0.46204340163E+03  0.46204340163E+03  0.00000000000E+00 0. -1.
         23    2    1    2    0    0  0.26024768832E+03 -0.79632776885E+03  0.97281360583E+03  0.12876144484E+04  0.98579314275E+02 0.  0.
         13    1    3    3    0    0  0.11926943013E+03 -0.33468807969E+03  0.48641679453E+03  0.60236418026E+03  0.00000000000E+00 0.  1.
        -13    1    3    3    0    0  0.14097825819E+03 -0.46163968916E+03  0.48639681130E+03  0.68525026810E+03  0.00000000000E+00 0. -1.
         22    1    1    2    0    0 -0.26024768832E+03  0.79632776885E+03  0.27133186557E+03  0.88061782630E+03  0.00000000000E+00 0. -1.
<mgrwt>
<rscale>  0 0.17757627E+04</rscale>
<asrwt>0</asrwt>
<pdfrwt beam="1">  1        2 0.26249059E+00 0.17757627E+04</pdfrwt>
<pdfrwt beam="2">  1       -2 0.71083601E-01 0.17757627E+04</pdfrwt>
<totfact> 0.16539865E+01</totfact>
</mgrwt>
</event>
<event>
 6    1  0.2436515E-005  0.1263629E+04  0.7818608E-02  0.9058915E-01
         -2   -1    0    0    0  501 -0.00000000000E+00  0.00000000000E+00  0.78058331527E+03  0.78058331527E+03  0.00000000000E+00 0. -1.
          2   -1    0    0  501    0  0.00000000000E+00 -0.00000000000E+00 -0.51139910896E+03  0.51139910896E+03  0.00000000000E+00 0.  1.
         23    2    1    2    0    0  0.12750664761E+03  0.61526739910E+03  0.12107182509E+03  0.64642127682E+03  0.91597831342E+02 0.  0.
         13    1    3    3    0    0  0.10198546040E+02  0.99719013177E+02 -0.12685083274E+02  0.10103862266E+03  0.00000000000E+00 0. -1.
        -13    1    3    3    0    0  0.11730810157E+03  0.51554838593E+03  0.13375690837E+03  0.54538265416E+03  0.00000000000E+00 0.  1.
         22    1    1    2    0    0 -0.12750664761E+03 -0.61526739910E+03  0.14811238121E+03  0.64556114742E+03  0.00000000000E+00 0.  1.
<mgrwt>
<rscale>  0 0.12636291E+04</rscale>
<asrwt>0</asrwt>
<pdfrwt beam="1">  1        2 0.78676786E-01 0.12636291E+04</pdfrwt>
<pdfrwt beam="2">  1       -2 0.12008974E+00 0.12636291E+04</pdfrwt>
<totfact> 0.31228313E+01</totfact>
</mgrwt>
</event>
<event>
 6    1  0.2436515E-005  0.1727446E+04  0.7818608E-02  0.8745864E-01
         -2   -1    0    0    0  501 -0.00000000000E+00  0.00000000000E+00  0.36875001207E+03  0.36875001207E+03  0.00000000000E+00 0. -1.
          2   -1    0    0  501    0  0.00000000000E+00 -0.00000000000E+00 -0.20230983347E+04  0.20230983347E+04  0.00000000000E+00 0.  1.
         23    2    1    2    0    0 -0.49565364976E+03 -0.69473283208E+03 -0.97581382274E+03  0.13015569563E+04  0.11623960360E+03 0.  0.
         11    1    3    3    0    0 -0.14093277846E+03 -0.21969868449E+03 -0.22287295132E+03  0.34322283205E+03  0.00000000000E+00 0. -1.
        -11    1    3    3    0    0 -0.35472087129E+03 -0.47503414759E+03 -0.75294087143E+03  0.95833412429E+03  0.00000000000E+00 0.  1.
         22    1    1    2    0    0  0.49565364976E+03  0.69473283208E+03 -0.67853449984E+03  0.10902913904E+04  0.00000000000E+00 0. -1.
<mgrwt>
<rscale>  0 0.17274461E+04</rscale>
<asrwt>0</asrwt>
<pdfrwt beam="1">  1        2 0.31124590E+00 0.17274461E+04</pdfrwt>
<pdfrwt beam="2">  1       -2 0.56730771E-01 0.17274461E+04</pdfrwt>
<totfact> 0.17949648E+01</totfact>
</mgrwt>
</event>
<event>
 6    1  0.2436515E-005  0.4804162E+04  0.7818608E-02  0.7859448E-01
          2   -1    0    0  501    0  0.00000000000E+00  0.00000000000E+00  0.21201696326E+04  0.21201696326E+04  0.00000000000E+00 0.  1.
         -2   -1    0    0    0  501 -0.00000000000E+00 -0.00000000000E+00 -0.27214770803E+04  0.27214770803E+04  0.00000000000E+00 0. -1.
         23    2    1    2    0    0 -0.95068614475E+03 -0.21921156662E+04 -0.54057746864E+03  0.24514870174E+04  0.91593433406E+02 0.  0.
         13    1    3    3    0    0 -0.36904253870E+03 -0.91054010390E+03 -0.18299072097E+03  0.99938044815E+03  0.00000000000E+00 0.  1.
        -13    1    3    3    0    0 -0.58164360605E+03 -0.12815755623E+04 -0.35758674766E+03  0.14521065692E+04  0.00000000000E+00 0. -1.
         22    1    1    2    0    0  0.95068614475E+03  0.21921156662E+04 -0.60729979075E+02  0.23901596955E+04  0.00000000000E+00 0.  1.
<mgrwt>
<rscale>  0 0.48041620E+04</rscale>
<asrwt>0</asrwt>
<pdfrwt beam="1">  1        2 0.32617994E+00 0.48041620E+04</pdfrwt>
<pdfrwt beam="2">  1       -2 0.41868878E+00 0.48041620E+04</pdfrwt>
<totfact> 0.23700522E-02</totfact>
</mgrwt>
</event>
<event>
 6    1  0.2436515E-005  0.4594344E+03  0.7818608E-02  0.1024945E+00
         -2   -1    0    0    0  501 -0.00000000000E+00  0.00000000000E+00  0.33609001276E+02  0.33609001276E+02  0.00000000000E+00 0. -1.
          2   -1    0    0  501    0  0.00000000000E+00 -0.00000000000E+00 -0.15701149634E+04  0.15701149634E+04  0.00000000000E+00 0.  1.
         23    2    1    2    0    0 -0.14241987383E+03  0.14453751776E+03 -0.11008872654E+04  0.11231637047E+04  0.91484545224E+02 0.  0.
         11    1    3    3    0    0 -0.95205913865E+02  0.37738160616E+02 -0.61308633738E+03  0.62158120296E+03  0.00000000000E+00 0. -1.
        -11    1    3    3    0    0 -0.47213959963E+02  0.10679935715E+03 -0.48780092800E+03  0.50158250175E+03  0.00000000000E+00 0.  1.
         22    1    1    2    0    0  0.14241987383E+03 -0.14453751776E+03 -0.43561869678E+03  0.48056026000E+03  0.00000000000E+00 0. -1.
<mgrwt>
<rscale>  0 0.45943442E+03</rscale>
<asrwt>0</asrwt>
<pdfrwt beam="1">  1        2 0.24155612E+00 0.45943442E+03</pdfrwt>
<pdfrwt beam="2">  1       -2 0.51706162E-02 0.45943442E+03</pdfrwt>
<totfact> 0.23184360E+03</totfact>
</mgrwt>
</event>
<event>
 6    1  0.2436515E-005  0.4034586E+04  0.7818608E-02  0.7997606E-01
         -2   -1    0    0    0  501 -0.00000000000E+00  0.00000000000E+00  0.21183549811E+04  0.21183549811E+04  0.00000000000E+00 0. -1.
          2   -1    0    0  501    0  0.00000000000E+00 -0.00000000000E+00 -0.19210524659E+04  0.19210524659E+04  0.00000000000E+00 0.  1.
         23    2    1    2    0    0 -0.15935044507E+04  0.10173471863E+04 -0.60319185842E+03  0.19863504643E+04  0.86579540954E+02 0.  0.
         11    1    3    3    0    0 -0.13030696325E+04  0.86977721304E+03 -0.50666623580E+03  0.16465763092E+04  0.00000000000E+00 0. -1.
        -11    1    3    3    0    0 -0.29043481826E+03  0.14756997327E+03 -0.96525622624E+02  0.33977415513E+03  0.00000000000E+00 0.  1.
         22    1    1    2    0    0  0.15935044507E+04 -0.10173471863E+04  0.80049437355E+03  0.20530569827E+04  0.00000000000E+00 0. -1.
<mgrwt>
<rscale>  0 0.40345860E+04</rscale>
<asrwt>0</asrwt>
<pdfrwt beam="1">  1        2 0.29554654E+00 0.40345860E+04</pdfrwt>
<pdfrwt beam="2">  1       -2 0.32590076E+00 0.40345860E+04</pdfrwt>
<totfact> 0.12798825E-01</totfact>
</mgrwt>
</event>
<event>
 6    1  0.2436515E-005  0.5082756E+04  0.7818608E-02  0.7815867E-01
         -2   -1    0    0    0  501 -0.00000000000E+00  0.00000000000E+00  0.15301507964E+04  0.15301507964E+04  0.00000000000E+00 0. -1.
          2   -1    0    0  501    0  0.00000000000E+00 -0.00000000000E+00 -0.42208921939E+04  0.42208921939E+04  0.00000000000E+00 0.  1.
         23    2    1    2    0    0  0.54696323528E+03 -0.20600829512E+04  0.21862660911E+03  0.21444472624E+04  0.88010910847E+02 0.  0.
         13    1    3    3    0    0  0.38591475875E+03 -0.13132779028E+04  0.16245214965E+03  0.13784120399E+04  0.00000000000E+00 0. -1.
        -13    1    3    3    0    0  0.16104847653E+03 -0.74680504844E+03  0.56174459464E+02  0.76603522247E+03  0.00000000000E+00 0.  1.
         22    1    1    2    0    0 -0.54696323528E+03  0.20600829512E+04 -0.29093680066E+04  0.36065957279E+04  0.00000000000E+00 0.  1.
<mgrwt>
<rscale>  0 0.50827558E+04</rscale>
<asrwt>0</asrwt>
<pdfrwt beam="1">  1        2 0.64936802E+00 0.50827558E+04</pdfrwt>
<pdfrwt beam="2">  1       -2 0.23540782E+00 0.50827558E+04</pdfrwt>
<totfact> 0.12672850E-02</totfact>
</mgrwt>
</event>
<event>
 6    1  0.2436515E-005  0.1855446E+04  0.7818608E-02  0.8677357E-01
         -2   -1    0    0    0  501 -0.00000000000E+00  0.00000000000E+00  0.27145132864E+03  0.27145132864E+03  0.00000000000E+00 0. -1.
          2   -1    0    0  501    0  0.00000000000E+00 -0.00000000000E+00 -0.31706231365E+04  0.31706231365E+04  0.00000000000E+00 0.  1.
         23    2    1    2    0    0  0.47241838456E+03  0.20832201565E+03 -0.28471484732E+02  0.52531298407E+03  0.92552220425E+02 0.  0.
         13    1    3    3    0    0  0.18955070036E+03  0.13380112374E+03 -0.13606117389E+02  0.23241629709E+03  0.00000000000E+00 0.  1.
        -13    1    3    3    0    0  0.28286768420E+03  0.74520891918E+02 -0.14865367343E+02  0.29289668698E+03  0.00000000000E+00 0. -1.
         22    1    1    2    0    0 -0.47241838456E+03 -0.20832201565E+03 -0.28707003232E+04  0.29167614811E+04  0.00000000000E+00 0.  1.
<mgrwt>
<rscale>  0 0.18554459E+04</rscale>
<asrwt>0</asrwt>
<pdfrwt beam="1">  1        2 0.48778817E+00 0.18554459E+04</pdfrwt>
<pdfrwt beam="2">  1       -2 0.41761744E-01 0.18554459E+04</pdfrwt>
<totfact> 0.69520280E+00</totfact>
</mgrwt>
</event>
<event>
 6    1  0.2436515E-005  0.4343279E+03  0.7818608E-02  0.1032501E+00
         -2   -1    0    0    0  501 -0.00000000000E+00  0.00000000000E+00  0.43626069851E+02  0.43626069851E+02  0.00000000000E+00 0.  1.
          2   -1    0    0  501    0  0.00000000000E+00 -0.00000000000E+00 -0.10810090960E+04  0.10810090960E+04  0.00000000000E+00 0. -1.
         23    2    1    2    0    0 -0.11718158290E+03 -0.10037130202E+03 -0.18009538840E+03  0.25357373548E+03  0.89773987113E+02 0.  0.
         13    1    3    3    0    0 -0.98895935592E+02 -0.30129264513E+02 -0.12636327768E+03  0.16326621390E+03  0.00000000000E+00 0.  1.
        -13    1    3    3    0    0 -0.18285647309E+02 -0.70242037511E+02 -0.53732110727E+02  0.90307521582E+02  0.00000000000E+00 0. -1.
         22    1    1    2    0    0  0.11718158290E+03  0.10037130202E+03 -0.85728763776E+03  0.87106143038E+03  0.00000000000E+00 0. -1.
<mgrwt>
<rscale>  0 0.43432789E+03</rscale>
<asrwt>0</asrwt>
<pdfrwt beam="1">  1        2 0.16630909E+00 0.43432789E+03</pdfrwt>
<pdfrwt beam="2">  1       -2 0.67117032E-02 0.43432789E+03</pdfrwt>
<totfact> 0.29247755E+03</totfact>
</mgrwt>
</event>
<event>
 6    1  0.2436515E-005  0.1653073E+04  0.7818608E-02  0.8788590E-01
          2   -1    0    0  501    0  0.00000000000E+00  0.00000000000E+00  0.14040288725E+04  0.14040288725E+04  0.00000000000E+00 0.  1.
         -2   -1    0    0    0  501 -0.00000000000E+00 -0.00000000000E+00 -0.48657319884E+03  0.48657319884E+03  0.00000000000E+00 0. -1.
         23    2    1    2    0    0  0.58517535570E+03  0.53125240526E+03  0.72645446896E+03  0.10774964354E+04  0.92753209052E+02 0.  0.
         11    1    3    3    0    0  0.49889014494E+03  0.49225710698E+03  0.63148648446E+03  0.94338942973E+03  0.00000000000E+00 0. -1.
        -11    1    3    3    0    0  0.86285210758E+02  0.38995298280E+02  0.94967984505E+02  0.13410700565E+03  0.00000000000E+00 0.  1.
         22    1    1    2    0    0 -0.58517535570E+03 -0.53125240526E+03  0.19100120469E+03  0.81310563594E+03  0.00000000000E+00 0. -1.
<mgrwt>
<rscale>  0 0.16530733E+04</rscale>
<asrwt>0</asrwt>
<pdfrwt beam="1">  1        2 0.21600444E+00 0.16530733E+04</pdfrwt>
<pdfrwt beam="2">  1       -2 0.74857416E-01 0.16530733E+04</pdfrwt>
<totfact> 0.22043595E+01</totfact>
</mgrwt>
</event>
<event>
 6    1  0.2436515E-005  0.1067879E+04  0.7818608E-02  0.9237078E-01
         -2   -1    0    0    0  501 -0.00000000000E+00  0.00000000000E+00  0.16352763155E+04  0.16352763155E+04  0.00000000000E+00 0. -1.
          2   -1    0    0  501    0  0.00000000000E+00 -0.00000000000E+00 -0.17433819670E+03  0.17433819670E+03  0.00000000000E+00 0.  1.
         23    2    1    2    0    0  0.19273167838E+03 -0.46411661165E+03  0.45310543160E+03  0.68343670455E+03  0.96080528260E+02 0.  0.
         13    1    3    3    0    0  0.11507956455E+03 -0.17237845376E+03  0.15177800431E+03  0.25689336327E+03  0.00000000000E+00 0. -1.
        -13    1    3    3    0    0  0.77652113837E+02 -0.29173815789E+03  0.30132742730E+03  0.42654334128E+03  0.00000000000E+00 0.  1.
         22    1    1    2    0    0 -0.19273167838E+03  0.46411661165E+03  0.10078326872E+04  0.11261778076E+04  0.00000000000E+00 0.  1.
<mgrwt>
<rscale>  0 0.10678785E+04</rscale>
<asrwt>0</asrwt>
<pdfrwt beam="1">  1        2 0.26821262E-01 0.10678785E+04</pdfrwt>
<pdfrwt beam="2">  1       -2 0.25158096E+00 0.10678785E+04</pdfrwt>
<totfact> 0.12714449E+01</totfact>
</mgrwt>
</event>
<event>
 6    1  0.2436515E-005  0.2483017E+04  0.7818608E-02  0.8409061E-01
         -2   -1    0    0    0  501 -0.00000000000E+00  0.00000000000E+00  0.20151809751E+04  0.20151809751E+04  0.00000000000E+00 0. -1.
          2   -1    0    0  501    0  0.00000000000E+00 -0.00000000000E+00 -0.76486588420E+03  0.76486588420E+03  0.00000000000E+00 0.  1.
         23    2    1    2    0    0  0.20524101260E+03 -0.44831998576E+03 -0.64753332208E+03  0.81919416684E+03  0.93085965064E+02 0.  0.
         13    1    3    3    0    0  0.13204342982E+02 -0.12482182208E+03 -0.15679598616E+03  0.20084776129E+03  0.00000000000E+00 0. -1.
        -13    1    3    3    0    0  0.19203666962E+03 -0.32349816368E+03 -0.49073733592E+03  0.61834640555E+03  0.00000000000E+00 0.  1.
         22    1    1    2    0    0 -0.20524101260E+03  0.44831998576E+03  0.18978484130E+04  0.19608526924E+04  0.00000000000E+00 0. -1.
<mgrwt>
<rscale>  0 0.24830169E+04</rscale>
<asrwt>0</asrwt>
<pdfrwt beam="1">  1        2 0.11767168E+00 0.24830169E+04</pdfrwt>
<pdfrwt beam="2">  1       -2 0.31002784E+00 0.24830169E+04</pdfrwt>
<totfact> 0.90075577E-01</totfact>
</mgrwt>
</event>
<event>
 6    1  0.2436515E-005  0.4599281E+04  0.7818608E-02  0.7893482E-01
          2   -1    0    0  501    0  0.00000000000E+00  0.00000000000E+00  0.20857962875E+04  0.20857962875E+04  0.00000000000E+00 0.  1.
         -2   -1    0    0    0  501 -0.00000000000E+00 -0.00000000000E+00 -0.25354092887E+04  0.25354092887E+04  0.00000000000E+00 0. -1.
         23    2    1    2    0    0  0.10247603690E+04  0.18911678840E+04  0.58982004921E+03  0.22322579323E+04  0.91858622927E+02 0.  0.
         11    1    3    3    0    0  0.28434937810E+03  0.55172311475E+03  0.21144391089E+03  0.65571448941E+03  0.00000000000E+00 0. -1.
        -11    1    3    3    0    0  0.74041099094E+03  0.13394447692E+04  0.37837613833E+03  0.15765434429E+04  0.00000000000E+00 0.  1.
         22    1    1    2    0    0 -0.10247603690E+04 -0.18911678840E+04 -0.10394330504E+04  0.23889476439E+04  0.00000000000E+00 0. -1.
<mgrwt>
<rscale>  0 0.45992814E+04</rscale>
<asrwt>0</asrwt>
<pdfrwt beam="1">  1        2 0.32089173E+00 0.45992814E+04</pdfrwt>
<pdfrwt beam="2">  1       -2 0.39006297E+00 0.45992814E+04</pdfrwt>
<totfact> 0.38765737E-02</totfact>
</mgrwt>
</event>
<event>
 6    1  0.2436515E-005  0.1130507E+04  0.7818608E-02  0.9175957E-01
          2   -1    0    0  501    0  0.00000000000E+00  0.00000000000E+00  0.12435938938E+04  0.12435938938E+04  0.00000000000E+00 0.  1.
         -2   -1    0    0    0  501 -0.00000000000E+00 -0.00000000000E+00 -0.25692597781E+03  0.25692597781E+03  0.00000000000E+00 0. -1.
         23    2    1    2    0    0 -0.21260728513E+03  0.50440036955E+03  0.66256343203E+03  0.86438678252E+03  0.92480364611E+02 0.  0.
         11    1    3    3    0    0 -0.66193176637E+02  0.19940676822E+03  0.19050511551E+03  0.28361381292E+03  0.00000000000E+00 0.  1.
        -11    1    3    3    0    0 -0.14641410849E+03  0.30499360133E+03  0.47205831653E+03  0.58077296960E+03  0.00000000000E+00 0. -1.
         22    1    1    2    0    0  0.21260728513E+03 -0.50440036955E+03  0.32410448392E+03  0.63613308906E+03  0.00000000000E+00 0. -1.
<mgrwt>
<rscale>  0 0.11305071E+04</rscale>
<asrwt>0</asrwt>
<pdfrwt beam="1">  1        2 0.19132213E+00 0.11305071E+04</pdfrwt>
<pdfrwt beam="2">  1       -2 0.39527074E-01 0.11305071E+04</pdfrwt>
<totfact> 0.10696463E+02</totfact>
</mgrwt>
</event>
<event>
 6    1  0.2436515E-005  0.8463032E+03  0.7818608E-02  0.9495312E-01
         -2   -1    0    0    0  501 -0.00000000000E+00  0.00000000000E+00  0.53010861653E+03  0.53010861653E+03  0.00000000000E+00 0. -1.
          2   -1    0    0  501    0  0.00000000000E+00 -0.00000000000E+00 -0.33777472571E+03  0.33777472571E+03  0.00000000000E+00 0.  1.
         23    2    1    2    0    0 -0.38089699052E+03 -0.14775262114E+03  0.54140846002E+01  0.41860350917E+03  0.91028737977E+02 0.  0.
         13    1    3    3    0    0 -0.24941372050E+03 -0.14150777237E+03 -0.19330785089E+01  0.28676713621E+03  0.00000000000E+00 0. -1.
        -13    1    3    3    0    0 -0.13148327002E+03 -0.62448487697E+01  0.73471631091E+01  0.13183637297E+03  0.00000000000E+00 0.  1.
         22    1    1    2    0    0  0.38089699052E+03  0.14775262114E+03  0.18691980623E+03  0.44927983307E+03  0.00000000000E+00 0. -1.
<mgrwt>
<rscale>  0 0.84630324E+03</rscale>
<asrwt>0</asrwt>
<pdfrwt beam="1">  1        2 0.51965343E-01 0.84630324E+03</pdfrwt>
<pdfrwt beam="2">  1       -2 0.81555172E-01 0.84630324E+03</pdfrwt>
<totfact> 0.12804647E+02</totfact>
</mgrwt>
</event>
<event>
 6    1  0.2436515E-005  0.1676008E+04  0.7818608E-02  0.8775167E-01
          4   -1    0    0  501    0  0.00000000000E+00  0.00000000000E+00  0.28577292703E+03  0.28577292703E+03  0.00000000000E+00 0.  1.
         -4   -1    0    0    0  501 -0.00000000000E+00 -0.00000000000E+00 -0.24573734946E+04  0.24573734946E+04  0.00000000000E+00 0. -1.
         23    2    1    2    0    0 -0.72428626669E+02 -0.73552268940E+03 -0.17271079488E+04  0.18807003533E+04  0.88839291826E+02 0.  0.
         11    1    3    3    0    0  0.14852870393E+01 -0.34376962847E+03 -0.86809681885E+03  0.93368723373E+03  0.00000000000E+00 0. -1.
        -11    1    3    3    0    0 -0.73913913709E+02 -0.39175306093E+03 -0.85901112992E+03  0.94701311961E+03  0.00000000000E+00 0.  1.
         22    1    1    2    0    0  0.72428626669E+02  0.73552268940E+03 -0.44449261883E+03  0.86244606833E+03  0.00000000000E+00 0.  1.
<mgrwt>
<rscale>  0 0.16760081E+04</rscale>
<asrwt>0</asrwt>
<pdfrwt beam="1">  1        4 0.43965066E-01 0.16760081E+04</pdfrwt>
<pdfrwt beam="2">  1       -4 0.37805746E+00 0.16760081E+04</pdfrwt>
<totfact> 0.93550903E-02</totfact>
</mgrwt>
</event>
<event>
 6    1  0.2436515E-005  0.5486626E+03  0.7818608E-02  0.1001804E+00
          2   -1    0    0  501    0  0.00000000000E+00  0.00000000000E+00  0.19477649942E+04  0.19477649942E+04  0.00000000000E+00 0.  1.
         -2   -1    0    0    0  501 -0.00000000000E+00 -0.00000000000E+00 -0.38637955639E+02  0.38637955639E+02  0.00000000000E+00 0. -1.
         23    2    1    2    0    0 -0.81674069076E+02  0.25438671474E+03  0.10069748657E+04  0.10455194303E+04  0.87916124474E+02 0.  0.
         13    1    3    3    0    0 -0.31074340922E+02  0.12273491892E+03  0.31840580756E+03  0.34265395558E+03  0.00000000000E+00 0. -1.
        -13    1    3    3    0    0 -0.50599728154E+02  0.13165179582E+03  0.68856905811E+03  0.70286547476E+03  0.00000000000E+00 0.  1.
         22    1    1    2    0    0  0.81674069076E+02 -0.25438671474E+03  0.90215217287E+03  0.94088351947E+03  0.00000000000E+00 0. -1.
<mgrwt>
<rscale>  0 0.54866258E+03</rscale>
<asrwt>0</asrwt>
<pdfrwt beam="1">  1        2 0.29965608E+00 0.54866258E+03</pdfrwt>
<pdfrwt beam="2">  1       -2 0.59443024E-02 0.54866258E+03</pdfrwt>
<totfact> 0.11633106E+03</totfact>
</mgrwt>
</event>
<event>
 6    1  0.2436515E-005  0.1638473E+04  0.7818608E-02  0.8797255E-01
         -2   -1    0    0    0  501 -0.00000000000E+00  0.00000000000E+00  0.21829625730E+03  0.21829625730E+03  0.00000000000E+00 0. -1.
          2   -1    0    0  501    0  0.00000000000E+00 -0.00000000000E+00 -0.30744843292E+04  0.30744843292E+04  0.00000000000E+00 0.  1.
         23    2    1    2    0    0  0.56312265590E+03 -0.40788715799E+03 -0.57170857088E+03  0.90482630514E+03  0.91547218558E+02 0.  0.
         11    1    3    3    0    0  0.32975379471E+03 -0.24322877980E+03 -0.39396591159E+03  0.56842496774E+03  0.00000000000E+00 0. -1.
        -11    1    3    3    0    0  0.23336886119E+03 -0.16465837819E+03 -0.17774265929E+03  0.33640133741E+03  0.00000000000E+00 0.  1.
         22    1    1    2    0    0 -0.56312265590E+03  0.40788715799E+03 -0.22844795010E+04  0.23879542813E+04  0.00000000000E+00 0.  1.
<mgrwt>
<rscale>  0 0.16384730E+04</rscale>
<asrwt>0</asrwt>
<pdfrwt beam="1">  1        2 0.47299754E+00 0.16384730E+04</pdfrwt>
<pdfrwt beam="2">  1       -2 0.33584043E-01 0.16384730E+04</pdfrwt>
<totfact> 0.12459392E+01</totfact>
</mgrwt>
</event>
<event>
 6    1  0.2436515E-005  0.5158449E+04  0.7818608E-02  0.7804519E-01
         -2   -1    0    0    0  501 -0.00000000000E+00  0.00000000000E+00  0.20205162944E+04  0.20205162944E+04  0.00000000000E+00 0. -1.
          2   -1    0    0  501    0  0.00000000000E+00 -0.00000000000E+00 -0.32924256272E+04  0.32924256272E+04  0.00000000000E+00 0.  1.
         23    2    1    2    0    0 -0.17443954212E+04  0.15873807373E+04 -0.17091505822E+04  0.29142187403E+04  0.93713196590E+02 0.  0.
         11    1    3    3    0    0 -0.34073461171E+03  0.36169724144E+03 -0.36028054905E+03  0.61378094147E+03  0.00000000000E+00 0. -1.
        -11    1    3    3    0    0 -0.14036608095E+04  0.12256834958E+04 -0.13488700331E+04  0.23004377988E+04  0.00000000000E+00 0.  1.
         22    1    1    2    0    0  0.17443954212E+04 -0.15873807373E+04  0.43724124940E+03  0.23987231814E+04  0.00000000000E+00 0. -1.
<mgrwt>
<rscale>  0 0.51584492E+04</rscale>
<asrwt>0</asrwt>
<pdfrwt beam="1">  1        2 0.50652701E+00 0.51584492E+04</pdfrwt>
<pdfrwt beam="2">  1       -2 0.31084867E+00 0.51584492E+04</pdfrwt>
<totfact> 0.22062492E-02</totfact>
</mgrwt>
</event>
<event>
 6    1  0.2436515E-005  0.3550590E+04  0.7818608E-02  0.8101904E-01
         -2   -1    0    0    0  501 -0.00000000000E+00  0.00000000000E+00  0.85351413675E+03  0.85351413675E+03  0.00000000000E+00 0. -1.
          2   -1    0    0  501    0  0.00000000000E+00 -0.00000000000E+00 -0.36925841700E+04  0.36925841700E+04  0.00000000000E+00 0.  1.
         23    2    1    2    0    0 -0.15768802961E+04 -0.12273260579E+03 -0.39117566793E+03  0.16316855727E+04  0.88117219587E+02 0.  0.
         13    1    3    3    0    0 -0.71108410292E+03 -0.85180745343E+02 -0.14382907601E+03  0.73046777061E+03  0.00000000000E+00 0. -1.
        -13    1    3    3    0    0 -0.86579619314E+03 -0.37551860451E+02 -0.24734659193E+03  0.90121780210E+03  0.00000000000E+00 0.  1.
         22    1    1    2    0    0  0.15768802961E+04  0.12273260579E+03 -0.24478943654E+04  0.29144127341E+04  0.00000000000E+00 0.  1.
<mgrwt>
<rscale>  0 0.35505903E+04</rscale>
<asrwt>0</asrwt>
<pdfrwt beam="1">  1        2 0.56808985E+00 0.35505903E+04</pdfrwt>
<pdfrwt beam="2">  1       -2 0.13130987E+00 0.35505903E+04</pdfrwt>
<totfact> 0.20438033E-01</totfact>
</mgrwt>
</event>
<event>
 6    1  0.2436515E-005  0.5681237E+04  0.7818608E-02  0.7731232E-01
          2   -1    0    0  501    0  0.00000000000E+00  0.00000000000E+00  0.20643457252E+04  0.20643457252E+04  0.00000000000E+00 0.  1.
         -2   -1    0    0    0  501 -0.00000000000E+00 -0.00000000000E+00 -0.39087991598E+04  0.39087991598E+04  0.00000000000E+00 0. -1.
         23    2    1    2    0    0 -0.22661677139E+04 -0.11456770254E+04  0.41439614089E+03  0.25745432080E+04  0.91959851580E+02 0.  0.
         11    1    3    3    0    0 -0.16740823526E+04 -0.88540868675E+03  0.28888451239E+03  0.19157125378E+04  0.00000000000E+00 0.  1.
        -11    1    3    3    0    0 -0.59208536129E+03 -0.26026833861E+03  0.12551162850E+03  0.65883067022E+03  0.00000000000E+00 0. -1.
         22    1    1    2    0    0  0.22661677139E+04  0.11456770254E+04 -0.22588495755E+04  0.33986016770E+04  0.00000000000E+00 0. -1.
<mgrwt>
<rscale>  0 0.56812368E+04</rscale>
<asrwt>0</asrwt>
<pdfrwt beam="1">  1        2 0.31759165E+00 0.56812368E+04</pdfrwt>
<pdfrwt beam="2">  1       -2 0.60135371E+00 0.56812368E+04</pdfrwt>
<totfact> 0.21666287E-03</totfact>
</mgrwt>
</event>
<event>
 6    1  0.2436515E-005  0.6469399E+03  0.7818608E-02  0.9812538E-01
          2   -1    0    0  501    0  0.00000000000E+00  0.00000000000E+00  0.26300868827E+03  0.26300868827E+03  0.00000000000E+00 0.  1.
         -2   -1    0    0    0  501 -0.00000000000E+00 -0.00000000000E+00 -0.39783020086E+03  0.39783020086E+03  0.00000000000E+00 0. -1.
         23    2    1    2    0    0  0.59180979661E+01 -0.15786377060E+03  0.21244730116E+03  0.27932660499E+03  0.89070211245E+02 0.  0.
         11    1    3    3    0    0  0.55219644423E+01 -0.13317196132E+03  0.10670019732E+03  0.17073428326E+03  0.00000000000E+00 0.  1.
        -11    1    3    3    0    0  0.39613352389E+00 -0.24691809285E+02  0.10574710384E+03  0.10859232173E+03  0.00000000000E+00 0. -1.
         22    1    1    2    0    0 -0.59180979661E+01  0.15786377060E+03 -0.34726881375E+03  0.38151228415E+03  0.00000000000E+00 0. -1.
<mgrwt>
<rscale>  0 0.64693987E+03</rscale>
<asrwt>0</asrwt>
<pdfrwt beam="1">  1        2 0.40462876E-01 0.64693987E+03</pdfrwt>
<pdfrwt beam="2">  1       -2 0.61204646E-01 0.64693987E+03</pdfrwt>
<totfact> 0.31888789E+02</totfact>
</mgrwt>
</event>
<event>
 6    1  0.2436515E-005  0.1382915E+04  0.7818608E-02  0.8966279E-01
         -2   -1    0    0    0  501 -0.00000000000E+00  0.00000000000E+00  0.19727422351E+03  0.19727422351E+03  0.00000000000E+00 0. -1.
          2   -1    0    0  501    0  0.00000000000E+00 -0.00000000000E+00 -0.24235990336E+04  0.24235990336E+04  0.00000000000E+00 0.  1.
         23    2    1    2    0    0  0.16787301108E+03 -0.35319402318E+03 -0.21918472063E+04  0.22282970594E+04  0.90477859519E+02 0.  0.
         11    1    3    3    0    0  0.35008791530E+02 -0.15987469537E+03 -0.10409941420E+04  0.10537809722E+04  0.00000000000E+00 0. -1.
        -11    1    3    3    0    0  0.13286421955E+03 -0.19331932781E+03 -0.11508530643E+04  0.11745160871E+04  0.00000000000E+00 0.  1.
         22    1    1    2    0    0 -0.16787301108E+03  0.35319402318E+03 -0.34477603741E+02  0.39257619772E+03  0.00000000000E+00 0. -1.
<mgrwt>
<rscale>  0 0.13829152E+04</rscale>
<asrwt>0</asrwt>
<pdfrwt beam="1">  1        2 0.37286139E+00 0.13829152E+04</pdfrwt>
<pdfrwt beam="2">  1       -2 0.30349881E-01 0.13829152E+04</pdfrwt>
<totfact> 0.37801343E+01</totfact>
</mgrwt>
</event>
<event>
 6    1  0.2436515E-005  0.1441528E+04  0.7818608E-02  0.8924295E-01
          2   -1    0    0  501    0  0.00000000000E+00  0.00000000000E+00  0.69539702879E+03  0.69539702879E+03  0.00000000000E+00 0.  1.
         -2   -1    0    0    0  501 -0.00000000000E+00 -0.00000000000E+00 -0.74705628456E+03  0.74705628456E+03  0.00000000000E+00 0. -1.
         23    2    1    2    0    0  0.13750520280E+03  0.44813832532E+03  0.51801117171E+03  0.70471349786E+03  0.92465672746E+02 0.  0.
         11    1    3    3    0    0  0.50921376902E+02  0.26619026223E+03  0.34793898162E+03  0.44103489348E+03  0.00000000000E+00 0.  1.
        -11    1    3    3    0    0  0.86583825899E+02  0.18194806309E+03  0.17007219008E+03  0.26367860439E+03  0.00000000000E+00 0. -1.
         22    1    1    2    0    0 -0.13750520280E+03 -0.44813832532E+03 -0.56967042747E+03  0.73773981549E+03  0.00000000000E+00 0.  1.
<mgrwt>
<rscale>  0 0.14415280E+04</rscale>
<asrwt>0</asrwt>
<pdfrwt beam="1">  1        2 0.10698416E+00 0.14415280E+04</pdfrwt>
<pdfrwt beam="2">  1       -2 0.11493174E+00 0.14415280E+04</pdfrwt>
<totfact> 0.23674367E+01</totfact>
</mgrwt>
</event>
<event>
 6    1  0.2436515E-005  0.1334708E+04  0.7818608E-02  0.9002485E-01
         -2   -1    0    0    0  501 -0.00000000000E+00  0.00000000000E+00  0.30944256292E+03  0.30944256292E+03  0.00000000000E+00 0. -1.
          2   -1    0    0  501    0  0.00000000000E+00 -0.00000000000E+00 -0.14392374583E+04  0.14392374583E+04  0.00000000000E+00 0.  1.
         23    2    1    2    0    0  0.54290322330E+03  0.31520742035E+03 -0.28349325055E+03  0.69495989624E+03  0.92201987825E+02 0.  0.
         13    1    3    3    0    0  0.16053216326E+03  0.58276805225E+02 -0.47021921901E+02  0.17713786328E+03  0.00000000000E+00 0. -1.
        -13    1    3    3    0    0  0.38237106004E+03  0.25693061512E+03 -0.23647132865E+03  0.51782203296E+03  0.00000000000E+00 0.  1.
         22    1    1    2    0    0 -0.54290322330E+03 -0.31520742035E+03 -0.84630164479E+03  0.10537201249E+04  0.00000000000E+00 0.  1.
<mgrwt>
<rscale>  0 0.13347079E+04</rscale>
<asrwt>0</asrwt>
<pdfrwt beam="1">  1        2 0.22142115E+00 0.13347079E+04</pdfrwt>
<pdfrwt beam="2">  1       -2 0.47606548E-01 0.13347079E+04</pdfrwt>
<totfact> 0.56169551E+01</totfact>
</mgrwt>
</event>
<event>
 6    1  0.2436515E-005  0.2297146E+04  0.7818608E-02  0.8479047E-01
          2   -1    0    0  501    0  0.00000000000E+00  0.00000000000E+00  0.88236288283E+03  0.88236288283E+03  0.00000000000E+00 0.  1.
         -2   -1    0    0    0  501 -0.00000000000E+00 -0.00000000000E+00 -0.14950997044E+04  0.14950997044E+04  0.00000000000E+00 0. -1.
         23    2    1    2    0    0 -0.36727364006E+02  0.11444237078E+04 -0.24187033324E+03  0.11738860527E+04  0.91938481784E+02 0.  0.
         13    1    3    3    0    0 -0.50699037160E+02  0.68451002801E+03 -0.10921663568E+03  0.69501988772E+03  0.00000000000E+00 0.  1.
        -13    1    3    3    0    0  0.13971673154E+02  0.45991367978E+03 -0.13265369756E+03  0.47886616499E+03  0.00000000000E+00 0. -1.
         22    1    1    2    0    0  0.36727364006E+02 -0.11444237078E+04 -0.37086648830E+03  0.12035765345E+04  0.00000000000E+00 0. -1.
<mgrwt>
<rscale>  0 0.22971465E+04</rscale>
<asrwt>0</asrwt>
<pdfrwt beam="1">  1        2 0.13574814E+00 0.22971465E+04</pdfrwt>
<pdfrwt beam="2">  1       -2 0.23001534E+00 0.22971465E+04</pdfrwt>
<totfact> 0.23359922E+00</totfact>
</mgrwt>
</event>
<event>
 6    1  0.2436515E-005  0.1848716E+04  0.7818608E-02  0.8680813E-01
          2   -1    0    0  501    0  0.00000000000E+00  0.00000000000E+00  0.12211693123E+04  0.12211693123E+04  0.00000000000E+00 0.  1.
         -2   -1    0    0    0  501 -0.00000000000E+00 -0.00000000000E+00 -0.69968833485E+03  0.69968833485E+03  0.00000000000E+00 0. -1.
         23    2    1    2    0    0 -0.17342836638E+03  0.52071011115E+03 -0.50845725815E+03  0.75381472281E+03  0.92148981794E+02 0.  0.
         13    1    3    3    0    0  0.97934979881E+01  0.44169067748E+02 -0.52468375226E+02  0.69280224793E+02  0.00000000000E+00 0. -1.
        -13    1    3    3    0    0 -0.18322186437E+03  0.47654104340E+03 -0.45598888292E+03  0.68453449802E+03  0.00000000000E+00 0.  1.
         22    1    1    2    0    0  0.17342836638E+03 -0.52071011115E+03  0.10299382356E+04  0.11670429243E+04  0.00000000000E+00 0.  1.
<mgrwt>
<rscale>  0 0.18487162E+04</rscale>
<asrwt>0</asrwt>
<pdfrwt beam="1">  1        2 0.18787220E+00 0.18487162E+04</pdfrwt>
<pdfrwt beam="2">  1       -2 0.10764436E+00 0.18487162E+04</pdfrwt>
<totfact> 0.11980534E+01</totfact>
</mgrwt>
</event>
<event>
 6    1  0.2436515E-005  0.1803035E+04  0.7818608E-02  0.8704687E-01
         -2   -1    0    0    0  501 -0.00000000000E+00  0.00000000000E+00  0.43107557192E+03  0.43107557192E+03  0.00000000000E+00 0.  1.
          2   -1    0    0  501    0  0.00000000000E+00 -0.00000000000E+00 -0.18853622085E+04  0.18853622085E+04  0.00000000000E+00 0. -1.
         23    2    1    2    0    0 -0.50830348192E+03  0.73979811686E+03 -0.79508920659E+03  0.12027884033E+04  0.94124456264E+02 0.  0.
         11    1    3    3    0    0 -0.24021663705E+03  0.41054137020E+03 -0.37747063441E+03  0.60723334000E+03  0.00000000000E+00 0.  1.
        -11    1    3    3    0    0 -0.26808684486E+03  0.32925674666E+03 -0.41761857217E+03  0.59555506331E+03  0.00000000000E+00 0. -1.
         22    1    1    2    0    0  0.50830348192E+03 -0.73979811686E+03 -0.65919743001E+03  0.11136493771E+04  0.00000000000E+00 0.  1.
<mgrwt>
<rscale>  0 0.18030348E+04</rscale>
<asrwt>0</asrwt>
<pdfrwt beam="1">  1        2 0.29005572E+00 0.18030348E+04</pdfrwt>
<pdfrwt beam="2">  1       -2 0.66319319E-01 0.18030348E+04</pdfrwt>
<totfact> 0.15264669E+01</totfact>
</mgrwt>
</event>
<event>
 6    1  0.2436515E-005  0.3206863E+04  0.7818608E-02  0.8187007E-01
          2   -1    0    0  501    0  0.00000000000E+00  0.00000000000E+00  0.10803922724E+04  0.10803922724E+04  0.00000000000E+00 0.  1.
         -2   -1    0    0    0  501 -0.00000000000E+00 -0.00000000000E+00 -0.23796848439E+04  0.23796848439E+04  0.00000000000E+00 0. -1.
         23    2    1    2    0    0 -0.24533273190E+03  0.13677728917E+04 -0.15109134545E+04  0.20544547521E+04  0.83270816190E+02 0.  0.
         13    1    3    3    0    0 -0.14085311399E+03  0.96190180909E+03 -0.10228434905E+04  0.14111355343E+04  0.00000000000E+00 0. -1.
        -13    1    3    3    0    0 -0.10447961791E+03  0.40587108265E+03 -0.48806996402E+03  0.64331921786E+03  0.00000000000E+00 0.  1.
         22    1    1    2    0    0  0.24533273190E+03 -0.13677728917E+04  0.21162088292E+03  0.14056223642E+04  0.00000000000E+00 0. -1.
<mgrwt>
<rscale>  0 0.32068633E+04</rscale>
<asrwt>0</asrwt>
<pdfrwt beam="1">  1        2 0.16621420E+00 0.32068633E+04</pdfrwt>
<pdfrwt beam="2">  1       -2 0.36610536E+00 0.32068633E+04</pdfrwt>
<totfact> 0.23170910E-01</totfact>
</mgrwt>
</event>
<event>
 6    1  0.2436515E-005  0.2081428E+04  0.7818608E-02  0.8569469E-01
         -2   -1    0    0    0  501 -0.00000000000E+00  0.00000000000E+00  0.56038277858E+03  0.56038277858E+03  0.00000000000E+00 0. -1.
          2   -1    0    0  501    0  0.00000000000E+00 -0.00000000000E+00 -0.19327608042E+04  0.19327608042E+04  0.00000000000E+00 0.  1.
         23    2    1    2    0    0  0.10217227063E+04 -0.15280296173E+03 -0.81728039638E+03  0.13203693455E+04  0.90343392812E+02 0.  0.
         11    1    3    3    0    0  0.67293420430E+03 -0.70973543765E+02 -0.57384585962E+03  0.88722982244E+03  0.00000000000E+00 0. -1.
        -11    1    3    3    0    0  0.34878850197E+03 -0.81829417967E+02 -0.24343453676E+03  0.43313952306E+03  0.00000000000E+00 0.  1.
         22    1    1    2    0    0 -0.10217227063E+04  0.15280296173E+03 -0.55509762924E+03  0.11727742373E+04  0.00000000000E+00 0. -1.
<mgrwt>
<rscale>  0 0.20814282E+04</rscale>
<asrwt>0</asrwt>
<pdfrwt beam="1">  1        2 0.29734781E+00 0.20814282E+04</pdfrwt>
<pdfrwt beam="2">  1       -2 0.86212736E-01 0.20814282E+04</pdfrwt>
<totfact> 0.78395699E+00</totfact>
</mgrwt>
</event>
<event>
 6    1  0.2436515E-005  0.2654512E+04  0.7818608E-02  0.8349917E-01
         -1   -1    0    0    0  501 -0.00000000000E+00  0.00000000000E+00  0.13379041195E+04  0.13379041195E+04  0.00000000000E+00 0. -1.
          1   -1    0    0  501    0  0.00000000000E+00 -0.00000000000E+00 -0.13166925996E+04  0.13166925996E+04  0.00000000000E+00 0.  1.
         23    2    1    2    0    0 -0.13527954111E+03 -0.17984001414E+03  0.13172439075E+04  0.13391717175E+04  0.87214633647E+02 0.  0.
         13    1    3    3    0    0 -0.12278454229E+03 -0.18821654855E+03  0.11891956921E+04  0.12102429125E+04  0.00000000000E+00 0. -1.
        -13    1    3    3    0    0 -0.12494998816E+02  0.83765344102E+01  0.12804821534E+03  0.12892880506E+03  0.00000000000E+00 0.  1.
         22    1    1    2    0    0  0.13527954111E+03  0.17984001414E+03 -0.12960323876E+04  0.13154250015E+04  0.00000000000E+00 0.  1.
<mgrwt>
<rscale>  0 0.26545120E+04</rscale>
<asrwt>0</asrwt>
<pdfrwt beam="1">  1        1 0.20256809E+00 0.26545120E+04</pdfrwt>
<pdfrwt beam="2">  1       -1 0.20583140E+00 0.26545120E+04</pdfrwt>
<totfact> 0.10588056E+00</totfact>
</mgrwt>
</event>
<event>
 6    1  0.2436515E-005  0.1761486E+04  0.7818608E-02  0.8727053E-01
          2   -1    0    0  501    0  0.00000000000E+00  0.00000000000E+00  0.15311679251E+04  0.15311679251E+04  0.00000000000E+00 0.  1.
         -2   -1    0    0    0  501 -0.00000000000E+00 -0.00000000000E+00 -0.50661231442E+03  0.50661231442E+03  0.00000000000E+00 0. -1.
         23    2    1    2    0    0 -0.42940242888E+03  0.93090023445E+01 -0.37271903957E+03  0.57598355336E+03  0.91457464632E+02 0.  0.
         11    1    3    3    0    0 -0.13294767917E+03  0.19499683050E+02 -0.17003983756E+03  0.21672302461E+03  0.00000000000E+00 0. -1.
        -11    1    3    3    0    0 -0.29645474971E+03 -0.10190680706E+02 -0.20267920200E+03  0.35926052876E+03  0.00000000000E+00 0.  1.
         22    1    1    2    0    0  0.42940242888E+03 -0.93090023445E+01  0.13972746502E+04  0.14617966861E+04  0.00000000000E+00 0.  1.
<mgrwt>
<rscale>  0 0.17614863E+04</rscale>
<asrwt>0</asrwt>
<pdfrwt beam="1">  1        2 0.23556429E+00 0.17614863E+04</pdfrwt>
<pdfrwt beam="2">  1       -2 0.77940357E-01 0.17614863E+04</pdfrwt>
<totfact> 0.16918035E+01</totfact>
</mgrwt>
</event>
<event>
 6    1  0.2436515E-005  0.1492230E+04  0.7818608E-02  0.8889636E-01
          2   -1    0    0  501    0  0.00000000000E+00  0.00000000000E+00  0.18040865082E+04  0.18040865082E+04  0.00000000000E+00 0.  1.
         -2   -1    0    0    0  501 -0.00000000000E+00 -0.00000000000E+00 -0.30857028223E+03  0.30857028223E+03  0.00000000000E+00 0. -1.
         23    2    1    2    0    0  0.25705624505E+03 -0.33674118769E+03 -0.11561485777E+03  0.44675886151E+03  0.82183601774E+02 0.  0.
         11    1    3    3    0    0  0.65910864663E+02 -0.57358313762E+02 -0.53911659777E+02  0.10266783965E+03  0.00000000000E+00 0. -1.
        -11    1    3    3    0    0  0.19114538039E+03 -0.27938287392E+03 -0.61703197988E+02  0.34409102187E+03  0.00000000000E+00 0.  1.
         22    1    1    2    0    0 -0.25705624505E+03  0.33674118769E+03  0.16111310837E+04  0.16658979289E+04  0.00000000000E+00 0.  1.
<mgrwt>
<rscale>  0 0.14922299E+04</rscale>
<asrwt>0</asrwt>
<pdfrwt beam="1">  1        2 0.27755176E+00 0.14922299E+04</pdfrwt>
<pdfrwt beam="2">  1       -2 0.47472352E-01 0.14922299E+04</pdfrwt>
<totfact> 0.34895888E+01</totfact>
</mgrwt>
</event>
<event>
 6    1  0.2436515E-005  0.1495944E+04  0.7818608E-02  0.8887154E-01
         -2   -1    0    0    0  501 -0.00000000000E+00  0.00000000000E+00  0.35504745739E+03  0.35504745739E+03  0.00000000000E+00 0. -1.
          2   -1    0    0  501    0  0.00000000000E+00 -0.00000000000E+00 -0.15757398241E+04  0.15757398241E+04  0.00000000000E+00 0.  1.
         23    2    1    2    0    0 -0.33742589941E+03  0.51110829917E+03 -0.64338814112E+02  0.62226083174E+03  0.89337162733E+02 0.  0.
         11    1    3    3    0    0 -0.25992207505E+03  0.43852394501E+03 -0.29952490894E+02  0.51064653838E+03  0.00000000000E+00 0. -1.
        -11    1    3    3    0    0 -0.77503824357E+02  0.72584354167E+02 -0.34386323218E+02  0.11161429337E+03  0.00000000000E+00 0.  1.
         22    1    1    2    0    0  0.33742589941E+03 -0.51110829917E+03 -0.11563535526E+04  0.13085264498E+04  0.00000000000E+00 0.  1.
<mgrwt>
<rscale>  0 0.14959444E+04</rscale>
<asrwt>0</asrwt>
<pdfrwt beam="1">  1        2 0.24242151E+00 0.14959444E+04</pdfrwt>
<pdfrwt beam="2">  1       -2 0.54622686E-01 0.14959444E+04</pdfrwt>
<totfact> 0.35067679E+01</totfact>
</mgrwt>
</event>
<event>
 6    1  0.2436515E-005  0.3796093E+04  0.7818608E-02  0.8046994E-01
          2   -1    0    0  501    0  0.00000000000E+00  0.00000000000E+00  0.18209344046E+04  0.18209344046E+04  0.00000000000E+00 0.  1.
         -2   -1    0    0    0  501 -0.00000000000E+00 -0.00000000000E+00 -0.19784237926E+04  0.19784237926E+04  0.00000000000E+00 0. -1.
         23    2    1    2    0    0 -0.17732106829E+04  0.51126389079E+03  0.36085798872E+03  0.18824985533E+04  0.88968664139E+02 0.  0.
         13    1    3    3    0    0 -0.23671614587E+03  0.37188778083E+02  0.47078858179E+02  0.24420065074E+03  0.00000000000E+00 0.  1.
        -13    1    3    3    0    0 -0.15364945370E+04  0.47407511271E+03  0.31377913054E+03  0.16382979025E+04  0.00000000000E+00 0. -1.
         22    1    1    2    0    0  0.17732106829E+04 -0.51126389079E+03 -0.51834737670E+03  0.19168596440E+04  0.00000000000E+00 0. -1.
<mgrwt>
<rscale>  0 0.37960927E+04</rscale>
<asrwt>0</asrwt>
<pdfrwt beam="1">  1        2 0.28014375E+00 0.37960927E+04</pdfrwt>
<pdfrwt beam="2">  1       -2 0.30437289E+00 0.37960927E+04</pdfrwt>
<totfact> 0.20133651E-01</totfact>
</mgrwt>
</event>
<event>
 6    1  0.2436515E-005  0.1430258E+04  0.7818608E-02  0.8932203E-01
         -2   -1    0    0    0  501 -0.00000000000E+00  0.00000000000E+00  0.51626167836E+03  0.51626167836E+03  0.00000000000E+00 0. -1.
          2   -1    0    0  501    0  0.00000000000E+00 -0.00000000000E+00 -0.99060125795E+03  0.99060125795E+03  0.00000000000E+00 0.  1.
         23    2    1    2    0    0 -0.18502559948E+03  0.26426129266E+03  0.43082192319E+03  0.54593325659E+03  0.91471787394E+02 0.  0.
         11    1    3    3    0    0 -0.62368439899E+02  0.16810028916E+03  0.23884204246E+03  0.29865205634E+03  0.00000000000E+00 0. -1.
        -11    1    3    3    0    0 -0.12265715958E+03  0.96161003494E+02  0.19197988073E+03  0.24728120024E+03  0.00000000000E+00 0.  1.
         22    1    1    2    0    0  0.18502559948E+03 -0.26426129266E+03 -0.90516150278E+03  0.96092967973E+03  0.00000000000E+00 0.  1.
<mgrwt>
<rscale>  0 0.14302580E+04</rscale>
<asrwt>0</asrwt>
<pdfrwt beam="1">  1        2 0.15240019E+00 0.14302580E+04</pdfrwt>
<pdfrwt beam="2">  1       -2 0.79424874E-01 0.14302580E+04</pdfrwt>
<totfact> 0.34859949E+01</totfact>
</mgrwt>
</event>
<event>
 6    1  0.2436515E-005  0.5125773E+04  0.7818608E-02  0.7809393E-01
         -2   -1    0    0    0  501 -0.00000000000E+00  0.00000000000E+00  0.24907577129E+04  0.24907577129E+04  0.00000000000E+00 0. -1.
          2   -1    0    0  501    0  0.00000000000E+00 -0.00000000000E+00 -0.26371042042E+04  0.26371042042E+04  0.00000000000E+00 0.  1.
         23    2    1    2    0    0  0.85527535315E+03 -0.45945683145E+03  0.22987709399E+04  0.24970453591E+04  0.91055926622E+02 0.  0.
         11    1    3    3    0    0  0.70641323140E+03 -0.33879236735E+03  0.18576254230E+04  0.20160784047E+04  0.00000000000E+00 0. -1.
        -11    1    3    3    0    0  0.14886212175E+03 -0.12066446410E+03  0.44114551690E+03  0.48096695445E+03  0.00000000000E+00 0.  1.
         22    1    1    2    0    0 -0.85527535315E+03  0.45945683145E+03 -0.24451174312E+04  0.26308165580E+04  0.00000000000E+00 0.  1.
<mgrwt>
<rscale>  0 0.51257732E+04</rscale>
<asrwt>0</asrwt>
<pdfrwt beam="1">  1        2 0.40570834E+00 0.51257732E+04</pdfrwt>
<pdfrwt beam="2">  1       -2 0.38319350E+00 0.51257732E+04</pdfrwt>
<totfact> 0.19923434E-02</totfact>
</mgrwt>
</event>
<event>
 6    1  0.2436515E-005  0.2024790E+04  0.7818608E-02  0.8595118E-01
          2   -1    0    0  501    0  0.00000000000E+00  0.00000000000E+00  0.10700569519E+04  0.10700569519E+04  0.00000000000E+00 0.  1.
         -2   -1    0    0    0  501 -0.00000000000E+00 -0.00000000000E+00 -0.95783984904E+03  0.95783984904E+03  0.00000000000E+00 0. -1.
         23    2    1    2    0    0  0.97895888668E+03 -0.14546431647E+03  0.25951246329E+03  0.10272888396E+04  0.91952553622E+02 0.  0.
         11    1    3    3    0    0  0.91992905352E+03 -0.13741899348E+03  0.21999597314E+03  0.95579897023E+03  0.00000000000E+00 0.  1.
        -11    1    3    3    0    0  0.59029833156E+02 -0.80453229956E+01  0.39516490152E+02  0.71489869342E+02  0.00000000000E+00 0. -1.
         22    1    1    2    0    0 -0.97895888668E+03  0.14546431647E+03 -0.14729536042E+03  0.10006079614E+04  0.00000000000E+00 0.  1.
<mgrwt>
<rscale>  0 0.20247896E+04</rscale>
<asrwt>0</asrwt>
<pdfrwt beam="1">  1        2 0.16462415E+00 0.20247896E+04</pdfrwt>
<pdfrwt beam="2">  1       -2 0.14735998E+00 0.20247896E+04</pdfrwt>
<totfact> 0.66211350E+00</totfact>
</mgrwt>
</event>
<event>
 6    1  0.2436515E-005  0.2451142E+04  0.7818608E-02  0.8420601E-01
         -2   -1    0    0    0  501 -0.00000000000E+00  0.00000000000E+00  0.46783393727E+03  0.46783393727E+03  0.00000000000E+00 0. -1.
          2   -1    0    0  501    0  0.00000000000E+00 -0.00000000000E+00 -0.32105928018E+04  0.32105928018E+04  0.00000000000E+00 0.  1.
         23    2    1    2    0    0  0.68994658488E+03  0.17252381525E+03  0.12131648333E+03  0.72737296880E+03  0.92536424098E+02 0.  0.
         13    1    3    3    0    0  0.52010410092E+03  0.10917978827E+03  0.12548774226E+03  0.54605464509E+03  0.00000000000E+00 0. -1.
        -13    1    3    3    0    0  0.16984248396E+03  0.63344026977E+02 -0.41712589216E+01  0.18131832371E+03  0.00000000000E+00 0.  1.
         22    1    1    2    0    0 -0.68994658488E+03 -0.17252381525E+03 -0.28640753478E+04  0.29510537702E+04  0.00000000000E+00 0.  1.
<mgrwt>
<rscale>  0 0.24511420E+04</rscale>
<asrwt>0</asrwt>
<pdfrwt beam="1">  1        2 0.49393734E+00 0.24511420E+04</pdfrwt>
<pdfrwt beam="2">  1       -2 0.71974454E-01 0.24511420E+04</pdfrwt>
<totfact> 0.20001957E+00</totfact>
</mgrwt>
</event>
<event>
 6    1  0.2436515E-005  0.4123848E+04  0.7818608E-02  0.7980018E-01
         -2   -1    0    0    0  501 -0.00000000000E+00  0.00000000000E+00  0.22391730523E+04  0.22391730523E+04  0.00000000000E+00 0. -1.
          2   -1    0    0  501    0  0.00000000000E+00 -0.00000000000E+00 -0.18987053325E+04  0.18987053325E+04  0.00000000000E+00 0.  1.
         23    2    1    2    0    0 -0.81196827427E+03 -0.12295824466E+04  0.16160880748E+04  0.21889369384E+04  0.92405538815E+02 0.  0.
         11    1    3    3    0    0 -0.60958776547E+03 -0.84955038924E+03  0.11284177316E+04  0.15383951653E+04  0.00000000000E+00 0.  1.
        -11    1    3    3    0    0 -0.20238050880E+03 -0.38003205734E+03  0.48767034320E+03  0.65054177313E+03  0.00000000000E+00 0. -1.
         22    1    1    2    0    0  0.81196827427E+03  0.12295824466E+04 -0.12756203550E+04  0.19489414464E+04  0.00000000000E+00 0.  1.
<mgrwt>
<rscale>  0 0.41238476E+04</rscale>
<asrwt>0</asrwt>
<pdfrwt beam="1">  1        2 0.29210851E+00 0.41238476E+04</pdfrwt>
<pdfrwt beam="2">  1       -2 0.34448816E+00 0.41238476E+04</pdfrwt>
<totfact> 0.10009711E-01</totfact>
</mgrwt>
</event>
<event>
 6    1  0.2436515E-005  0.2974759E+04  0.7818608E-02  0.8250975E-01
         -2   -1    0    0    0  501 -0.00000000000E+00  0.00000000000E+00  0.49997706207E+03  0.49997706207E+03  0.00000000000E+00 0.  1.
          2   -1    0    0  501    0  0.00000000000E+00 -0.00000000000E+00 -0.44247997098E+04  0.44247997098E+04  0.00000000000E+00 0. -1.
         23    2    1    2    0    0  0.44534029275E+03 -0.11654640092E+04 -0.62854483931E+03  0.14002794001E+04  0.95286149882E+02 0.  0.
         13    1    3    3    0    0  0.24295135301E+03 -0.63464405973E+03 -0.39528832399E+03  0.78616238879E+03  0.00000000000E+00 0. -1.
        -13    1    3    3    0    0  0.20238893974E+03 -0.53081994947E+03 -0.23325651532E+03  0.61411701135E+03  0.00000000000E+00 0.  1.
         22    1    1    2    0    0 -0.44534029275E+03  0.11654640092E+04 -0.32962778085E+04  0.35244973718E+04  0.00000000000E+00 0. -1.
<mgrwt>
<rscale>  0 0.29747594E+04</rscale>
<asrwt>0</asrwt>
<pdfrwt beam="1">  1        2 0.68073838E+00 0.29747594E+04</pdfrwt>
<pdfrwt beam="2">  1       -2 0.76919552E-01 0.29747594E+04</pdfrwt>
<totfact> 0.18820924E-01</totfact>
</mgrwt>
</event>
<event>
 6    1  0.2436515E-005  0.4052214E+04  0.7818608E-02  0.7994095E-01
          2   -1    0    0  501    0  0.00000000000E+00  0.00000000000E+00  0.13326893554E+04  0.13326893554E+04  0.00000000000E+00 0.  1.
         -2   -1    0    0    0  501 -0.00000000000E+00 -0.00000000000E+00 -0.30803195743E+04  0.30803195743E+04  0.00000000000E+00 0. -1.
         23    2    1    2    0    0 -0.69141132761E+03 -0.15715281568E+04 -0.20436694395E+04  0.26707719791E+04  0.93208449378E+02 0.  0.
         13    1    3    3    0    0 -0.58573707151E+03 -0.14046212402E+04 -0.18134567333E+04  0.23674192846E+04  0.00000000000E+00 0.  1.
        -13    1    3    3    0    0 -0.10567425609E+03 -0.16690691662E+03 -0.23021270619E+03  0.30335269458E+03  0.00000000000E+00 0. -1.
         22    1    1    2    0    0  0.69141132761E+03  0.15715281568E+04  0.29603922063E+03  0.17422369505E+04  0.00000000000E+00 0.  1.
<mgrwt>
<rscale>  0 0.40522138E+04</rscale>
<asrwt>0</asrwt>
<pdfrwt beam="1">  1        2 0.20502913E+00 0.40522138E+04</pdfrwt>
<pdfrwt beam="2">  1       -2 0.47389531E+00 0.40522138E+04</pdfrwt>
<totfact> 0.30084199E-02</totfact>
</mgrwt>
</event>
<event>
 6    1  0.2436515E-005  0.1797579E+04  0.7818608E-02  0.8707588E-01
          4   -1    0    0  501    0  0.00000000000E+00  0.00000000000E+00  0.16374025586E+04  0.16374025586E+04  0.00000000000E+00 0.  1.
         -4   -1    0    0    0  501 -0.00000000000E+00 -0.00000000000E+00 -0.49335623715E+03  0.49335623715E+03  0.00000000000E+00 0. -1.
         23    2    1    2    0    0 -0.38675517005E+03 -0.15246133673E+03 -0.36819796233E+03  0.56241355486E+03  0.88967670942E+02 0.  0.
         11    1    3    3    0    0 -0.90189621044E+02 -0.43066099544E+01 -0.51538574340E+02  0.10396604868E+03  0.00000000000E+00 0. -1.
        -11    1    3    3    0    0 -0.29656554900E+03 -0.14815472677E+03 -0.31665938799E+03  0.45844750618E+03  0.00000000000E+00 0.  1.
         22    1    1    2    0    0  0.38675517005E+03  0.15246133673E+03  0.15122442838E+04  0.15683452409E+04  0.00000000000E+00 0.  1.
<mgrwt>
<rscale>  0 0.17975792E+04</rscale>
<asrwt>0</asrwt>
<pdfrwt beam="1">  1        4 0.25190808E+00 0.17975792E+04</pdfrwt>
<pdfrwt beam="2">  1       -4 0.75900960E-01 0.17975792E+04</pdfrwt>
<totfact> 0.18161460E-01</totfact>
</mgrwt>
</event>
<event>
 6    1  0.2436515E-005  0.2149973E+04  0.7818608E-02  0.8539544E-01
         -2   -1    0    0    0  501 -0.00000000000E+00  0.00000000000E+00  0.77477187979E+03  0.77477187979E+03  0.00000000000E+00 0. -1.
          2   -1    0    0  501    0  0.00000000000E+00 -0.00000000000E+00 -0.14915306606E+04  0.14915306606E+04  0.00000000000E+00 0.  1.
         23    2    1    2    0    0  0.10615292987E+04  0.11704928642E+03 -0.24920395161E+03  0.11004755782E+04  0.91645519118E+02 0.  0.
         13    1    3    3    0    0  0.33073242771E+03  0.70981471883E+02 -0.52933092802E+02  0.34238022782E+03  0.00000000000E+00 0.  1.
        -13    1    3    3    0    0  0.73079687102E+03  0.46067814539E+02 -0.19627085880E+03  0.75809535037E+03  0.00000000000E+00 0. -1.
         22    1    1    2    0    0 -0.10615292987E+04 -0.11704928642E+03 -0.46755482920E+03  0.11658269622E+04  0.00000000000E+00 0. -1.
<mgrwt>
<rscale>  0 0.21499730E+04</rscale>
<asrwt>0</asrwt>
<pdfrwt beam="1">  1        2 0.22946625E+00 0.21499730E+04</pdfrwt>
<pdfrwt beam="2">  1       -2 0.11919568E+00 0.21499730E+04</pdfrwt>
<totfact> 0.63614680E+00</totfact>
</mgrwt>
</event>
<event>
 6    1  0.2436515E-005  0.1017726E+04  0.7818608E-02  0.9289314E-01
          2   -1    0    0  501    0  0.00000000000E+00  0.00000000000E+00  0.11991533887E+04  0.11991533887E+04  0.00000000000E+00 0.  1.
         -2   -1    0    0    0  501 -0.00000000000E+00 -0.00000000000E+00 -0.21593698829E+03  0.21593698829E+03  0.00000000000E+00 0. -1.
         23    2    1    2    0    0  0.19930159767E+03  0.80251322445E+02  0.11306791621E+04  0.11545012988E+04  0.90975159720E+02 0.  0.
         13    1    3    3    0    0  0.59369936600E+02  0.58873629573E+02  0.28332546594E+03  0.29540516800E+03  0.00000000000E+00 0. -1.
        -13    1    3    3    0    0  0.13993166107E+03  0.21377692872E+02  0.84735369619E+03  0.85909613080E+03  0.00000000000E+00 0.  1.
         22    1    1    2    0    0 -0.19930159767E+03 -0.80251322445E+02 -0.14746276170E+03  0.26058907820E+03  0.00000000000E+00 0. -1.
<mgrwt>
<rscale>  0 0.10177260E+04</rscale>
<asrwt>0</asrwt>
<pdfrwt beam="1">  1        2 0.18448513E+00 0.10177260E+04</pdfrwt>
<pdfrwt beam="2">  1       -2 0.33221076E-01 0.10177260E+04</pdfrwt>
<totfact> 0.15985210E+02</totfact>
</mgrwt>
</event>
<event>
 6    1  0.2436515E-005  0.3567849E+04  0.7818608E-02  0.8097896E-01
         -2   -1    0    0    0  501 -0.00000000000E+00  0.00000000000E+00  0.13787404334E+04  0.13787404334E+04  0.00000000000E+00 0. -1.
          2   -1    0    0  501    0  0.00000000000E+00 -0.00000000000E+00 -0.23081838684E+04  0.23081838684E+04  0.00000000000E+00 0.  1.
         23    2    1    2    0    0 -0.45130613112E+03  0.38750997305E+03 -0.22018115856E+04  0.22823738706E+04  0.86110532435E+02 0.  0.
         11    1    3    3    0    0 -0.17163722205E+03  0.94752097761E+02 -0.73978913265E+03  0.76532689539E+03  0.00000000000E+00 0. -1.
        -11    1    3    3    0    0 -0.27966890907E+03  0.29275787529E+03 -0.14620224529E+04  0.15170469752E+04  0.00000000000E+00 0.  1.
         22    1    1    2    0    0  0.45130613112E+03 -0.38750997305E+03  0.12723681506E+04  0.14045504312E+04  0.00000000000E+00 0. -1.
<mgrwt>
<rscale>  0 0.35678489E+04</rscale>
<asrwt>0</asrwt>
<pdfrwt beam="1">  1        2 0.35510521E+00 0.35678489E+04</pdfrwt>
<pdfrwt beam="2">  1       -2 0.21211391E+00 0.35678489E+04</pdfrwt>
<totfact> 0.40677143E-01</totfact>
</mgrwt>
</event>
<event>
 6    1  0.2436515E-005  0.2503746E+04  0.7818608E-02  0.8401652E-01
         -2   -1    0    0    0  501 -0.00000000000E+00  0.00000000000E+00  0.50188579061E+03  0.50188579061E+03  0.00000000000E+00 0. -1.
          2   -1    0    0  501    0  0.00000000000E+00 -0.00000000000E+00 -0.31225951044E+04  0.31225951044E+04  0.00000000000E+00 0.  1.
         23    2    1    2    0    0  0.12412034192E+04 -0.38971271394E+02 -0.10998422453E+04  0.16610295134E+04  0.85213802369E+02 0.  0.
         11    1    3    3    0    0  0.55878325498E+03 -0.59238868688E+02 -0.48609045872E+03  0.74298849498E+03  0.00000000000E+00 0. -1.
        -11    1    3    3    0    0  0.68242016421E+03  0.20267597294E+02 -0.61375178655E+03  0.91804101843E+03  0.00000000000E+00 0.  1.
         22    1    1    2    0    0 -0.12412034192E+04  0.38971271394E+02 -0.15208670686E+04  0.19634513816E+04  0.00000000000E+00 0.  1.
<mgrwt>
<rscale>  0 0.25037461E+04</rscale>
<asrwt>0</asrwt>
<pdfrwt beam="1">  1        2 0.48039925E+00 0.25037461E+04</pdfrwt>
<pdfrwt beam="2">  1       -2 0.77213198E-01 0.25037461E+04</pdfrwt>
<totfact> 0.19429493E+00</totfact>
</mgrwt>
</event>
<event>
 6    1  0.2436515E-005  0.3506263E+04  0.7818608E-02  0.8112307E-01
         -1   -1    0    0    0  501 -0.00000000000E+00  0.00000000000E+00  0.14359410796E+04  0.14359410796E+04  0.00000000000E+00 0. -1.
          1   -1    0    0  501    0  0.00000000000E+00 -0.00000000000E+00 -0.21403875002E+04  0.21403875002E+04  0.00000000000E+00 0.  1.
         23    2    1    2    0    0  0.15964482922E+03  0.13131156034E+04  0.81926225269E+03  0.15585458411E+04  0.90085741099E+02 0.  0.
         11    1    3    3    0    0  0.10651378924E+03  0.95408417678E+03  0.54773644891E+03  0.11052768980E+04  0.00000000000E+00 0.  1.
        -11    1    3    3    0    0  0.53131039987E+02  0.35903142666E+03  0.27152580378E+03  0.45326894319E+03  0.00000000000E+00 0. -1.
         22    1    1    2    0    0 -0.15964482922E+03 -0.13131156034E+04 -0.15237086733E+04  0.20177827387E+04  0.00000000000E+00 0.  1.
<mgrwt>
<rscale>  0 0.35062632E+04</rscale>
<asrwt>0</asrwt>
<pdfrwt beam="1">  1        1 0.32929038E+00 0.35062632E+04</pdfrwt>
<pdfrwt beam="2">  1       -1 0.22091401E+00 0.35062632E+04</pdfrwt>
<totfact> 0.21167348E-01</totfact>
</mgrwt>
</event>
<event>
 6    1  0.2436515E-005  0.2935367E+04  0.7818608E-02  0.8262432E-01
         -2   -1    0    0    0  501 -0.00000000000E+00  0.00000000000E+00  0.64158150687E+03  0.64158150687E+03  0.00000000000E+00 0. -1.
          2   -1    0    0  501    0  0.00000000000E+00 -0.00000000000E+00 -0.33574773970E+04  0.33574773970E+04  0.00000000000E+00 0.  1.
         23    2    1    2    0    0 -0.47231507101E+03 -0.31223982824E+03 -0.32019024584E+04  0.32528835753E+04  0.92178983601E+02 0.  0.
         11    1    3    3    0    0 -0.64094710189E+02 -0.33176965347E+02 -0.60795620503E+03  0.61222511394E+03  0.00000000000E+00 0.  1.
        -11    1    3    3    0    0 -0.40822036082E+03 -0.27906286290E+03 -0.25939462533E+04  0.26406584614E+04  0.00000000000E+00 0. -1.
         22    1    1    2    0    0  0.47231507101E+03  0.31223982824E+03  0.48600656821E+03  0.74617532858E+03  0.00000000000E+00 0. -1.
<mgrwt>
<rscale>  0 0.29353674E+04</rscale>
<asrwt>0</asrwt>
<pdfrwt beam="1">  1        2 0.51653497E+00 0.29353674E+04</pdfrwt>
<pdfrwt beam="2">  1       -2 0.98704849E-01 0.29353674E+04</pdfrwt>
<totfact> 0.74658776E-01</totfact>
</mgrwt>
</event>
<event>
 6    1  0.2436515E-005  0.1534496E+04  0.7818608E-02  0.8861832E-01
          2   -1    0    0  501    0  0.00000000000E+00  0.00000000000E+00  0.83501663273E+03  0.83501663273E+03  0.00000000000E+00 0.  1.
         -2   -1    0    0    0  501 -0.00000000000E+00 -0.00000000000E+00 -0.70497932328E+03  0.70497932328E+03  0.00000000000E+00 0. -1.
         23    2    1    2    0    0 -0.35186965419E+03 -0.27379880847E+03 -0.55806822807E+03  0.72007689181E+03  0.91063394824E+02 0.  0.
         13    1    3    3    0    0 -0.22984214020E+03 -0.14217558023E+03 -0.38774791071E+03  0.47264124586E+03  0.00000000000E+00 0. -1.
        -13    1    3    3    0    0 -0.12202751399E+03 -0.13162322823E+03 -0.17032031737E+03  0.24743564595E+03  0.00000000000E+00 0.  1.
         22    1    1    2    0    0  0.35186965419E+03  0.27379880847E+03  0.68810553753E+03  0.81991906420E+03  0.00000000000E+00 0.  1.
<mgrwt>
<rscale>  0 0.15344960E+04</rscale>
<asrwt>0</asrwt>
<pdfrwt beam="1">  1        2 0.12846410E+00 0.15344960E+04</pdfrwt>
<pdfrwt beam="2">  1       -2 0.10845836E+00 0.15344960E+04</pdfrwt>
<totfact> 0.21307044E+01</totfact>
</mgrwt>
</event>
<event>
 6    1  0.2436515E-005  0.2564524E+04  0.7818608E-02  0.8380352E-01
          1   -1    0    0  501    0  0.00000000000E+00  0.00000000000E+00  0.17455610936E+04  0.17455610936E+04  0.00000000000E+00 0.  1.
         -1   -1    0    0    0  501 -0.00000000000E+00 -0.00000000000E+00 -0.94192962799E+03  0.94192962799E+03  0.00000000000E+00 0. -1.
         23    2    1    2    0    0 -0.55724150490E+03  0.11421671531E+03 -0.80006069420E+03  0.98590554997E+03  0.91373334308E+02 0.  0.
         13    1    3    3    0    0 -0.17780520964E+03  0.15294789278E+02 -0.31642371759E+03  0.36328032180E+03  0.00000000000E+00 0. -1.
        -13    1    3    3    0    0 -0.37943629526E+03  0.98921926032E+02 -0.48363697661E+03  0.62262522817E+03  0.00000000000E+00 0.  1.
         22    1    1    2    0    0  0.55724150490E+03 -0.11421671531E+03  0.16036921599E+04  0.17015851717E+04  0.00000000000E+00 0.  1.
<mgrwt>
<rscale>  0 0.25645239E+04</rscale>
<asrwt>0</asrwt>
<pdfrwt beam="1">  1        1 0.26854786E+00 0.25645239E+04</pdfrwt>
<pdfrwt beam="2">  1       -1 0.14491225E+00 0.25645239E+04</pdfrwt>
<totfact> 0.15000406E+00</totfact>
</mgrwt>
</event>
<event>
 6    1  0.2436515E-005  0.3597505E+04  0.7818608E-02  0.8091064E-01
          2   -1    0    0  501    0  0.00000000000E+00  0.00000000000E+00  0.15770833499E+04  0.15770833499E+04  0.00000000000E+00 0.  1.
         -2   -1    0    0    0  501 -0.00000000000E+00 -0.00000000000E+00 -0.20515781650E+04  0.20515781650E+04  0.00000000000E+00 0. -1.
         23    2    1    2    0    0  0.15676703837E+04  0.18874783565E+03 -0.11039285452E+04  0.19288371128E+04  0.92402366856E+02 0.  0.
         11    1    3    3    0    0  0.11976965219E+04  0.10898501844E+03 -0.81728949758E+03  0.14540690546E+04  0.00000000000E+00 0. -1.
        -11    1    3    3    0    0  0.36997386183E+03  0.79762817209E+02 -0.28663904759E+03  0.47476805816E+03  0.00000000000E+00 0.  1.
         22    1    1    2    0    0 -0.15676703837E+04 -0.18874783565E+03  0.62943373003E+03  0.16998244021E+04  0.00000000000E+00 0.  1.
<mgrwt>
<rscale>  0 0.35975046E+04</rscale>
<asrwt>0</asrwt>
<pdfrwt beam="1">  1        2 0.24262821E+00 0.35975046E+04</pdfrwt>
<pdfrwt beam="2">  1       -2 0.31562741E+00 0.35975046E+04</pdfrwt>
<totfact> 0.23854562E-01</totfact>
</mgrwt>
</event>
<event>
 6    1  0.2436515E-005  0.2274974E+04  0.7818608E-02  0.8487854E-01
         -2   -1    0    0    0  501 -0.00000000000E+00  0.00000000000E+00  0.35685774392E+03  0.35685774392E+03  0.00000000000E+00 0. -1.
          2   -1    0    0  501    0  0.00000000000E+00 -0.00000000000E+00 -0.36257483308E+04  0.36257483308E+04  0.00000000000E+00 0.  1.
         23    2    1    2    0    0 -0.83786383064E+03  0.64544856885E+03 -0.23610250611E+04  0.25887483105E+04  0.92513905203E+02 0.  0.
         13    1    3    3    0    0 -0.54320370202E+03  0.44548200615E+03 -0.14716274685E+04  0.16307090132E+04  0.00000000000E+00 0. -1.
        -13    1    3    3    0    0 -0.29466012862E+03  0.19996656269E+03 -0.88939759258E+03  0.95803929736E+03  0.00000000000E+00 0.  1.
         22    1    1    2    0    0  0.83786383064E+03 -0.64544856885E+03 -0.90786552578E+03  0.13938577641E+04  0.00000000000E+00 0. -1.
<mgrwt>
<rscale>  0 0.22749737E+04</rscale>
<asrwt>0</asrwt>
<pdfrwt beam="1">  1        2 0.55780744E+00 0.22749737E+04</pdfrwt>
<pdfrwt beam="2">  1       -2 0.54901191E-01 0.22749737E+04</pdfrwt>
<totfact> 0.18819992E+00</totfact>
</mgrwt>
</event>
<event>
 6    1  0.2436515E-005  0.1850757E+04  0.7818608E-02  0.8679764E-01
         -2   -1    0    0    0  501 -0.00000000000E+00  0.00000000000E+00  0.27396892041E+03  0.27396892041E+03  0.00000000000E+00 0. -1.
          2   -1    0    0  501    0  0.00000000000E+00 -0.00000000000E+00 -0.31256293427E+04  0.31256293427E+04  0.00000000000E+00 0.  1.
         23    2    1    2    0    0 -0.91280915443E+03  0.67509829229E+02 -0.12091094236E+04  0.15192387462E+04  0.91447473047E+02 0.  0.
         11    1    3    3    0    0 -0.57627336789E+03  0.86609038670E+02 -0.75949006808E+03  0.95729686285E+03  0.00000000000E+00 0. -1.
        -11    1    3    3    0    0 -0.33653578654E+03 -0.19099209441E+02 -0.44961935552E+03  0.56194188336E+03  0.00000000000E+00 0.  1.
         22    1    1    2    0    0  0.91280915443E+03 -0.67509829229E+02 -0.16425509987E+04  0.18803595169E+04  0.00000000000E+00 0.  1.
<mgrwt>
<rscale>  0 0.18507569E+04</rscale>
<asrwt>0</asrwt>
<pdfrwt beam="1">  1        2 0.48086603E+00 0.18507569E+04</pdfrwt>
<pdfrwt beam="2">  1       -2 0.42149066E-01 0.18507569E+04</pdfrwt>
<totfact> 0.72994047E+00</totfact>
</mgrwt>
</event>
<event>
 6    1  0.2436515E-005  0.2844575E+04  0.7818608E-02  0.8289562E-01
          2   -1    0    0  501    0  0.00000000000E+00  0.00000000000E+00  0.21783686452E+04  0.21783686452E+04  0.00000000000E+00 0.  1.
         -2   -1    0    0    0  501 -0.00000000000E+00 -0.00000000000E+00 -0.92863120853E+03  0.92863120853E+03  0.00000000000E+00 0. -1.
         23    2    1    2    0    0 -0.96170153387E+03  0.11200005669E+03  0.17613010362E+04  0.20119605077E+04  0.91596349338E+02 0.  0.
         13    1    3    3    0    0 -0.23984785750E+03  0.65417245614E+02  0.42120237425E+03  0.48909901947E+03  0.00000000000E+00 0. -1.
        -13    1    3    3    0    0 -0.72185367636E+03  0.46582811081E+02  0.13400986620E+04  0.15228614882E+04  0.00000000000E+00 0.  1.
         22    1    1    2    0    0  0.96170153387E+03 -0.11200005669E+03 -0.51156359960E+03  0.10950393460E+04  0.00000000000E+00 0. -1.
<mgrwt>
<rscale>  0 0.28445746E+04</rscale>
<asrwt>0</asrwt>
<pdfrwt beam="1">  1        2 0.33513364E+00 0.28445746E+04</pdfrwt>
<pdfrwt beam="2">  1       -2 0.14286634E+00 0.28445746E+04</pdfrwt>
<totfact> 0.15684386E+00</totfact>
</mgrwt>
</event>
<event>
 6    1  0.2436515E-005  0.2001621E+04  0.7818608E-02  0.8605863E-01
         -2   -1    0    0    0  501 -0.00000000000E+00  0.00000000000E+00  0.72732110860E+03  0.72732110860E+03  0.00000000000E+00 0. -1.
          2   -1    0    0  501    0  0.00000000000E+00 -0.00000000000E+00 -0.13771388067E+04  0.13771388067E+04  0.00000000000E+00 0.  1.
         23    2    1    2    0    0  0.77866726266E+03 -0.61288899083E+02  0.32881017082E+03  0.85234508794E+03  0.91087789684E+02 0.  0.
         13    1    3    3    0    0  0.71945670936E+03 -0.72226365753E+02  0.32273024982E+03  0.79182663425E+03  0.00000000000E+00 0. -1.
        -13    1    3    3    0    0  0.59210553291E+02  0.10937466671E+02  0.60799209948E+01  0.60518453694E+02  0.00000000000E+00 0.  1.
         22    1    1    2    0    0 -0.77866726266E+03  0.61288899083E+02 -0.97862786897E+03  0.12521148274E+04  0.00000000000E+00 0.  1.
<mgrwt>
<rscale>  0 0.20016215E+04</rscale>
<asrwt>0</asrwt>
<pdfrwt beam="1">  1        2 0.21186751E+00 0.20016215E+04</pdfrwt>
<pdfrwt beam="2">  1       -2 0.11189555E+00 0.20016215E+04</pdfrwt>
<totfact> 0.87345214E+00</totfact>
</mgrwt>
</event>
<event>
 6    1  0.2436515E-005  0.4338095E+04  0.7818608E-02  0.7939611E-01
         -2   -1    0    0    0  501 -0.00000000000E+00  0.00000000000E+00  0.17680915830E+04  0.17680915830E+04  0.00000000000E+00 0. -1.
          2   -1    0    0  501    0  0.00000000000E+00 -0.00000000000E+00 -0.26609289096E+04  0.26609289096E+04  0.00000000000E+00 0.  1.
         23    2    1    2    0    0  0.18442496009E+04 -0.36560927084E+03  0.65611005455E+03  0.19930063879E+04  0.81653714483E+02 0.  0.
         13    1    3    3    0    0  0.14646048611E+04 -0.25690276910E+03  0.51278922895E+03  0.15729015307E+04  0.00000000000E+00 0.  1.
        -13    1    3    3    0    0  0.37964473980E+03 -0.10870650174E+03  0.14332082560E+03  0.42010485718E+03  0.00000000000E+00 0. -1.
         22    1    1    2    0    0 -0.18442496009E+04  0.36560927084E+03 -0.15489473811E+04  0.24360141048E+04  0.00000000000E+00 0.  1.
<mgrwt>
<rscale>  0 0.43380945E+04</rscale>
<asrwt>0</asrwt>
<pdfrwt beam="1">  1        2 0.40937367E+00 0.43380945E+04</pdfrwt>
<pdfrwt beam="2">  1       -2 0.27201409E+00 0.43380945E+04</pdfrwt>
<totfact> 0.10131081E-01</totfact>
</mgrwt>
</event>
<event>
 6    1  0.2436515E-005  0.4074866E+04  0.7818608E-02  0.7989612E-01
          2   -1    0    0  501    0  0.00000000000E+00  0.00000000000E+00  0.27120008259E+04  0.27120008259E+04  0.00000000000E+00 0.  1.
         -2   -1    0    0    0  501 -0.00000000000E+00 -0.00000000000E+00 -0.15306536338E+04  0.15306536338E+04  0.00000000000E+00 0. -1.
         23    2    1    2    0    0  0.47197594687E+03  0.16327527416E+04 -0.57686270499E+03  0.17972618836E+04  0.93471322784E+02 0.  0.
         11    1    3    3    0    0  0.36879792091E+03  0.11983709892E+04 -0.38806093517E+03  0.13125152280E+04  0.00000000000E+00 0. -1.
        -11    1    3    3    0    0  0.10317802596E+03  0.43438175233E+03 -0.18880176982E+03  0.48474665557E+03  0.00000000000E+00 0.  1.
         22    1    1    2    0    0 -0.47197594687E+03 -0.16327527416E+04  0.17582098970E+04  0.24453925762E+04  0.00000000000E+00 0.  1.
<mgrwt>
<rscale>  0 0.40748663E+04</rscale>
<asrwt>0</asrwt>
<pdfrwt beam="1">  1        2 0.41723089E+00 0.40748663E+04</pdfrwt>
<pdfrwt beam="2">  1       -2 0.23548518E+00 0.40748663E+04</pdfrwt>
<totfact> 0.16181493E-01</totfact>
</mgrwt>
</event>
<event>
 6    1  0.3817135E-005  0.4436669E+04  0.7818608E-02  0.7921819E-01
         -2   -1    0    0    0  501 -0.00000000000E+00  0.00000000000E+00  0.25533183224E+04  0.25533183224E+04  0.00000000000E+00 0. -1.
          2   -1    0    0  501    0  0.00000000000E+00 -0.00000000000E+00 -0.19272986621E+04  0.19272986621E+04  0.00000000000E+00 0.  1.
         23    2    1    2    0    0  0.13599989264E+04  0.90791860010E+03 -0.11993932413E+04  0.20298935148E+04  0.89500110480E+02 0.  0.
         13    1    3    3    0    0  0.31269933374E+03  0.16839773025E+03 -0.24143840257E+03  0.42945450413E+03  0.00000000000E+00 0.  1.
        -13    1    3    3    0    0  0.10472995926E+04  0.73952086984E+03 -0.95795483874E+03  0.16004390106E+04  0.00000000000E+00 0. -1.
         22    1    1    2    0    0 -0.13599989264E+04 -0.90791860010E+03  0.18254129016E+04  0.24507234698E+04  0.00000000000E+00 0. -1.
<mgrwt>
<rscale>  0 0.44366686E+04</rscale>
<asrwt>0</asrwt>
<pdfrwt beam="1">  1        2 0.29650748E+00 0.44366686E+04</pdfrwt>
<pdfrwt beam="2">  1       -2 0.39281821E+00 0.44366686E+04</pdfrwt>
<totfact> 0.46176756E-02</totfact>
</mgrwt>
</event>
<event>
 6    1  0.2436515E-005  0.1652712E+04  0.7818608E-02  0.8788804E-01
         -2   -1    0    0    0  501 -0.00000000000E+00  0.00000000000E+00  0.30366783401E+03  0.30366783401E+03  0.00000000000E+00 0. -1.
          2   -1    0    0  501    0  0.00000000000E+00 -0.00000000000E+00 -0.22487199728E+04  0.22487199728E+04  0.00000000000E+00 0.  1.
         23    2    1    2    0    0  0.64264438766E+03 -0.45204816452E+03 -0.59478831639E+03  0.99016127326E+03  0.96472035930E+02 0.  0.
         11    1    3    3    0    0  0.54132913969E+03 -0.41182009599E+03 -0.48447818462E+03  0.83507612845E+03  0.00000000000E+00 0. -1.
        -11    1    3    3    0    0  0.10131524798E+03 -0.40228068524E+02 -0.11031013177E+03  0.15508514481E+03  0.00000000000E+00 0.  1.
         22    1    1    2    0    0 -0.64264438766E+03  0.45204816452E+03 -0.13502638224E+04  0.15622265335E+04  0.00000000000E+00 0.  1.
<mgrwt>
<rscale>  0 0.16527116E+04</rscale>
<asrwt>0</asrwt>
<pdfrwt beam="1">  1        2 0.34595692E+00 0.16527116E+04</pdfrwt>
<pdfrwt beam="2">  1       -2 0.46718127E-01 0.16527116E+04</pdfrwt>
<totfact> 0.20123147E+01</totfact>
</mgrwt>
</event>
<event>
 6    1  0.2640578E-005  0.3819771E+04  0.7818608E-02  0.8041925E-01
          2   -1    0    0  501    0  0.00000000000E+00  0.00000000000E+00  0.25931849395E+04  0.25931849395E+04  0.00000000000E+00 0.  1.
         -2   -1    0    0    0  501 -0.00000000000E+00 -0.00000000000E+00 -0.14066338475E+04  0.14066338475E+04  0.00000000000E+00 0. -1.
         23    2    1    2    0    0  0.16100802875E+04 -0.79094073363E+03  0.12769048473E+04  0.22036813822E+04  0.88203564335E+02 0.  0.
         11    1    3    3    0    0  0.52449667672E+03 -0.21451847325E+03  0.41948854370E+03  0.70504296149E+03  0.00000000000E+00 0.  1.
        -11    1    3    3    0    0  0.10855836108E+04 -0.57642226037E+03  0.85741630361E+03  0.14986384207E+04  0.00000000000E+00 0. -1.
         22    1    1    2    0    0 -0.16100802875E+04  0.79094073363E+03 -0.90353755303E+02  0.17961374049E+04  0.00000000000E+00 0. -1.
<mgrwt>
<rscale>  0 0.38197705E+04</rscale>
<asrwt>0</asrwt>
<pdfrwt beam="1">  1        2 0.39895153E+00 0.38197705E+04</pdfrwt>
<pdfrwt beam="2">  1       -2 0.21640521E+00 0.38197705E+04</pdfrwt>
<totfact> 0.25611434E-01</totfact>
</mgrwt>
</event>
<event>
 6    1  0.2436515E-005  0.1037296E+04  0.7818608E-02  0.9268559E-01
          2   -1    0    0  501    0  0.00000000000E+00  0.00000000000E+00  0.84202193243E+03  0.84202193243E+03  0.00000000000E+00 0.  1.
         -2   -1    0    0    0  501 -0.00000000000E+00 -0.00000000000E+00 -0.31946436781E+03  0.31946436781E+03  0.00000000000E+00 0. -1.
         23    2    1    2    0    0  0.23815054195E+03 -0.30615296823E+03 -0.11546636736E+03  0.41481377606E+03  0.91064077620E+02 0.  0.
         13    1    3    3    0    0  0.12243367210E+03 -0.22404826087E+03 -0.89635051486E+02  0.27059576811E+03  0.00000000000E+00 0.  1.
        -13    1    3    3    0    0  0.11571686985E+03 -0.82104707353E+02 -0.25831315871E+02  0.14421800795E+03  0.00000000000E+00 0. -1.
         22    1    1    2    0    0 -0.23815054195E+03  0.30615296823E+03  0.63802393198E+03  0.74667252418E+03  0.00000000000E+00 0.  1.
<mgrwt>
<rscale>  0 0.10372965E+04</rscale>
<asrwt>0</asrwt>
<pdfrwt beam="1">  1        2 0.12954183E+00 0.10372965E+04</pdfrwt>
<pdfrwt beam="2">  1       -2 0.49148365E-01 0.10372965E+04</pdfrwt>
<totfact> 0.12553703E+02</totfact>
</mgrwt>
</event>
<event>
 6    1  0.2436515E-005  0.2925940E+04  0.7818608E-02  0.8265201E-01
         -2   -1    0    0    0  501 -0.00000000000E+00  0.00000000000E+00  0.14908881185E+04  0.14908881185E+04  0.00000000000E+00 0. -1.
          2   -1    0    0  501    0  0.00000000000E+00 -0.00000000000E+00 -0.14355747810E+04  0.14355747810E+04  0.00000000000E+00 0.  1.
         23    2    1    2    0    0  0.14538280240E+03 -0.99797232899E+03  0.10857545416E+04  0.14846258755E+04  0.90366680119E+02 0.  0.
         11    1    3    3    0    0  0.35213604283E+02 -0.55369026639E+03  0.59442857414E+03  0.81311637468E+03  0.00000000000E+00 0. -1.
        -11    1    3    3    0    0  0.11016919811E+03 -0.44428206260E+03  0.49132596749E+03  0.67150950082E+03  0.00000000000E+00 0.  1.
         22    1    1    2    0    0 -0.14538280240E+03  0.99797232899E+03 -0.10304412041E+04  0.14418370240E+04  0.00000000000E+00 0.  1.
<mgrwt>
<rscale>  0 0.29259401E+04</rscale>
<asrwt>0</asrwt>
<pdfrwt beam="1">  1        2 0.22085766E+00 0.29259401E+04</pdfrwt>
<pdfrwt beam="2">  1       -2 0.22936740E+00 0.29259401E+04</pdfrwt>
<totfact> 0.10261745E+00</totfact>
</mgrwt>
</event>
<event>
 6    1  0.2436515E-005  0.3482450E+04  0.7818608E-02  0.8117962E-01
         -2   -1    0    0    0  501 -0.00000000000E+00  0.00000000000E+00  0.89041102877E+03  0.89041102877E+03  0.00000000000E+00 0. -1.
          2   -1    0    0  501    0  0.00000000000E+00 -0.00000000000E+00 -0.34050162387E+04  0.34050162387E+04  0.00000000000E+00 0.  1.
         23    2    1    2    0    0  0.61459013550E+03 -0.14721381836E+04 -0.21151930045E+04  0.26509085001E+04  0.91447052867E+02 0.  0.
         11    1    3    3    0    0  0.48044740638E+03 -0.12229317380E+04 -0.17745819887E+04  0.22080609096E+04  0.00000000000E+00 0.  1.
        -11    1    3    3    0    0  0.13414272912E+03 -0.24920644563E+03 -0.34061101580E+03  0.44284759049E+03  0.00000000000E+00 0. -1.
         22    1    1    2    0    0 -0.61459013550E+03  0.14721381836E+04 -0.39941220540E+03  0.16445187673E+04  0.00000000000E+00 0. -1.
<mgrwt>
<rscale>  0 0.34824497E+04</rscale>
<asrwt>0</asrwt>
<pdfrwt beam="1">  1        2 0.52384865E+00 0.34824497E+04</pdfrwt>
<pdfrwt beam="2">  1       -2 0.13698631E+00 0.34824497E+04</pdfrwt>
<totfact> 0.29537122E-01</totfact>
</mgrwt>
</event>
<event>
 6    1  0.2436515E-005  0.1106472E+04  0.7818608E-02  0.9198906E-01
         -2   -1    0    0    0  501 -0.00000000000E+00  0.00000000000E+00  0.17759522897E+03  0.17759522897E+03  0.00000000000E+00 0. -1.
          2   -1    0    0  501    0  0.00000000000E+00 -0.00000000000E+00 -0.17234153149E+04  0.17234153149E+04  0.00000000000E+00 0.  1.
         23    2    1    2    0    0 -0.43039380696E+02  0.54011979987E+03 -0.61749234250E+03  0.82612720800E+03  0.87221466693E+02 0.  0.
         11    1    3    3    0    0  0.65232348343E+01  0.27848405994E+03 -0.26609312400E+03  0.38522911997E+03  0.00000000000E+00 0.  1.
        -11    1    3    3    0    0 -0.49562615530E+02  0.26163573993E+03 -0.35139921850E+03  0.44089808803E+03  0.00000000000E+00 0. -1.
         22    1    1    2    0    0  0.43039380696E+02 -0.54011979987E+03 -0.92832774339E+03  0.10748833358E+04  0.00000000000E+00 0. -1.
<mgrwt>
<rscale>  0 0.11064725E+04</rscale>
<asrwt>0</asrwt>
<pdfrwt beam="1">  1        2 0.26514082E+00 0.11064725E+04</pdfrwt>
<pdfrwt beam="2">  1       -2 0.27322343E-01 0.11064725E+04</pdfrwt>
<totfact> 0.11520621E+02</totfact>
</mgrwt>
</event>
<event>
 6    1  0.2436515E-005  0.5733500E+04  0.7818608E-02  0.7724352E-01
         -2   -1    0    0    0  501 -0.00000000000E+00  0.00000000000E+00  0.22974365052E+04  0.22974365052E+04  0.00000000000E+00 0. -1.
          2   -1    0    0  501    0  0.00000000000E+00 -0.00000000000E+00 -0.35771411613E+04  0.35771411613E+04  0.00000000000E+00 0.  1.
         23    2    1    2    0    0  0.13227913311E+04  0.25215015223E+03  0.19522150505E+04  0.23733405144E+04  0.90801920560E+02 0.  0.
         11    1    3    3    0    0  0.54383006893E+03  0.11154159150E+03  0.88292958955E+03  0.10429560540E+04  0.00000000000E+00 0. -1.
        -11    1    3    3    0    0  0.77896126216E+03  0.14060856073E+03  0.10692854610E+04  0.13303844603E+04  0.00000000000E+00 0.  1.
         22    1    1    2    0    0 -0.13227913311E+04 -0.25215015223E+03 -0.32319197066E+04  0.35012371520E+04  0.00000000000E+00 0.  1.
<mgrwt>
<rscale>  0 0.57334997E+04</rscale>
<asrwt>0</asrwt>
<pdfrwt beam="1">  1        2 0.55032940E+00 0.57334997E+04</pdfrwt>
<pdfrwt beam="2">  1       -2 0.35345177E+00 0.57334997E+04</pdfrwt>
<totfact> 0.72720485E-03</totfact>
</mgrwt>
</event>
<event>
 6    1  0.2436515E-005  0.2469514E+04  0.7818608E-02  0.8413928E-01
         -2   -1    0    0    0  501 -0.00000000000E+00  0.00000000000E+00  0.29000189724E+03  0.29000189724E+03  0.00000000000E+00 0. -1.
          2   -1    0    0  501    0  0.00000000000E+00 -0.00000000000E+00 -0.52572905796E+04  0.52572905796E+04  0.00000000000E+00 0.  1.
         23    2    1    2    0    0  0.76294476958E+03 -0.51937362473E+03 -0.64944401773E+03  0.11319084356E+04  0.87209466249E+02 0.  0.
         11    1    3    3    0    0  0.17106376282E+03 -0.16194098808E+03 -0.15912932927E+03  0.28427071253E+03  0.00000000000E+00 0. -1.
        -11    1    3    3    0    0  0.59188100676E+03 -0.35743263665E+03 -0.49031468846E+03  0.84763772310E+03  0.00000000000E+00 0.  1.
         22    1    1    2    0    0 -0.76294476958E+03  0.51937362473E+03 -0.43178446646E+04  0.44153840412E+04  0.00000000000E+00 0.  1.
<mgrwt>
<rscale>  0 0.24695135E+04</rscale>
<asrwt>0</asrwt>
<pdfrwt beam="1">  1        2 0.80881383E+00 0.24695135E+04</pdfrwt>
<pdfrwt beam="2">  1       -2 0.44615683E-01 0.24695135E+04</pdfrwt>
<totfact> 0.65501903E-02</totfact>
</mgrwt>
</event>
<event>
 6    1  0.2436515E-005  0.1596509E+04  0.7818608E-02  0.8822696E-01
          1   -1    0    0  501    0  0.00000000000E+00  0.00000000000E+00  0.14981447763E+04  0.14981447763E+04  0.00000000000E+00 0.  1.
         -1   -1    0    0    0  501 -0.00000000000E+00 -0.00000000000E+00 -0.42533286917E+03  0.42533286917E+03  0.00000000000E+00 0. -1.
         23    2    1    2    0    0  0.71662914634E+03 -0.10052143185E+02  0.12206576597E+03  0.73285738531E+03  0.92312063172E+02 0.  0.
         13    1    3    3    0    0  0.57442332536E+02 -0.11884337852E+02 -0.12737029296E+02  0.60025752546E+02  0.00000000000E+00 0.  1.
        -13    1    3    3    0    0  0.65918681380E+03  0.18321946666E+01  0.13480279526E+03  0.67283163276E+03  0.00000000000E+00 0. -1.
         22    1    1    2    0    0 -0.71662914634E+03  0.10052143185E+02  0.95074614116E+03  0.11906202602E+04  0.00000000000E+00 0.  1.
<mgrwt>
<rscale>  0 0.15965090E+04</rscale>
<asrwt>0</asrwt>
<pdfrwt beam="1">  1        1 0.23048381E+00 0.15965090E+04</pdfrwt>
<pdfrwt beam="2">  1       -1 0.65435827E-01 0.15965090E+04</pdfrwt>
<totfact> 0.14908239E+01</totfact>
</mgrwt>
</event>
<event>
 6    1  0.2436515E-005  0.1656599E+04  0.7818608E-02  0.8786512E-01
          2   -1    0    0  501    0  0.00000000000E+00  0.00000000000E+00  0.14961409461E+04  0.14961409461E+04  0.00000000000E+00 0.  1.
         -2   -1    0    0    0  501 -0.00000000000E+00 -0.00000000000E+00 -0.45856650185E+03  0.45856650185E+03  0.00000000000E+00 0. -1.
         23    2    1    2    0    0  0.59716402199E+03 -0.12364678383E+03  0.11774762580E+04  0.13290350786E+04  0.89389628054E+02 0.  0.
         11    1    3    3    0    0  0.49953736491E+03 -0.11067767504E+03  0.10492501774E+04  0.11673530149E+04  0.00000000000E+00 0. -1.
        -11    1    3    3    0    0  0.97626657080E+02 -0.12969108790E+02  0.12822608056E+03  0.16168206361E+03  0.00000000000E+00 0.  1.
         22    1    1    2    0    0 -0.59716402199E+03  0.12364678383E+03 -0.13990181375E+03  0.62567236938E+03  0.00000000000E+00 0. -1.
<mgrwt>
<rscale>  0 0.16565991E+04</rscale>
<asrwt>0</asrwt>
<pdfrwt beam="1">  1        2 0.23017553E+00 0.16565991E+04</pdfrwt>
<pdfrwt beam="2">  1       -2 0.70548693E-01 0.16565991E+04</pdfrwt>
<totfact> 0.22257938E+01</totfact>
</mgrwt>
</event>
<event>
 6    1  0.2436515E-005  0.1263852E+04  0.7818608E-02  0.9058732E-01
         -2   -1    0    0    0  501 -0.00000000000E+00  0.00000000000E+00  0.12639903565E+04  0.12639903565E+04  0.00000000000E+00 0. -1.
          2   -1    0    0  501    0  0.00000000000E+00 -0.00000000000E+00 -0.31592864366E+03  0.31592864366E+03  0.00000000000E+00 0.  1.
         23    2    1    2    0    0  0.31044692920E+03 -0.36826579417E+03 -0.28592993714E+02  0.49095095340E+03  0.90654775680E+02 0.  0.
         13    1    3    3    0    0  0.18520947402E+03 -0.20683318477E+03  0.27717511301E+02  0.27901751921E+03  0.00000000000E+00 0. -1.
        -13    1    3    3    0    0  0.12523745518E+03 -0.16143260940E+03 -0.56310505015E+02  0.21193343420E+03  0.00000000000E+00 0.  1.
         22    1    1    2    0    0 -0.31044692920E+03  0.36826579417E+03  0.97665470657E+03  0.10889680468E+04  0.00000000000E+00 0. -1.
<mgrwt>
<rscale>  0 0.12638525E+04</rscale>
<asrwt>0</asrwt>
<pdfrwt beam="1">  1        2 0.48604407E-01 0.12638525E+04</pdfrwt>
<pdfrwt beam="2">  1       -2 0.19446005E+00 0.12638525E+04</pdfrwt>
<totfact> 0.14721489E+01</totfact>
</mgrwt>
</event>
<event>
 6    1  0.2436515E-005  0.1919304E+04  0.7818608E-02  0.8645307E-01
          2   -1    0    0  501    0  0.00000000000E+00  0.00000000000E+00  0.14233548982E+04  0.14233548982E+04  0.00000000000E+00 0.  1.
         -2   -1    0    0    0  501 -0.00000000000E+00 -0.00000000000E+00 -0.64701506254E+03  0.64701506254E+03  0.00000000000E+00 0. -1.
         23    2    1    2    0    0  0.67664787034E+03  0.47639011365E+03 -0.13046603492E+03  0.84273126482E+03  0.91513483308E+02 0.  0.
         13    1    3    3    0    0  0.15791897639E+03  0.83866259931E+02  0.22797963227E+01  0.17882155946E+03  0.00000000000E+00 0.  1.
        -13    1    3    3    0    0  0.51872889395E+03  0.39252385372E+03 -0.13274583125E+03  0.66390970536E+03  0.00000000000E+00 0. -1.
         22    1    1    2    0    0 -0.67664787034E+03 -0.47639011365E+03  0.90680587061E+03  0.12276386960E+04  0.00000000000E+00 0.  1.
<mgrwt>
<rscale>  0 0.19193041E+04</rscale>
<asrwt>0</asrwt>
<pdfrwt beam="1">  1        2 0.21897768E+00 0.19193041E+04</pdfrwt>
<pdfrwt beam="2">  1       -2 0.99540779E-01 0.19193041E+04</pdfrwt>
<totfact> 0.10958983E+01</totfact>
</mgrwt>
</event>
<event>
 6    1  0.2436515E-005  0.1307840E+04  0.7818608E-02  0.9023371E-01
         -2   -1    0    0    0  501 -0.00000000000E+00  0.00000000000E+00  0.63628734801E+03  0.63628734801E+03  0.00000000000E+00 0. -1.
          2   -1    0    0  501    0  0.00000000000E+00 -0.00000000000E+00 -0.67204084983E+03  0.67204084983E+03  0.00000000000E+00 0.  1.
         23    2    1    2    0    0  0.52913516814E+03 -0.25452848850E+03 -0.29848001392E+03  0.66505998180E+03  0.91900397480E+02 0.  0.
         11    1    3    3    0    0  0.28554079494E+03 -0.13841545574E+03 -0.21226060252E+03  0.38176818535E+03  0.00000000000E+00 0. -1.
        -11    1    3    3    0    0  0.24359437320E+03 -0.11611303276E+03 -0.86219411392E+02  0.28329179644E+03  0.00000000000E+00 0.  1.
         22    1    1    2    0    0 -0.52913516814E+03  0.25452848850E+03  0.26272651209E+03  0.64326821605E+03  0.00000000000E+00 0. -1.
<mgrwt>
<rscale>  0 0.13078396E+04</rscale>
<asrwt>0</asrwt>
<pdfrwt beam="1">  1        2 0.10339090E+00 0.13078396E+04</pdfrwt>
<pdfrwt beam="2">  1       -2 0.97890361E-01 0.13078396E+04</pdfrwt>
<totfact> 0.36716490E+01</totfact>
</mgrwt>
</event>
<event>
 6    1  0.2436515E-005  0.2117963E+04  0.7818608E-02  0.8553371E-01
          2   -1    0    0  501    0  0.00000000000E+00  0.00000000000E+00  0.17900088437E+04  0.17900088437E+04  0.00000000000E+00 0.  1.
         -2   -1    0    0    0  501 -0.00000000000E+00 -0.00000000000E+00 -0.62650092245E+03  0.62650092245E+03  0.00000000000E+00 0. -1.
         23    2    1    2    0    0 -0.21930860222E+03  0.60998785906E+03 -0.36945987675E+03  0.75212648069E+03  0.94932561456E+02 0.  0.
         11    1    3    3    0    0 -0.78762535445E+02  0.30490159263E+03 -0.22192032384E+03  0.38524946244E+03  0.00000000000E+00 0.  1.
        -11    1    3    3    0    0 -0.14054606677E+03  0.30508626643E+03 -0.14753955292E+03  0.36687701826E+03  0.00000000000E+00 0. -1.
         22    1    1    2    0    0  0.21930860222E+03 -0.60998785906E+03  0.15329677980E+04  0.16643832854E+04  0.00000000000E+00 0.  1.
<mgrwt>
<rscale>  0 0.21179634E+04</rscale>
<asrwt>0</asrwt>
<pdfrwt beam="1">  1        2 0.27538597E+00 0.21179634E+04</pdfrwt>
<pdfrwt beam="2">  1       -2 0.96384759E-01 0.21179634E+04</pdfrwt>
<totfact> 0.72455492E+00</totfact>
</mgrwt>
</event>
<event>
 6    1  0.2436515E-005  0.3333381E+04  0.7818608E-02  0.8154453E-01
         -2   -1    0    0    0  501 -0.00000000000E+00  0.00000000000E+00  0.16080218702E+04  0.16080218702E+04  0.00000000000E+00 0. -1.
          2   -1    0    0  501    0  0.00000000000E+00 -0.00000000000E+00 -0.17274992834E+04  0.17274992834E+04  0.00000000000E+00 0.  1.
         23    2    1    2    0    0 -0.13852746445E+04 -0.67776712555E+03  0.56974273747E+03  0.16463265132E+04  0.86197934963E+02 0.  0.
         11    1    3    3    0    0 -0.11338408249E+04 -0.52263813910E+03  0.44159950148E+03  0.13242944387E+04  0.00000000000E+00 0. -1.
        -11    1    3    3    0    0 -0.25143381952E+03 -0.15512898645E+03  0.12814323599E+03  0.32203207444E+03  0.00000000000E+00 0.  1.
         22    1    1    2    0    0  0.13852746445E+04  0.67776712555E+03 -0.68922015068E+03  0.16891946404E+04  0.00000000000E+00 0.  1.
<mgrwt>
<rscale>  0 0.33333806E+04</rscale>
<asrwt>0</asrwt>
<pdfrwt beam="1">  1        2 0.26576912E+00 0.33333806E+04</pdfrwt>
<pdfrwt beam="2">  1       -2 0.24738798E+00 0.33333806E+04</pdfrwt>
<totfact> 0.52591137E-01</totfact>
</mgrwt>
</event>
<event>
 6    1  0.2436515E-005  0.3126565E+04  0.7818608E-02  0.8208485E-01
         -2   -1    0    0    0  501 -0.00000000000E+00  0.00000000000E+00  0.17103572890E+04  0.17103572890E+04  0.00000000000E+00 0. -1.
          2   -1    0    0  501    0  0.00000000000E+00 -0.00000000000E+00 -0.14288545644E+04  0.14288545644E+04  0.00000000000E+00 0.  1.
         23    2    1    2    0    0  0.83455110984E+03 -0.10618889443E+04  0.92860959967E+03  0.16416034290E+04  0.91991002166E+02 0.  0.
         13    1    3    3    0    0  0.57418129780E+03 -0.72338023549E+03  0.68581535072E+03  0.11503503045E+04  0.00000000000E+00 0.  1.
        -13    1    3    3    0    0  0.26036981204E+03 -0.33850870881E+03  0.24279424894E+03  0.49125312445E+03  0.00000000000E+00 0. -1.
         22    1    1    2    0    0 -0.83455110984E+03  0.10618889443E+04 -0.64710687513E+03  0.14976084244E+04  0.00000000000E+00 0.  1.
<mgrwt>
<rscale>  0 0.31265648E+04</rscale>
<asrwt>0</asrwt>
<pdfrwt beam="1">  1        2 0.21982378E+00 0.31265648E+04</pdfrwt>
<pdfrwt beam="2">  1       -2 0.26313189E+00 0.31265648E+04</pdfrwt>
<totfact> 0.63005226E-01</totfact>
</mgrwt>
</event>
<event>
 6    1  0.2436515E-005  0.2138497E+04  0.7818608E-02  0.8544472E-01
         -2   -1    0    0    0  501 -0.00000000000E+00  0.00000000000E+00  0.13561585892E+04  0.13561585892E+04  0.00000000000E+00 0. -1.
          2   -1    0    0  501    0  0.00000000000E+00 -0.00000000000E+00 -0.84303750077E+03  0.84303750077E+03  0.00000000000E+00 0.  1.
         23    2    1    2    0    0 -0.48351561239E+03 -0.31199905650E+03 -0.66739918934E+03  0.88589533047E+03  0.90874088373E+02 0.  0.
         13    1    3    3    0    0 -0.20707650982E+03 -0.15139981085E+03 -0.23308149616E+03  0.34659712563E+03  0.00000000000E+00 0. -1.
        -13    1    3    3    0    0 -0.27643910257E+03 -0.16059924565E+03 -0.43431769318E+03  0.53929820484E+03  0.00000000000E+00 0.  1.
         22    1    1    2    0    0  0.48351561239E+03  0.31199905650E+03  0.11805202778E+04  0.13133007595E+04  0.00000000000E+00 0. -1.
<mgrwt>
<rscale>  0 0.21384972E+04</rscale>
<asrwt>0</asrwt>
<pdfrwt beam="1">  1        2 0.12969808E+00 0.21384972E+04</pdfrwt>
<pdfrwt beam="2">  1       -2 0.20863978E+00 0.21384972E+04</pdfrwt>
<totfact> 0.34438683E+00</totfact>
</mgrwt>
</event>
<event>
 6    1  0.2436515E-005  0.4500555E+04  0.7818608E-02  0.7910540E-01
         -2   -1    0    0    0  501 -0.00000000000E+00  0.00000000000E+00  0.13771848021E+04  0.13771848021E+04  0.00000000000E+00 0. -1.
          2   -1    0    0  501    0  0.00000000000E+00 -0.00000000000E+00 -0.36768843506E+04  0.36768843506E+04  0.00000000000E+00 0.  1.
         23    2    1    2    0    0 -0.18072745607E+02 -0.14625561987E+04 -0.30693310229E+04  0.34012745904E+04  0.92079600187E+02 0.  0.
         11    1    3    3    0    0 -0.54057846468E+02 -0.10683474222E+04 -0.22423442747E+04  0.24844307822E+04  0.00000000000E+00 0.  1.
        -11    1    3    3    0    0  0.35985100861E+02 -0.39420877644E+03 -0.82698674823E+03  0.91684380822E+03  0.00000000000E+00 0. -1.
         22    1    1    2    0    0  0.18072745607E+02  0.14625561987E+04  0.76963147446E+03  0.16527945622E+04  0.00000000000E+00 0. -1.
<mgrwt>
<rscale>  0 0.45005552E+04</rscale>
<asrwt>0</asrwt>
<pdfrwt beam="1">  1        2 0.56567452E+00 0.45005552E+04</pdfrwt>
<pdfrwt beam="2">  1       -2 0.21187458E+00 0.45005552E+04</pdfrwt>
<totfact> 0.51091685E-02</totfact>
</mgrwt>
</event>
<event>
 6    1  0.2436515E-005  0.3118528E+04  0.7818608E-02  0.8210671E-01
         -2   -1    0    0    0  501 -0.00000000000E+00  0.00000000000E+00  0.10615462647E+04  0.10615462647E+04  0.00000000000E+00 0. -1.
          2   -1    0    0  501    0  0.00000000000E+00 -0.00000000000E+00 -0.22903420514E+04  0.22903420514E+04  0.00000000000E+00 0.  1.
         23    2    1    2    0    0 -0.91738889456E+02  0.87648189547E+03 -0.19958164271E+04  0.21835744885E+04  0.89876578766E+02 0.  0.
         13    1    3    3    0    0 -0.22430003699E+02  0.15279480953E+03 -0.43914373001E+03  0.46550679317E+03  0.00000000000E+00 0.  1.
        -13    1    3    3    0    0 -0.69308885757E+02  0.72368708594E+03 -0.15566726970E+04  0.17180676953E+04  0.00000000000E+00 0. -1.
         22    1    1    2    0    0  0.91738889456E+02 -0.87648189547E+03  0.76702064044E+03  0.11683138276E+04  0.00000000000E+00 0. -1.
<mgrwt>
<rscale>  0 0.31185279E+04</rscale>
<asrwt>0</asrwt>
<pdfrwt beam="1">  1        2 0.35236031E+00 0.31185279E+04</pdfrwt>
<pdfrwt beam="2">  1       -2 0.16331481E+00 0.31185279E+04</pdfrwt>
<totfact> 0.92683957E-01</totfact>
</mgrwt>
</event>
<event>
 6    1  0.2436515E-005  0.4941119E+04  0.7818608E-02  0.7837655E-01
          2   -1    0    0  501    0  0.00000000000E+00  0.00000000000E+00  0.20853391394E+04  0.20853391394E+04  0.00000000000E+00 0.  1.
         -2   -1    0    0    0  501 -0.00000000000E+00 -0.00000000000E+00 -0.29269408431E+04  0.29269408431E+04  0.00000000000E+00 0. -1.
         23    2    1    2    0    0  0.57295885722E+03 -0.23939744202E+04 -0.62340255274E+03  0.25410442093E+04  0.94231385950E+02 0.  0.
         11    1    3    3    0    0  0.17577145421E+03 -0.89182339022E+03 -0.20235245720E+03  0.93123094901E+03  0.00000000000E+00 0.  1.
        -11    1    3    3    0    0  0.39718740301E+03 -0.15021510300E+04 -0.42105009553E+03  0.16098132603E+04  0.00000000000E+00 0. -1.
         22    1    1    2    0    0 -0.57295885722E+03  0.23939744202E+04 -0.21819915099E+03  0.24712357731E+04  0.00000000000E+00 0. -1.
<mgrwt>
<rscale>  0 0.49411190E+04</rscale>
<asrwt>0</asrwt>
<pdfrwt beam="1">  1        2 0.32082141E+00 0.49411190E+04</pdfrwt>
<pdfrwt beam="2">  1       -2 0.45029859E+00 0.49411190E+04</pdfrwt>
<totfact> 0.15171811E-02</totfact>
</mgrwt>
</event>
<event>
 6    1  0.2436515E-005  0.5496556E+04  0.7818608E-02  0.7756163E-01
         -2   -1    0    0    0  501 -0.00000000000E+00  0.00000000000E+00  0.27283024374E+04  0.27283024374E+04  0.00000000000E+00 0. -1.
          2   -1    0    0  501    0  0.00000000000E+00 -0.00000000000E+00 -0.27684003108E+04  0.27684003108E+04  0.00000000000E+00 0.  1.
         23    2    1    2    0    0 -0.79413913438E+03  0.24834386010E+04  0.84636229920E+03  0.27428080721E+04  0.92426884561E+02 0.  0.
         13    1    3    3    0    0 -0.35399928090E+03  0.10467628788E+04  0.31475762589E+03  0.11489562126E+04  0.00000000000E+00 0.  1.
        -13    1    3    3    0    0 -0.44013985347E+03  0.14366757222E+04  0.53160467332E+03  0.15938518595E+04  0.00000000000E+00 0. -1.
         22    1    1    2    0    0  0.79413913438E+03 -0.24834386010E+04 -0.88646017256E+03  0.27538946762E+04  0.00000000000E+00 0.  1.
<mgrwt>
<rscale>  0 0.54965565E+04</rscale>
<asrwt>0</asrwt>
<pdfrwt beam="1">  1        2 0.42590774E+00 0.54965565E+04</pdfrwt>
<pdfrwt beam="2">  1       -2 0.41973884E+00 0.54965565E+04</pdfrwt>
<totfact> 0.93271719E-03</totfact>
</mgrwt>
</event>
<event>
 6    1  0.2436515E-005  0.3384681E+04  0.7818608E-02  0.8141676E-01
          2   -1    0    0  501    0  0.00000000000E+00  0.00000000000E+00  0.95804758142E+03  0.95804758142E+03  0.00000000000E+00 0.  1.
         -2   -1    0    0    0  501 -0.00000000000E+00 -0.00000000000E+00 -0.29894298436E+04  0.29894298436E+04  0.00000000000E+00 0. -1.
         23    2    1    2    0    0  0.21147310429E+03 -0.48283372881E+03 -0.28904834906E+04  0.29395566919E+04  0.90826495551E+02 0.  0.
         11    1    3    3    0    0  0.19398121906E+02 -0.14404625451E+03 -0.76214323228E+03  0.77587880309E+03  0.00000000000E+00 0.  1.
        -11    1    3    3    0    0  0.19207498238E+03 -0.33878747429E+03 -0.21283402583E+04  0.21636778888E+04  0.00000000000E+00 0. -1.
         22    1    1    2    0    0 -0.21147310429E+03  0.48283372881E+03  0.85910122841E+03  0.10079207331E+04  0.00000000000E+00 0.  1.
<mgrwt>
<rscale>  0 0.33846808E+04</rscale>
<asrwt>0</asrwt>
<pdfrwt beam="1">  1        2 0.14739193E+00 0.33846808E+04</pdfrwt>
<pdfrwt beam="2">  1       -2 0.45991229E+00 0.33846808E+04</pdfrwt>
<totfact> 0.66332565E-02</totfact>
</mgrwt>
</event>
<event>
 6    1  0.2436515E-005  0.1807852E+04  0.7818608E-02  0.8702135E-01
         -2   -1    0    0    0  501 -0.00000000000E+00  0.00000000000E+00  0.13559224421E+04  0.13559224421E+04  0.00000000000E+00 0. -1.
          2   -1    0    0  501    0  0.00000000000E+00 -0.00000000000E+00 -0.60260236771E+03  0.60260236771E+03  0.00000000000E+00 0.  1.
         23    2    1    2    0    0 -0.85677159481E+03  0.26204194771E+03  0.48719241367E+03  0.10238871903E+04  0.90911948560E+02 0.  0.
         13    1    3    3    0    0 -0.78329882760E+03  0.26136733707E+03  0.43156176406E+03  0.93172715663E+03  0.00000000000E+00 0. -1.
        -13    1    3    3    0    0 -0.73472767210E+02  0.67461064472E+00  0.55630649610E+02  0.92160033621E+02  0.00000000000E+00 0.  1.
         22    1    1    2    0    0  0.85677159481E+03 -0.26204194771E+03  0.26612766069E+03  0.93463761952E+03  0.00000000000E+00 0. -1.
<mgrwt>
<rscale>  0 0.18078518E+04</rscale>
<asrwt>0</asrwt>
<pdfrwt beam="1">  1        2 0.92708057E-01 0.18078518E+04</pdfrwt>
<pdfrwt beam="2">  1       -2 0.20860345E+00 0.18078518E+04</pdfrwt>
<totfact> 0.54375534E+00</totfact>
</mgrwt>
</event>
<event>
 6    1  0.2436515E-005  0.8154775E+03  0.7818608E-02  0.9537880E-01
          2   -1    0    0  501    0  0.00000000000E+00  0.00000000000E+00  0.16892553284E+04  0.16892553284E+04  0.00000000000E+00 0.  1.
         -2   -1    0    0    0  501 -0.00000000000E+00 -0.00000000000E+00 -0.98416664650E+02  0.98416664650E+02  0.00000000000E+00 0. -1.
         23    2    1    2    0    0  0.18930945514E+03 -0.22619188504E+03  0.20425113799E+03  0.37005927963E+03  0.90689053396E+02 0.  0.
         13    1    3    3    0    0  0.17444942737E+03 -0.14744223517E+03  0.14874250194E+03  0.27257319623E+03  0.00000000000E+00 0.  1.
        -13    1    3    3    0    0  0.14860027771E+02 -0.78749649866E+02  0.55508636050E+02  0.97486083394E+02  0.00000000000E+00 0. -1.
         22    1    1    2    0    0 -0.18930945514E+03  0.22619188504E+03  0.13865875257E+04  0.14176127134E+04  0.00000000000E+00 0.  1.
<mgrwt>
<rscale>  0 0.81547747E+03</rscale>
<asrwt>0</asrwt>
<pdfrwt beam="1">  1        2 0.25988541E+00 0.81547747E+03</pdfrwt>
<pdfrwt beam="2">  1       -2 0.15141027E-01 0.81547747E+03</pdfrwt>
<totfact> 0.34700991E+02</totfact>
</mgrwt>
</event>
<event>
 6    1  0.2436515E-005  0.1615042E+04  0.7818608E-02  0.8811360E-01
          2   -1    0    0  501    0  0.00000000000E+00  0.00000000000E+00  0.13757662409E+04  0.13757662409E+04  0.00000000000E+00 0.  1.
         -2   -1    0    0    0  501 -0.00000000000E+00 -0.00000000000E+00 -0.47398324919E+03  0.47398324919E+03  0.00000000000E+00 0. -1.
         23    2    1    2    0    0 -0.30417559950E+03  0.39179362596E+03 -0.27373986218E+03  0.57386586660E+03  0.91452064114E+02 0.  0.
         11    1    3    3    0    0 -0.69600510183E+02  0.15426939604E+03 -0.11174441452E+03  0.20280555157E+03  0.00000000000E+00 0.  1.
        -11    1    3    3    0    0 -0.23457508932E+03  0.23752422992E+03 -0.16199544767E+03  0.37106031503E+03  0.00000000000E+00 0. -1.
         22    1    1    2    0    0  0.30417559950E+03 -0.39179362596E+03  0.11755228539E+04  0.12758836235E+04  0.00000000000E+00 0.  1.
<mgrwt>
<rscale>  0 0.16150420E+04</rscale>
<asrwt>0</asrwt>
<pdfrwt beam="1">  1        2 0.21165634E+00 0.16150420E+04</pdfrwt>
<pdfrwt beam="2">  1       -2 0.72920500E-01 0.16150420E+04</pdfrwt>
<totfact> 0.24320093E+01</totfact>
</mgrwt>
</event>
<event>
 6    1  0.2436515E-005  0.5415900E+04  0.7818608E-02  0.7767368E-01
          2   -1    0    0  501    0  0.00000000000E+00  0.00000000000E+00  0.43395961736E+04  0.43395961736E+04  0.00000000000E+00 0.  1.
         -2   -1    0    0    0  501 -0.00000000000E+00 -0.00000000000E+00 -0.16897872408E+04  0.16897872408E+04  0.00000000000E+00 0. -1.
         23    2    1    2    0    0  0.10289374609E+04  0.25016289371E+04  0.12035495064E+04  0.29620513544E+04  0.91417582387E+02 0.  0.
         11    1    3    3    0    0  0.30753873851E+03  0.65006797723E+03  0.33720068714E+03  0.79427498646E+03  0.00000000000E+00 0.  1.
        -11    1    3    3    0    0  0.72139872243E+03  0.18515609599E+04  0.86634881925E+03  0.21677763680E+04  0.00000000000E+00 0. -1.
         22    1    1    2    0    0 -0.10289374609E+04 -0.25016289371E+04  0.14462594264E+04  0.30673320600E+04  0.00000000000E+00 0. -1.
<mgrwt>
<rscale>  0 0.54159004E+04</rscale>
<asrwt>0</asrwt>
<pdfrwt beam="1">  1        2 0.66763018E+00 0.54159004E+04</pdfrwt>
<pdfrwt beam="2">  1       -2 0.25996727E+00 0.54159004E+04</pdfrwt>
<totfact> 0.68075838E-03</totfact>
</mgrwt>
</event>
<event>
 6    1  0.2436515E-005  0.2470739E+04  0.7818608E-02  0.8413485E-01
         -2   -1    0    0    0  501 -0.00000000000E+00  0.00000000000E+00  0.11661308574E+04  0.11661308574E+04  0.00000000000E+00 0. -1.
          2   -1    0    0  501    0  0.00000000000E+00 -0.00000000000E+00 -0.13087190577E+04  0.13087190577E+04  0.00000000000E+00 0.  1.
         23    2    1    2    0    0 -0.40604928992E+03 -0.50703889674E+03  0.97909109088E+03  0.11786520517E+04  0.92934525675E+02 0.  0.
         11    1    3    3    0    0 -0.34033363392E+03 -0.36897263714E+03  0.71766340956E+03  0.87579024815E+03  0.00000000000E+00 0. -1.
        -11    1    3    3    0    0 -0.65715656005E+02 -0.13806625960E+03  0.26142768132E+03  0.30286180354E+03  0.00000000000E+00 0.  1.
         22    1    1    2    0    0  0.40604928992E+03  0.50703889674E+03 -0.11216792913E+04  0.12961978634E+04  0.00000000000E+00 0.  1.
<mgrwt>
<rscale>  0 0.24707389E+04</rscale>
<asrwt>0</asrwt>
<pdfrwt beam="1">  1        2 0.20134139E+00 0.24707389E+04</pdfrwt>
<pdfrwt beam="2">  1       -2 0.17940475E+00 0.24707389E+04</pdfrwt>
<totfact> 0.26741753E+00</totfact>
</mgrwt>
</event>
<event>
 6    1  0.2436515E-005  0.2090845E+04  0.7818608E-02  0.8565287E-01
         -2   -1    0    0    0  501 -0.00000000000E+00  0.00000000000E+00  0.90889819257E+03  0.90889819257E+03  0.00000000000E+00 0.  1.
          2   -1    0    0  501    0  0.00000000000E+00 -0.00000000000E+00 -0.12024543282E+04  0.12024543282E+04  0.00000000000E+00 0. -1.
         23    2    1    2    0    0 -0.40123994500E+03  0.83174493726E+03  0.34429578754E+03  0.98901201538E+03  0.82535102374E+02 0.  0.
         13    1    3    3    0    0 -0.24378140520E+03  0.54501007473E+03  0.18421872448E+03  0.62482148933E+03  0.00000000000E+00 0.  1.
        -13    1    3    3    0    0 -0.15745853980E+03  0.28673486253E+03  0.16007706306E+03  0.36419052605E+03  0.00000000000E+00 0. -1.
         22    1    1    2    0    0  0.40123994500E+03 -0.83174493726E+03 -0.63785192312E+03  0.11223405054E+04  0.00000000000E+00 0.  1.
<mgrwt>
<rscale>  0 0.20908453E+04</rscale>
<asrwt>0</asrwt>
<pdfrwt beam="1">  1        2 0.18499297E+00 0.20908453E+04</pdfrwt>
<pdfrwt beam="2">  1       -2 0.13983049E+00 0.20908453E+04</pdfrwt>
<totfact> 0.62730513E+00</totfact>
</mgrwt>
</event>
<event>
 6    1  0.2436515E-005  0.2158504E+04  0.7818608E-02  0.8535901E-01
         -2   -1    0    0    0  501 -0.00000000000E+00  0.00000000000E+00  0.54767896219E+03  0.54767896219E+03  0.00000000000E+00 0. -1.
          2   -1    0    0  501    0  0.00000000000E+00 -0.00000000000E+00 -0.21267656709E+04  0.21267656709E+04  0.00000000000E+00 0.  1.
         23    2    1    2    0    0 -0.10205817233E+04  0.27708558582E+03 -0.10452984186E+04  0.14898377723E+04  0.92759517796E+02 0.  0.
         11    1    3    3    0    0 -0.26015425735E+03  0.30065177497E+02 -0.26908868338E+03  0.37549017569E+03  0.00000000000E+00 0.  1.
        -11    1    3    3    0    0 -0.76042746599E+03  0.24702040832E+03 -0.77620973518E+03  0.11143475966E+04  0.00000000000E+00 0. -1.
         22    1    1    2    0    0  0.10205817233E+04 -0.27708558582E+03 -0.53378829018E+03  0.11846068608E+04  0.00000000000E+00 0.  1.
<mgrwt>
<rscale>  0 0.21585039E+04</rscale>
<asrwt>0</asrwt>
<pdfrwt beam="1">  1        2 0.32719472E+00 0.21585039E+04</pdfrwt>
<pdfrwt beam="2">  1       -2 0.84258302E-01 0.21585039E+04</pdfrwt>
<totfact> 0.63989846E+00</totfact>
</mgrwt>
</event>
<event>
 6    1  0.2436515E-005  0.2487746E+04  0.7818608E-02  0.8407364E-01
         -2   -1    0    0    0  501 -0.00000000000E+00  0.00000000000E+00  0.10197109537E+04  0.10197109537E+04  0.00000000000E+00 0. -1.
          2   -1    0    0  501    0  0.00000000000E+00 -0.00000000000E+00 -0.15173118350E+04  0.15173118350E+04  0.00000000000E+00 0.  1.
         23    2    1    2    0    0 -0.95521290830E+02  0.12016731270E+04 -0.55488758765E+03  0.13301986971E+04  0.91573564902E+02 0.  0.
         11    1    3    3    0    0 -0.86848229116E+02  0.63108683285E+03 -0.32285357509E+03  0.71417619426E+03  0.00000000000E+00 0. -1.
        -11    1    3    3    0    0 -0.86730617139E+01  0.57058629414E+03 -0.23203401255E+03  0.61602250287E+03  0.00000000000E+00 0.  1.
         22    1    1    2    0    0  0.95521290830E+02 -0.12016731270E+04  0.57286706354E+02  0.12068240915E+04  0.00000000000E+00 0. -1.
<mgrwt>
<rscale>  0 0.24877456E+04</rscale>
<asrwt>0</asrwt>
<pdfrwt beam="1">  1        2 0.23343259E+00 0.24877456E+04</pdfrwt>
<pdfrwt beam="2">  1       -2 0.15687861E+00 0.24877456E+04</pdfrwt>
<totfact> 0.29450035E+00</totfact>
</mgrwt>
</event>
<event>
 6    1  0.2436515E-005  0.3346933E+04  0.7818608E-02  0.8151055E-01
         -2   -1    0    0    0  501 -0.00000000000E+00  0.00000000000E+00  0.25765074409E+04  0.25765074409E+04  0.00000000000E+00 0. -1.
          2   -1    0    0  501    0  0.00000000000E+00 -0.00000000000E+00 -0.10869328335E+04  0.10869328335E+04  0.00000000000E+00 0.  1.
         23    2    1    2    0    0 -0.14617416923E+04 -0.18568978702E+03  0.16107724948E+04  0.21849753948E+04  0.91432893650E+02 0.  0.
         11    1    3    3    0    0 -0.10495220584E+04 -0.94217415099E+02  0.11288165146E+04  0.15442150744E+04  0.00000000000E+00 0. -1.
        -11    1    3    3    0    0 -0.41221963388E+03 -0.91472371922E+02  0.48195598018E+03  0.64076032041E+03  0.00000000000E+00 0.  1.
         22    1    1    2    0    0  0.14617416923E+04  0.18568978702E+03 -0.12119788741E+03  0.14784648795E+04  0.00000000000E+00 0.  1.
<mgrwt>
<rscale>  0 0.33469332E+04</rscale>
<asrwt>0</asrwt>
<pdfrwt beam="1">  1        2 0.16722044E+00 0.33469332E+04</pdfrwt>
<pdfrwt beam="2">  1       -2 0.39638576E+00 0.33469332E+04</pdfrwt>
<totfact> 0.14461004E-01</totfact>
</mgrwt>
</event>
<event>
 6    1  0.2436515E-005  0.1812291E+04  0.7818608E-02  0.8699790E-01
         -2   -1    0    0    0  501 -0.00000000000E+00  0.00000000000E+00  0.84694339739E+03  0.84694339739E+03  0.00000000000E+00 0.  1.
          2   -1    0    0  501    0  0.00000000000E+00 -0.00000000000E+00 -0.96948624627E+03  0.96948624627E+03  0.00000000000E+00 0. -1.
         23    2    1    2    0    0  0.45583017692E+03 -0.25914175032E+03  0.67354561752E+03  0.86317603454E+03  0.12834940897E+03 0.  0.
         11    1    3    3    0    0  0.15849005828E+03 -0.15728150228E+03  0.31888793175E+03  0.38928920168E+03  0.00000000000E+00 0.  1.
        -11    1    3    3    0    0  0.29734011864E+03 -0.10186024804E+03  0.35465768577E+03  0.47388683286E+03  0.00000000000E+00 0. -1.
         22    1    1    2    0    0 -0.45583017692E+03  0.25914175032E+03 -0.79608846640E+03  0.95325360911E+03  0.00000000000E+00 0. -1.
<mgrwt>
<rscale>  0 0.18122913E+04</rscale>
<asrwt>0</asrwt>
<pdfrwt beam="1">  1        2 0.14915173E+00 0.18122913E+04</pdfrwt>
<pdfrwt beam="2">  1       -2 0.13029898E+00 0.18122913E+04</pdfrwt>
<totfact> 0.10735250E+01</totfact>
</mgrwt>
</event>
<event>
 6    1  0.2436515E-005  0.2107206E+04  0.7818608E-02  0.8558075E-01
         -2   -1    0    0    0  501 -0.00000000000E+00  0.00000000000E+00  0.48098621901E+03  0.48098621901E+03  0.00000000000E+00 0.  1.
          2   -1    0    0  501    0  0.00000000000E+00 -0.00000000000E+00 -0.23079243416E+04  0.23079243416E+04  0.00000000000E+00 0. -1.
         23    2    1    2    0    0 -0.70461025565E+03  0.76784792297E+03 -0.72823549738E+03  0.12745745662E+04  0.90262617468E+02 0.  0.
         11    1    3    3    0    0 -0.46375952085E+03  0.46352957808E+03 -0.49752063329E+03  0.82307918421E+03  0.00000000000E+00 0. -1.
        -11    1    3    3    0    0 -0.24085073480E+03  0.30431834488E+03 -0.23071486409E+03  0.45149538203E+03  0.00000000000E+00 0.  1.
         22    1    1    2    0    0  0.70461025565E+03 -0.76784792297E+03 -0.10987026252E+04  0.15143359944E+04  0.00000000000E+00 0. -1.
<mgrwt>
<rscale>  0 0.21072065E+04</rscale>
<asrwt>0</asrwt>
<pdfrwt beam="1">  1        2 0.35506529E+00 0.21072065E+04</pdfrwt>
<pdfrwt beam="2">  1       -2 0.73997878E-01 0.21072065E+04</pdfrwt>
<totfact> 0.67985301E+00</totfact>
</mgrwt>
</event>
<event>
 6    1  0.2436515E-005  0.3280264E+04  0.7818608E-02  0.8167935E-01
          1   -1    0    0  501    0  0.00000000000E+00  0.00000000000E+00  0.31352081815E+04  0.31352081815E+04  0.00000000000E+00 0. -1.
         -1   -1    0    0    0  501 -0.00000000000E+00 -0.00000000000E+00 -0.85800775791E+03  0.85800775791E+03  0.00000000000E+00 0.  1.
         23    2    1    2    0    0 -0.28948311196E+03  0.35288714368E+03  0.30550077850E+04  0.30913766524E+04  0.12331760733E+03 0.  0.
         11    1    3    3    0    0 -0.19463877254E+03  0.20849764805E+03  0.22523779603E+04  0.22703660491E+04  0.00000000000E+00 0. -1.
        -11    1    3    3    0    0 -0.94844339418E+02  0.14438949563E+03  0.80262982470E+03  0.82101060326E+03  0.00000000000E+00 0.  1.
         22    1    1    2    0    0  0.28948311196E+03 -0.35288714368E+03 -0.77780736136E+03  0.90183928705E+03  0.00000000000E+00 0.  1.
<mgrwt>
<rscale>  0 0.32802640E+04</rscale>
<asrwt>0</asrwt>
<pdfrwt beam="1">  1        1 0.48233971E+00 0.32802640E+04</pdfrwt>
<pdfrwt beam="2">  1       -1 0.13200120E+00 0.32802640E+04</pdfrwt>
<totfact> 0.19246342E-01</totfact>
</mgrwt>
</event>
<event>
 6    1  0.2436515E-005  0.2605877E+04  0.7818608E-02  0.8366208E-01
         -2   -1    0    0    0  501 -0.00000000000E+00  0.00000000000E+00  0.89971476744E+03  0.89971476744E+03  0.00000000000E+00 0. -1.
          2   -1    0    0  501    0  0.00000000000E+00 -0.00000000000E+00 -0.18868743788E+04  0.18868743788E+04  0.00000000000E+00 0.  1.
         23    2    1    2    0    0 -0.95063610178E+02 -0.12292992473E+04 -0.48613452695E+02  0.12370464327E+04  0.87788834737E+02 0.  0.
         13    1    3    3    0    0 -0.12955792560E+02 -0.28075857324E+03 -0.46983191571E+02  0.28495727627E+03  0.00000000000E+00 0. -1.
        -13    1    3    3    0    0 -0.82107817617E+02 -0.94854067401E+03 -0.16302611235E+01  0.95208915639E+03  0.00000000000E+00 0.  1.
         22    1    1    2    0    0  0.95063610178E+02  0.12292992473E+04 -0.93854615867E+03  0.15495427136E+04  0.00000000000E+00 0.  1.
<mgrwt>
<rscale>  0 0.26058770E+04</rscale>
<asrwt>0</asrwt>
<pdfrwt beam="1">  1        2 0.29028836E+00 0.26058770E+04</pdfrwt>
<pdfrwt beam="2">  1       -2 0.13841766E+00 0.26058770E+04</pdfrwt>
<totfact> 0.25257709E+00</totfact>
</mgrwt>
</event>
<event>
 6    1  0.2436515E-005  0.3138434E+04  0.7818608E-02  0.8205269E-01
         -2   -1    0    0    0  501 -0.00000000000E+00  0.00000000000E+00  0.97152501929E+03  0.97152501929E+03  0.00000000000E+00 0. -1.
          2   -1    0    0  501    0  0.00000000000E+00 -0.00000000000E+00 -0.25346143852E+04  0.25346143852E+04  0.00000000000E+00 0.  1.
         23    2    1    2    0    0  0.12601255425E+03 -0.53292017856E+03 -0.24234242052E+04  0.24863065180E+04  0.94085824748E+02 0.  0.
         13    1    3    3    0    0  0.96753959041E+02 -0.31563023833E+03 -0.12684178019E+04  0.13106744432E+04  0.00000000000E+00 0. -1.
        -13    1    3    3    0    0  0.29258595206E+02 -0.21728994023E+03 -0.11550064033E+04  0.11756320748E+04  0.00000000000E+00 0.  1.
         22    1    1    2    0    0 -0.12601255425E+03  0.53292017856E+03  0.86033483934E+03  0.10198328865E+04  0.00000000000E+00 0. -1.
<mgrwt>
<rscale>  0 0.31384336E+04</rscale>
<asrwt>0</asrwt>
<pdfrwt beam="1">  1        2 0.38994067E+00 0.31384336E+04</pdfrwt>
<pdfrwt beam="2">  1       -2 0.14946539E+00 0.31384336E+04</pdfrwt>
<totfact> 0.85058972E-01</totfact>
</mgrwt>
</event>
<event>
 6    1  0.2436515E-005  0.1073085E+04  0.7818608E-02  0.9231829E-01
          2   -1    0    0  501    0  0.00000000000E+00  0.00000000000E+00  0.51908392888E+03  0.51908392888E+03  0.00000000000E+00 0.  1.
         -2   -1    0    0    0  501 -0.00000000000E+00 -0.00000000000E+00 -0.55458839926E+03  0.55458839926E+03  0.00000000000E+00 0. -1.
         23    2    1    2    0    0 -0.27449381401E+03  0.24198654893E+03  0.36946667853E+03  0.52786469240E+03  0.90725757898E+02 0.  0.
         11    1    3    3    0    0 -0.20637684506E+03  0.22775800971E+03  0.30515421132E+03  0.43310992352E+03  0.00000000000E+00 0.  1.
        -11    1    3    3    0    0 -0.68116968948E+02  0.14228539219E+02  0.64312467204E+02  0.94754768876E+02  0.00000000000E+00 0. -1.
         22    1    1    2    0    0  0.27449381401E+03 -0.24198654893E+03 -0.40497114891E+03  0.54580763575E+03  0.00000000000E+00 0. -1.
<mgrwt>
<rscale>  0 0.10730851E+04</rscale>
<asrwt>0</asrwt>
<pdfrwt beam="1">  1        2 0.79859066E-01 0.10730851E+04</pdfrwt>
<pdfrwt beam="2">  1       -2 0.85321292E-01 0.10730851E+04</pdfrwt>
<totfact> 0.70058889E+01</totfact>
</mgrwt>
</event>
<event>
 6    1  0.2436515E-005  0.2448776E+04  0.7818608E-02  0.8421465E-01
          2   -1    0    0  501    0  0.00000000000E+00  0.00000000000E+00  0.13042056508E+04  0.13042056508E+04  0.00000000000E+00 0.  1.
         -2   -1    0    0    0  501 -0.00000000000E+00 -0.00000000000E+00 -0.11494556268E+04  0.11494556268E+04  0.00000000000E+00 0. -1.
         23    2    1    2    0    0  0.31897631572E+03 -0.13913762207E+03 -0.10971598879E+04  0.11542831204E+04  0.86628716909E+02 0.  0.
         13    1    3    3    0    0  0.27449424553E+03 -0.90820723649E+02 -0.82105879984E+03  0.87047863125E+03  0.00000000000E+00 0. -1.
        -13    1    3    3    0    0  0.44482070190E+02 -0.48316898416E+02 -0.27610108803E+03  0.28380448913E+03  0.00000000000E+00 0.  1.
         22    1    1    2    0    0 -0.31897631572E+03  0.13913762207E+03  0.12519099119E+04  0.12993781572E+04  0.00000000000E+00 0.  1.
<mgrwt>
<rscale>  0 0.24487764E+04</rscale>
<asrwt>0</asrwt>
<pdfrwt beam="1">  1        2 0.20064702E+00 0.24487764E+04</pdfrwt>
<pdfrwt beam="2">  1       -2 0.17683933E+00 0.24487764E+04</pdfrwt>
<totfact> 0.28083563E+00</totfact>
</mgrwt>
</event>
<event>
 6    1  0.2436515E-005  0.4690364E+04  0.7818608E-02  0.7878132E-01
         -2   -1    0    0    0  501 -0.00000000000E+00  0.00000000000E+00  0.17587938851E+04  0.17587938851E+04  0.00000000000E+00 0. -1.
          2   -1    0    0  501    0  0.00000000000E+00 -0.00000000000E+00 -0.31270735567E+04  0.31270735567E+04  0.00000000000E+00 0.  1.
         23    2    1    2    0    0 -0.65716480744E+03 -0.17621910358E+04 -0.21422109721E+04  0.28521141410E+04  0.91128446259E+02 0.  0.
         11    1    3    3    0    0 -0.16952536826E+03 -0.53794041913E+03 -0.68788856729E+03  0.88955574644E+03  0.00000000000E+00 0. -1.
        -11    1    3    3    0    0 -0.48763943918E+03 -0.12242506166E+04 -0.14543224048E+04  0.19625583945E+04  0.00000000000E+00 0.  1.
         22    1    1    2    0    0  0.65716480744E+03  0.17621910358E+04  0.77393130040E+03  0.20337533008E+04  0.00000000000E+00 0. -1.
<mgrwt>
<rscale>  0 0.46903637E+04</rscale>
<asrwt>0</asrwt>
<pdfrwt beam="1">  1        2 0.48108824E+00 0.46903637E+04</pdfrwt>
<pdfrwt beam="2">  1       -2 0.27058368E+00 0.46903637E+04</pdfrwt>
<totfact> 0.51819465E-02</totfact>
</mgrwt>
</event>
<event>
 6    1  0.2436515E-005  0.3949720E+04  0.7818608E-02  0.8014767E-01
          2   -1    0    0  501    0  0.00000000000E+00  0.00000000000E+00  0.21326174213E+04  0.21326174213E+04  0.00000000000E+00 0.  1.
         -2   -1    0    0    0  501 -0.00000000000E+00 -0.00000000000E+00 -0.18287726899E+04  0.18287726899E+04  0.00000000000E+00 0. -1.
         23    2    1    2    0    0 -0.34409460563E+03  0.10427007015E+04 -0.14930013474E+04  0.18556166948E+04  0.92921710807E+02 0.  0.
         11    1    3    3    0    0 -0.14578369812E+03  0.50108035514E+03 -0.63780428500E+03  0.82409266160E+03  0.00000000000E+00 0.  1.
        -11    1    3    3    0    0 -0.19831090751E+03  0.54162034634E+03 -0.85519706239E+03  0.10315240332E+04  0.00000000000E+00 0. -1.
         22    1    1    2    0    0  0.34409460563E+03 -0.10427007015E+04  0.17968460787E+04  0.21057734164E+04  0.00000000000E+00 0.  1.
<mgrwt>
<rscale>  0 0.39497202E+04</rscale>
<asrwt>0</asrwt>
<pdfrwt beam="1">  1        2 0.32809499E+00 0.39497202E+04</pdfrwt>
<pdfrwt beam="2">  1       -2 0.28134964E+00 0.39497202E+04</pdfrwt>
<totfact> 0.18441343E-01</totfact>
</mgrwt>
</event>
<event>
 6    1  0.2436515E-005  0.1907085E+04  0.7818608E-02  0.8651338E-01
          1   -1    0    0  501    0  0.00000000000E+00  0.00000000000E+00  0.17070081662E+04  0.17070081662E+04  0.00000000000E+00 0.  1.
         -1   -1    0    0    0  501 -0.00000000000E+00 -0.00000000000E+00 -0.53265312140E+03  0.53265312140E+03  0.00000000000E+00 0. -1.
         23    2    1    2    0    0 -0.44412485640E+03 -0.66338664463E+03  0.11963645534E+04  0.14410292404E+04  0.89153793133E+02 0.  0.
         13    1    3    3    0    0 -0.20255722532E+03 -0.32547536933E+03  0.65103364096E+03  0.75551866107E+03  0.00000000000E+00 0.  1.
        -13    1    3    3    0    0 -0.24156763108E+03 -0.33791127530E+03  0.54533091242E+03  0.68551057935E+03  0.00000000000E+00 0. -1.
         22    1    1    2    0    0  0.44412485640E+03  0.66338664463E+03 -0.22009508559E+02  0.79863204720E+03  0.00000000000E+00 0. -1.
<mgrwt>
<rscale>  0 0.19070849E+04</rscale>
<asrwt>0</asrwt>
<pdfrwt beam="1">  1        1 0.26261664E+00 0.19070849E+04</pdfrwt>
<pdfrwt beam="2">  1       -1 0.81946635E-01 0.19070849E+04</pdfrwt>
<totfact> 0.65299870E+00</totfact>
</mgrwt>
</event>
<event>
 6    1  0.2436515E-005  0.2591646E+04  0.7818608E-02  0.8371044E-01
          2   -1    0    0  501    0  0.00000000000E+00  0.00000000000E+00  0.16431602429E+04  0.16431602429E+04  0.00000000000E+00 0.  1.
         -2   -1    0    0    0  501 -0.00000000000E+00 -0.00000000000E+00 -0.10219075283E+04  0.10219075283E+04  0.00000000000E+00 0. -1.
         23    2    1    2    0    0 -0.31670777322E+03  0.82077130041E+03 -0.66529384931E+03  0.11064878398E+04  0.87920944848E+02 0.  0.
         11    1    3    3    0    0 -0.22519895846E+03  0.57823775678E+03 -0.51807082893E+03  0.80837544374E+03  0.00000000000E+00 0.  1.
        -11    1    3    3    0    0 -0.91508814759E+02  0.24253354364E+03 -0.14722302038E+03  0.29811239608E+03  0.00000000000E+00 0. -1.
         22    1    1    2    0    0  0.31670777322E+03 -0.82077130041E+03  0.12865465640E+04  0.15585799314E+04  0.00000000000E+00 0.  1.
<mgrwt>
<rscale>  0 0.25916464E+04</rscale>
<asrwt>0</asrwt>
<pdfrwt beam="1">  1        2 0.25279388E+00 0.25916464E+04</pdfrwt>
<pdfrwt beam="2">  1       -2 0.15721654E+00 0.25916464E+04</pdfrwt>
<totfact> 0.24674161E+00</totfact>
</mgrwt>
</event>
<event>
 6    1  0.2436515E-005  0.6257268E+03  0.7818608E-02  0.9853423E-01
          2   -1    0    0  501    0  0.00000000000E+00  0.00000000000E+00  0.99769930270E+03  0.99769930270E+03  0.00000000000E+00 0.  1.
         -2   -1    0    0    0  501 -0.00000000000E+00 -0.00000000000E+00 -0.98109240855E+02  0.98109240855E+02  0.00000000000E+00 0. -1.
         23    2    1    2    0    0 -0.12266178330E+03  0.18890548087E+03  0.82178397094E+03  0.85751254785E+03  0.96268795795E+02 0.  0.
         11    1    3    3    0    0 -0.99120445353E+02  0.66135420876E+02  0.36690256367E+03  0.38576709011E+03  0.00000000000E+00 0. -1.
        -11    1    3    3    0    0 -0.23541337947E+02  0.12277006000E+03  0.45488140727E+03  0.47174545774E+03  0.00000000000E+00 0.  1.
         22    1    1    2    0    0  0.12266178330E+03 -0.18890548087E+03  0.77806090905E+02  0.23829599570E+03  0.00000000000E+00 0. -1.
<mgrwt>
<rscale>  0 0.62572685E+03</rscale>
<asrwt>0</asrwt>
<pdfrwt beam="1">  1        2 0.15349219E+00 0.62572685E+03</pdfrwt>
<pdfrwt beam="2">  1       -2 0.15093730E-01 0.62572685E+03</pdfrwt>
<totfact> 0.88310520E+02</totfact>
</mgrwt>
</event>
<event>
 6    1  0.2436515E-005  0.3429521E+04  0.7818608E-02  0.8130699E-01
         -2   -1    0    0    0  501 -0.00000000000E+00  0.00000000000E+00  0.92202669687E+03  0.92202669687E+03  0.00000000000E+00 0. -1.
          2   -1    0    0  501    0  0.00000000000E+00 -0.00000000000E+00 -0.31890650909E+04  0.31890650909E+04  0.00000000000E+00 0.  1.
         23    2    1    2    0    0 -0.24034840310E+03  0.93661791725E+03 -0.28301074405E+04  0.29921336881E+04  0.91298438022E+02 0.  0.
         11    1    3    3    0    0 -0.14798364928E+03  0.53525589785E+03 -0.14877990347E+04  0.15880629724E+04  0.00000000000E+00 0. -1.
        -11    1    3    3    0    0 -0.92364753817E+02  0.40136201941E+03 -0.13423084058E+04  0.14040707157E+04  0.00000000000E+00 0.  1.
         22    1    1    2    0    0  0.24034840310E+03 -0.93661791725E+03  0.56306904646E+03  0.11189580997E+04  0.00000000000E+00 0. -1.
<mgrwt>
<rscale>  0 0.34295208E+04</rscale>
<asrwt>0</asrwt>
<pdfrwt beam="1">  1        2 0.49062540E+00 0.34295208E+04</pdfrwt>
<pdfrwt beam="2">  1       -2 0.14185026E+00 0.34295208E+04</pdfrwt>
<totfact> 0.37774403E-01</totfact>
</mgrwt>
</event>
<event>
 6    1  0.2436515E-005  0.2049751E+04  0.7818608E-02  0.8583707E-01
          2   -1    0    0  501    0  0.00000000000E+00  0.00000000000E+00  0.17204533852E+04  0.17204533852E+04  0.00000000000E+00 0.  1.
         -2   -1    0    0    0  501 -0.00000000000E+00 -0.00000000000E+00 -0.61051943537E+03  0.61051943537E+03  0.00000000000E+00 0. -1.
         23    2    1    2    0    0 -0.38619494614E+03  0.39742580939E+03  0.15337412399E+04  0.16333293375E+04  0.91152200547E+02 0.  0.
         13    1    3    3    0    0 -0.25269321447E+03  0.27620862196E+03  0.90858255131E+03  0.98268373143E+03  0.00000000000E+00 0. -1.
        -13    1    3    3    0    0 -0.13350173166E+03  0.12121718743E+03  0.62515868855E+03  0.65064560611E+03  0.00000000000E+00 0.  1.
         22    1    1    2    0    0  0.38619494614E+03 -0.39742580939E+03 -0.42380728999E+03  0.69764348305E+03  0.00000000000E+00 0. -1.
<mgrwt>
<rscale>  0 0.20497514E+04</rscale>
<asrwt>0</asrwt>
<pdfrwt beam="1">  1        2 0.26468513E+00 0.20497514E+04</pdfrwt>
<pdfrwt beam="2">  1       -2 0.93926068E-01 0.20497514E+04</pdfrwt>
<totfact> 0.84605845E+00</totfact>
</mgrwt>
</event>
<event>
 6    1  0.2436515E-005  0.7201846E+04  0.7818608E-02  0.7556970E-01
          2   -1    0    0  501    0  0.00000000000E+00  0.00000000000E+00  0.43630693395E+04  0.43630693395E+04  0.00000000000E+00 0.  1.
         -2   -1    0    0    0  501 -0.00000000000E+00 -0.00000000000E+00 -0.29719089722E+04  0.29719089722E+04  0.00000000000E+00 0. -1.
         23    2    1    2    0    0 -0.18448960847E+04 -0.16451892344E+04  0.33617408845E+04  0.41737322353E+04  0.91922885894E+02 0.  0.
         11    1    3    3    0    0 -0.75607402048E+03 -0.62752578012E+03  0.12879380724E+04  0.16199447544E+04  0.00000000000E+00 0.  1.
        -11    1    3    3    0    0 -0.10888220642E+04 -0.10176634543E+04  0.20738028122E+04  0.25537874809E+04  0.00000000000E+00 0. -1.
         22    1    1    2    0    0  0.18448960847E+04  0.16451892344E+04 -0.19705805173E+04  0.31612460764E+04  0.00000000000E+00 0. -1.
<mgrwt>
<rscale>  0 0.72018456E+04</rscale>
<asrwt>0</asrwt>
<pdfrwt beam="1">  1        2 0.67124144E+00 0.72018456E+04</pdfrwt>
<pdfrwt beam="2">  1       -2 0.45721676E+00 0.72018456E+04</pdfrwt>
<totfact> 0.31630767E-04</totfact>
</mgrwt>
</event>
<event>
 6    1  0.2436515E-005  0.2482229E+04  0.7818608E-02  0.8409344E-01
          2   -1    0    0  501    0  0.00000000000E+00  0.00000000000E+00  0.16253640221E+04  0.16253640221E+04  0.00000000000E+00 0.  1.
         -2   -1    0    0    0  501 -0.00000000000E+00 -0.00000000000E+00 -0.94770445201E+03  0.94770445201E+03  0.00000000000E+00 0. -1.
         23    2    1    2    0    0 -0.30606096087E+03  0.45032275956E+03  0.14935237860E+04  0.15922023678E+04  0.89616857274E+02 0.  0.
         13    1    3    3    0    0 -0.26139019043E+03  0.32833244869E+03  0.10765511544E+04  0.11554606945E+04  0.00000000000E+00 0.  1.
        -13    1    3    3    0    0 -0.44670770443E+02  0.12199031087E+03  0.41697263164E+03  0.43674167332E+03  0.00000000000E+00 0. -1.
         22    1    1    2    0    0  0.30606096087E+03 -0.45032275956E+03 -0.81586421596E+03  0.98086610627E+03  0.00000000000E+00 0. -1.
<mgrwt>
<rscale>  0 0.24822286E+04</rscale>
<asrwt>0</asrwt>
<pdfrwt beam="1">  1        2 0.25005600E+00 0.24822286E+04</pdfrwt>
<pdfrwt beam="2">  1       -2 0.14580069E+00 0.24822286E+04</pdfrwt>
<totfact> 0.31140772E+00</totfact>
</mgrwt>
</event>
<event>
 6    1  0.2436515E-005  0.1287313E+04  0.7818608E-02  0.9039687E-01
          2   -1    0    0  501    0  0.00000000000E+00  0.00000000000E+00  0.63888238515E+03  0.63888238515E+03  0.00000000000E+00 0.  1.
         -2   -1    0    0    0  501 -0.00000000000E+00 -0.00000000000E+00 -0.64846591550E+03  0.64846591550E+03  0.00000000000E+00 0. -1.
         23    2    1    2    0    0  0.40280837577E+03  0.31352278213E+03  0.38198970694E+03  0.64401267854E+03  0.91022367610E+02 0.  0.
         11    1    3    3    0    0  0.17874034033E+02  0.45772382441E+02  0.44453185784E+02  0.66262189922E+02  0.00000000000E+00 0.  1.
        -11    1    3    3    0    0  0.38493434174E+03  0.26775039969E+03  0.33753652116E+03  0.57775048862E+03  0.00000000000E+00 0. -1.
         22    1    1    2    0    0 -0.40280837577E+03 -0.31352278213E+03 -0.39157323729E+03  0.64333562211E+03  0.00000000000E+00 0. -1.
<mgrwt>
<rscale>  0 0.12873126E+04</rscale>
<asrwt>0</asrwt>
<pdfrwt beam="1">  1        2 0.98289598E-01 0.12873126E+04</pdfrwt>
<pdfrwt beam="2">  1       -2 0.99763986E-01 0.12873126E+04</pdfrwt>
<totfact> 0.37438605E+01</totfact>
</mgrwt>
</event>
<event>
 6    1  0.2436515E-005  0.1725641E+04  0.7818608E-02  0.8746874E-01
         -2   -1    0    0    0  501 -0.00000000000E+00  0.00000000000E+00  0.66019766597E+03  0.66019766597E+03  0.00000000000E+00 0. -1.
          2   -1    0    0  501    0  0.00000000000E+00 -0.00000000000E+00 -0.11276310460E+04  0.11276310460E+04  0.00000000000E+00 0.  1.
         23    2    1    2    0    0  0.69978595944E+03  0.46262722534E+03 -0.43307845217E+03  0.94824274279E+03  0.88786343906E+02 0.  0.
         13    1    3    3    0    0  0.38986719666E+03  0.21028550358E+03 -0.25008071118E+03  0.50868141911E+03  0.00000000000E+00 0. -1.
        -13    1    3    3    0    0  0.30991876279E+03  0.25234172176E+03 -0.18299774099E+03  0.43956132368E+03  0.00000000000E+00 0.  1.
         22    1    1    2    0    0 -0.69978595944E+03 -0.46262722534E+03 -0.34354927907E+02  0.83958596923E+03  0.00000000000E+00 0. -1.
<mgrwt>
<rscale>  0 0.17256412E+04</rscale>
<asrwt>0</asrwt>
<pdfrwt beam="1">  1        2 0.17348170E+00 0.17256412E+04</pdfrwt>
<pdfrwt beam="2">  1       -2 0.10156887E+00 0.17256412E+04</pdfrwt>
<totfact> 0.15838378E+01</totfact>
</mgrwt>
</event>
<event>
 6    1  0.2436515E-005  0.3287515E+04  0.7818608E-02  0.8166079E-01
          2   -1    0    0  501    0  0.00000000000E+00  0.00000000000E+00  0.18578730083E+04  0.18578730083E+04  0.00000000000E+00 0. -1.
         -2   -1    0    0    0  501 -0.00000000000E+00 -0.00000000000E+00 -0.14543186835E+04  0.14543186835E+04  0.00000000000E+00 0.  1.
         23    2    1    2    0    0 -0.10708405124E+04 -0.33456716697E+03  0.14106173904E+04  0.18046073292E+04  0.90175375594E+02 0.  0.
         13    1    3    3    0    0 -0.92184219496E+03 -0.26223412945E+03  0.11688123752E+04  0.15115165032E+04  0.00000000000E+00 0. -1.
        -13    1    3    3    0    0 -0.14899831748E+03 -0.72333037511E+02  0.24180501521E+03  0.29309082604E+03  0.00000000000E+00 0.  1.
         22    1    1    2    0    0  0.10708405124E+04  0.33456716697E+03 -0.10070630656E+04  0.15075843626E+04  0.00000000000E+00 0.  1.
<mgrwt>
<rscale>  0 0.32875154E+04</rscale>
<asrwt>0</asrwt>
<pdfrwt beam="1">  1        2 0.28582662E+00 0.32875154E+04</pdfrwt>
<pdfrwt beam="2">  1       -2 0.22374134E+00 0.32875154E+04</pdfrwt>
<totfact> 0.62712728E-01</totfact>
</mgrwt>
</event>
<event>
 6    1  0.2436515E-005  0.2219089E+04  0.7818608E-02  0.8510525E-01
         -2   -1    0    0    0  501 -0.00000000000E+00  0.00000000000E+00  0.79806768603E+03  0.79806768603E+03  0.00000000000E+00 0.  1.
          2   -1    0    0  501    0  0.00000000000E+00 -0.00000000000E+00 -0.15425871249E+04  0.15425871249E+04  0.00000000000E+00 0. -1.
         23    2    1    2    0    0  0.75275138700E+03 -0.25737483038E+03 -0.11858867034E+04  0.14308847761E+04  0.90705651657E+02 0.  0.
         13    1    3    3    0    0  0.62386943311E+03 -0.22517254083E+03 -0.10407577373E+04  0.12341363014E+04  0.00000000000E+00 0. -1.
        -13    1    3    3    0    0  0.12888195390E+03 -0.32202289547E+02 -0.14512896607E+03  0.19674847467E+03  0.00000000000E+00 0.  1.
         22    1    1    2    0    0 -0.75275138700E+03  0.25737483038E+03  0.44136726458E+03  0.90977003478E+03  0.00000000000E+00 0.  1.
<mgrwt>
<rscale>  0 0.22190889E+04</rscale>
<asrwt>0</asrwt>
<pdfrwt beam="1">  1        2 0.23732110E+00 0.22190889E+04</pdfrwt>
<pdfrwt beam="2">  1       -2 0.12277964E+00 0.22190889E+04</pdfrwt>
<totfact> 0.54981267E+00</totfact>
</mgrwt>
</event>
<event>
 6    1  0.2436515E-005  0.5031707E+04  0.7818608E-02  0.7823635E-01
          2   -1    0    0  501    0  0.00000000000E+00  0.00000000000E+00  0.20277697623E+04  0.20277697623E+04  0.00000000000E+00 0.  1.
         -2   -1    0    0    0  501 -0.00000000000E+00 -0.00000000000E+00 -0.31214183669E+04  0.31214183669E+04  0.00000000000E+00 0. -1.
         23    2    1    2    0    0 -0.20720791058E+04  0.61216464979E+03  0.77035922083E+03  0.22956320053E+04  0.90639922374E+02 0.  0.
         13    1    3    3    0    0 -0.37954624047E+03  0.13703815963E+03  0.17166922569E+03  0.43852608690E+03  0.00000000000E+00 0.  1.
        -13    1    3    3    0    0 -0.16925328653E+04  0.47512649016E+03  0.59868999514E+03  0.18571059184E+04  0.00000000000E+00 0. -1.
         22    1    1    2    0    0  0.20720791058E+04 -0.61216464979E+03 -0.18640078254E+04  0.28535561239E+04  0.00000000000E+00 0.  1.
<mgrwt>
<rscale>  0 0.50317066E+04</rscale>
<asrwt>0</asrwt>
<pdfrwt beam="1">  1        2 0.31196458E+00 0.50317066E+04</pdfrwt>
<pdfrwt beam="2">  1       -2 0.48021821E+00 0.50317066E+04</pdfrwt>
<totfact> 0.10358930E-02</totfact>
</mgrwt>
</event>
<event>
 6    1  0.2436515E-005  0.3737997E+04  0.7818608E-02  0.8059593E-01
          2   -1    0    0  501    0  0.00000000000E+00  0.00000000000E+00  0.28066715051E+04  0.28066715051E+04  0.00000000000E+00 0.  1.
         -2   -1    0    0    0  501 -0.00000000000E+00 -0.00000000000E+00 -0.12445903533E+04  0.12445903533E+04  0.00000000000E+00 0. -1.
         23    2    1    2    0    0  0.17419377069E+04 -0.50384528861E+03  0.12670437377E+04  0.22140753885E+04  0.92319787064E+02 0.  0.
         13    1    3    3    0    0  0.77295329860E+03 -0.26498652372E+03  0.54244304632E+03  0.98077475400E+03  0.00000000000E+00 0. -1.
        -13    1    3    3    0    0  0.96898440826E+03 -0.23885876490E+03  0.72460069141E+03  0.12333006345E+04  0.00000000000E+00 0.  1.
         22    1    1    2    0    0 -0.17419377069E+04  0.50384528861E+03  0.29503741410E+03  0.18371864699E+04  0.00000000000E+00 0. -1.
<mgrwt>
<rscale>  0 0.37379975E+04</rscale>
<asrwt>0</asrwt>
<pdfrwt beam="1">  1        2 0.43179561E+00 0.37379975E+04</pdfrwt>
<pdfrwt beam="2">  1       -2 0.19147544E+00 0.37379975E+04</pdfrwt>
<totfact> 0.27963158E-01</totfact>
</mgrwt>
</event>
<event>
 6    1  0.2436515E-005  0.3460409E+04  0.7818608E-02  0.8123237E-01
          1   -1    0    0  501    0  0.00000000000E+00  0.00000000000E+00  0.18870628086E+04  0.18870628086E+04  0.00000000000E+00 0.  1.
         -1   -1    0    0    0  501 -0.00000000000E+00 -0.00000000000E+00 -0.15863848618E+04  0.15863848618E+04  0.00000000000E+00 0. -1.
         23    2    1    2    0    0 -0.32657894350E+03  0.34663908199E+03 -0.15179098166E+04  0.15935343977E+04  0.92136885964E+02 0.  0.
         11    1    3    3    0    0 -0.21527224730E+03  0.21522491770E+03 -0.11046753806E+04  0.11458497293E+04  0.00000000000E+00 0. -1.
        -11    1    3    3    0    0 -0.11130669620E+03  0.13141416429E+03 -0.41323443597E+03  0.44768466834E+03  0.00000000000E+00 0.  1.
         22    1    1    2    0    0  0.32657894350E+03 -0.34663908199E+03  0.18185877634E+04  0.18799132727E+04  0.00000000000E+00 0.  1.
<mgrwt>
<rscale>  0 0.34604092E+04</rscale>
<asrwt>0</asrwt>
<pdfrwt beam="1">  1        1 0.29031736E+00 0.34604092E+04</pdfrwt>
<pdfrwt beam="2">  1       -1 0.24405921E+00 0.34604092E+04</pdfrwt>
<totfact> 0.22191199E-01</totfact>
</mgrwt>
</event>
<event>
 6    1  0.2436515E-005  0.2091790E+04  0.7818608E-02  0.8564868E-01
          2   -1    0    0  501    0  0.00000000000E+00  0.00000000000E+00  0.21063157672E+04  0.21063157672E+04  0.00000000000E+00 0.  1.
         -2   -1    0    0    0  501 -0.00000000000E+00 -0.00000000000E+00 -0.51934127091E+03  0.51934127091E+03  0.00000000000E+00 0. -1.
         23    2    1    2    0    0  0.28261637573E+03  0.23936543514E+03 -0.43076260633E+03  0.57421100111E+03  0.83630278071E+02 0.  0.
         13    1    3    3    0    0  0.80361777943E+02  0.55077191628E+02 -0.63760454255E+02  0.11643413554E+03  0.00000000000E+00 0.  1.
        -13    1    3    3    0    0  0.20225459779E+03  0.18428824352E+03 -0.36700215208E+03  0.45777686557E+03  0.00000000000E+00 0. -1.
         22    1    1    2    0    0 -0.28261637573E+03 -0.23936543514E+03  0.20177371026E+04  0.20514460369E+04  0.00000000000E+00 0.  1.
<mgrwt>
<rscale>  0 0.20917903E+04</rscale>
<asrwt>0</asrwt>
<pdfrwt beam="1">  1        2 0.32404857E+00 0.20917903E+04</pdfrwt>
<pdfrwt beam="2">  1       -2 0.79898659E-01 0.20917903E+04</pdfrwt>
<totfact> 0.74499149E+00</totfact>
</mgrwt>
</event>
<event>
 6    1  0.2436515E-005  0.5065101E+04  0.7818608E-02  0.7818543E-01
          2   -1    0    0  501    0  0.00000000000E+00  0.00000000000E+00  0.28996111745E+04  0.28996111745E+04  0.00000000000E+00 0.  1.
         -2   -1    0    0    0  501 -0.00000000000E+00 -0.00000000000E+00 -0.22119559604E+04  0.22119559604E+04  0.00000000000E+00 0. -1.
         23    2    1    2    0    0 -0.22154245075E+04  0.12116588400E+04  0.15941188609E+03  0.25317873174E+04  0.91170051882E+02 0.  0.
         13    1    3    3    0    0 -0.11502016260E+04  0.59086293573E+03  0.11254017186E+03  0.12979784588E+04  0.00000000000E+00 0.  1.
        -13    1    3    3    0    0 -0.10652228815E+04  0.62079590423E+03  0.46871714224E+02  0.12338088586E+04  0.00000000000E+00 0. -1.
         22    1    1    2    0    0  0.22154245075E+04 -0.12116588400E+04  0.52824332799E+03  0.25797798174E+04  0.00000000000E+00 0.  1.
<mgrwt>
<rscale>  0 0.50651011E+04</rscale>
<asrwt>0</asrwt>
<pdfrwt beam="1">  1        2 0.44609403E+00 0.50651011E+04</pdfrwt>
<pdfrwt beam="2">  1       -2 0.34030092E+00 0.50651011E+04</pdfrwt>
<totfact> 0.26058658E-02</totfact>
</mgrwt>
</event>
<event>
 6    1  0.2436515E-005  0.4191422E+04  0.7818608E-02  0.7967006E-01
         -2   -1    0    0    0  501 -0.00000000000E+00  0.00000000000E+00  0.13885586653E+04  0.13885586653E+04  0.00000000000E+00 0. -1.
          2   -1    0    0  501    0  0.00000000000E+00 -0.00000000000E+00 -0.31629949720E+04  0.31629949720E+04  0.00000000000E+00 0.  1.
         23    2    1    2    0    0  0.70659296945E+03 -0.11470110806E+04  0.85361873398E+03  0.15983212826E+04  0.10515672146E+03 0.  0.
         11    1    3    3    0    0  0.19322985700E+03 -0.40817458671E+03  0.28372362450E+03  0.53333232226E+03  0.00000000000E+00 0.  1.
        -11    1    3    3    0    0  0.51336311245E+03 -0.73883649385E+03  0.56989510948E+03  0.10649889604E+04  0.00000000000E+00 0. -1.
         22    1    1    2    0    0 -0.70659296945E+03  0.11470110806E+04 -0.26280550407E+04  0.29532323546E+04  0.00000000000E+00 0.  1.
<mgrwt>
<rscale>  0 0.41914218E+04</rscale>
<asrwt>0</asrwt>
<pdfrwt beam="1">  1        2 0.48661461E+00 0.41914218E+04</pdfrwt>
<pdfrwt beam="2">  1       -2 0.21362441E+00 0.41914218E+04</pdfrwt>
<totfact> 0.11545083E-01</totfact>
</mgrwt>
</event>
<event>
 6    1  0.2436515E-005  0.2010787E+04  0.7818608E-02  0.8601594E-01
          2   -1    0    0  501    0  0.00000000000E+00  0.00000000000E+00  0.56321756421E+03  0.56321756421E+03  0.00000000000E+00 0.  1.
         -2   -1    0    0    0  501 -0.00000000000E+00 -0.00000000000E+00 -0.17947171490E+04  0.17947171490E+04  0.00000000000E+00 0. -1.
         23    2    1    2    0    0 -0.25593462899E+02 -0.41513454898E+03  0.45373696355E+03  0.62213116933E+03  0.90433625783E+02 0.  0.
         13    1    3    3    0    0 -0.54605397867E+02 -0.16743650373E+03  0.19550364682E+03  0.26313192163E+03  0.00000000000E+00 0. -1.
        -13    1    3    3    0    0  0.29011934968E+02 -0.24769804524E+03  0.25823331672E+03  0.35899924771E+03  0.00000000000E+00 0.  1.
         22    1    1    2    0    0  0.25593462899E+02  0.41513454898E+03 -0.16852365483E+04  0.17358035439E+04  0.00000000000E+00 0. -1.
<mgrwt>
<rscale>  0 0.20107871E+04</rscale>
<asrwt>0</asrwt>
<pdfrwt beam="1">  1        2 0.86648853E-01 0.20107871E+04</pdfrwt>
<pdfrwt beam="2">  1       -2 0.27611034E+00 0.20107871E+04</pdfrwt>
<totfact> 0.22103407E+00</totfact>
</mgrwt>
</event>
<event>
 6    1  0.2436515E-005  0.4772215E+04  0.7818608E-02  0.7864639E-01
          2   -1    0    0  501    0  0.00000000000E+00  0.00000000000E+00  0.38596061731E+04  0.38596061731E+04  0.00000000000E+00 0.  1.
         -2   -1    0    0    0  501 -0.00000000000E+00 -0.00000000000E+00 -0.14751529184E+04  0.14751529184E+04  0.00000000000E+00 0. -1.
         23    2    1    2    0    0 -0.17529861908E+04  0.57913249748E+03 -0.49597770157E+03  0.19134672992E+04  0.83714930746E+02 0.  0.
         11    1    3    3    0    0 -0.13902366562E+04  0.48417751250E+03 -0.37029971300E+03  0.15179946315E+04  0.00000000000E+00 0. -1.
        -11    1    3    3    0    0 -0.36274953466E+03  0.94954984981E+02 -0.12567798857E+03  0.39547266767E+03  0.00000000000E+00 0.  1.
         22    1    1    2    0    0  0.17529861908E+04 -0.57913249748E+03  0.28804309562E+04  0.34212917924E+04  0.00000000000E+00 0.  1.
<mgrwt>
<rscale>  0 0.47722151E+04</rscale>
<asrwt>0</asrwt>
<pdfrwt beam="1">  1        2 0.59378556E+00 0.47722151E+04</pdfrwt>
<pdfrwt beam="2">  1       -2 0.22694660E+00 0.47722151E+04</pdfrwt>
<totfact> 0.29169795E-02</totfact>
</mgrwt>
</event>
<event>
 6    1  0.2436515E-005  0.2071728E+04  0.7818608E-02  0.8573801E-01
         -2   -1    0    0    0  501 -0.00000000000E+00  0.00000000000E+00  0.40151703756E+03  0.40151703756E+03  0.00000000000E+00 0. -1.
          2   -1    0    0  501    0  0.00000000000E+00 -0.00000000000E+00 -0.26723989928E+04  0.26723989928E+04  0.00000000000E+00 0.  1.
         23    2    1    2    0    0 -0.29548155785E+03 -0.28903541458E+03 -0.25436828960E+04  0.25786674309E+04  0.91390490581E+02 0.  0.
         13    1    3    3    0    0 -0.20081221104E+03 -0.25051230979E+03 -0.19118664244E+04  0.19386374561E+04  0.00000000000E+00 0. -1.
        -13    1    3    3    0    0 -0.94669346807E+02 -0.38523104794E+02 -0.63181647166E+03  0.64002997484E+03  0.00000000000E+00 0.  1.
         22    1    1    2    0    0  0.29548155785E+03  0.28903541458E+03  0.27280094082E+03  0.49524859942E+03  0.00000000000E+00 0. -1.
<mgrwt>
<rscale>  0 0.20717275E+04</rscale>
<asrwt>0</asrwt>
<pdfrwt beam="1">  1        2 0.41113831E+00 0.20717275E+04</pdfrwt>
<pdfrwt beam="2">  1       -2 0.61771851E-01 0.20717275E+04</pdfrwt>
<totfact> 0.62069615E+00</totfact>
</mgrwt>
</event>
<event>
 6    1  0.2436515E-005  0.1820461E+04  0.7818608E-02  0.8695494E-01
          2   -1    0    0  501    0  0.00000000000E+00  0.00000000000E+00  0.10286550465E+04  0.10286550465E+04  0.00000000000E+00 0.  1.
         -2   -1    0    0    0  501 -0.00000000000E+00 -0.00000000000E+00 -0.80543934828E+03  0.80543934828E+03  0.00000000000E+00 0. -1.
         23    2    1    2    0    0  0.55144340606E+02  0.81198740198E+03 -0.29380719547E+03  0.86989674292E+03  0.89628321108E+02 0.  0.
         13    1    3    3    0    0  0.42034996883E+02  0.50692223402E+03 -0.22857916006E+03  0.55766076132E+03  0.00000000000E+00 0. -1.
        -13    1    3    3    0    0  0.13109343724E+02  0.30506516796E+03 -0.65228035415E+02  0.31223598159E+03  0.00000000000E+00 0.  1.
         22    1    1    2    0    0 -0.55144340606E+02 -0.81198740198E+03  0.51702289371E+03  0.96419765189E+03  0.00000000000E+00 0.  1.
<mgrwt>
<rscale>  0 0.18204607E+04</rscale>
<asrwt>0</asrwt>
<pdfrwt beam="1">  1        2 0.15825462E+00 0.18204607E+04</pdfrwt>
<pdfrwt beam="2">  1       -2 0.12391375E+00 0.18204607E+04</pdfrwt>
<totfact> 0.11155328E+01</totfact>
</mgrwt>
</event>
<event>
 6    1  0.2436515E-005  0.3630560E+04  0.7818608E-02  0.8083527E-01
         -2   -1    0    0    0  501 -0.00000000000E+00  0.00000000000E+00  0.10674106233E+04  0.10674106233E+04  0.00000000000E+00 0. -1.
          2   -1    0    0  501    0  0.00000000000E+00 -0.00000000000E+00 -0.30871356201E+04  0.30871356201E+04  0.00000000000E+00 0.  1.
         23    2    1    2    0    0 -0.14427623894E+04  0.44062541433E+03  0.14257015750E+03  0.15180268708E+04  0.91461809387E+02 0.  0.
         11    1    3    3    0    0 -0.35365616245E+03  0.10996824983E+03  0.74653485512E+02  0.37780794077E+03  0.00000000000E+00 0.  1.
        -11    1    3    3    0    0 -0.10891062270E+04  0.33065716450E+03  0.67916671984E+02  0.11402189301E+04  0.00000000000E+00 0. -1.
         22    1    1    2    0    0  0.14427623894E+04 -0.44062541433E+03 -0.21622951543E+04  0.26365193726E+04  0.00000000000E+00 0.  1.
<mgrwt>
<rscale>  0 0.36305599E+04</rscale>
<asrwt>0</asrwt>
<pdfrwt beam="1">  1        2 0.47494394E+00 0.36305599E+04</pdfrwt>
<pdfrwt beam="2">  1       -2 0.16421702E+00 0.36305599E+04</pdfrwt>
<totfact> 0.29222179E-01</totfact>
</mgrwt>
</event>
<event>
 6    1  0.2436515E-005  0.1765223E+04  0.7818608E-02  0.8725015E-01
          1   -1    0    0  501    0  0.00000000000E+00  0.00000000000E+00  0.60427432519E+03  0.60427432519E+03  0.00000000000E+00 0.  1.
         -1   -1    0    0    0  501 -0.00000000000E+00 -0.00000000000E+00 -0.12891547571E+04  0.12891547571E+04  0.00000000000E+00 0. -1.
         23    2    1    2    0    0  0.34912104993E+03 -0.31318185336E+03  0.45581553502E+03  0.66007768477E+03  0.89254507968E+02 0.  0.
         11    1    3    3    0    0  0.11552487417E+03 -0.75956135673E+02  0.87643973435E+02  0.16369727297E+03  0.00000000000E+00 0. -1.
        -11    1    3    3    0    0  0.23359617575E+03 -0.23722571769E+03  0.36817156158E+03  0.49638041180E+03  0.00000000000E+00 0.  1.
         22    1    1    2    0    0 -0.34912104993E+03  0.31318185336E+03 -0.11406959669E+04  0.12333513975E+04  0.00000000000E+00 0. -1.
<mgrwt>
<rscale>  0 0.17652231E+04</rscale>
<asrwt>0</asrwt>
<pdfrwt beam="1">  1        1 0.92965281E-01 0.17652231E+04</pdfrwt>
<pdfrwt beam="2">  1       -1 0.19833150E+00 0.17652231E+04</pdfrwt>
<totfact> 0.49574148E+00</totfact>
</mgrwt>
</event>
<event>
 6    1  0.2436515E-005  0.5194840E+03  0.7818608E-02  0.1008815E+00
         -2   -1    0    0    0  501 -0.00000000000E+00  0.00000000000E+00  0.44466153060E+02  0.44466153060E+02  0.00000000000E+00 0. -1.
          2   -1    0    0  501    0  0.00000000000E+00 -0.00000000000E+00 -0.15172417596E+04  0.15172417596E+04  0.00000000000E+00 0.  1.
         23    2    1    2    0    0 -0.45060714818E+02 -0.21968169705E+03 -0.41594449581E+03  0.48134569902E+03  0.91615186167E+02 0.  0.
         13    1    3    3    0    0 -0.31154989098E+01  0.84372451997E+01 -0.78258605874E+01  0.11922144688E+02  0.00000000000E+00 0.  1.
        -13    1    3    3    0    0 -0.41945215908E+02 -0.22811894225E+03 -0.40811863522E+03  0.46942355434E+03  0.00000000000E+00 0. -1.
         22    1    1    2    0    0  0.45060714818E+02  0.21968169705E+03 -0.10568311108E+04  0.10803622137E+04  0.00000000000E+00 0.  1.
<mgrwt>
<rscale>  0 0.51948399E+03</rscale>
<asrwt>0</asrwt>
<pdfrwt beam="1">  1        2 0.23342182E+00 0.51948399E+03</pdfrwt>
<pdfrwt beam="2">  1       -2 0.68409464E-02 0.51948399E+03</pdfrwt>
<totfact> 0.15984882E+03</totfact>
</mgrwt>
</event>
<event>
 6    1  0.2436515E-005  0.3326737E+04  0.7818608E-02  0.8156125E-01
         -1   -1    0    0    0  501 -0.00000000000E+00  0.00000000000E+00  0.25251619010E+04  0.25251619010E+04  0.00000000000E+00 0. -1.
          1   -1    0    0  501    0  0.00000000000E+00 -0.00000000000E+00 -0.10956903380E+04  0.10956903380E+04  0.00000000000E+00 0.  1.
         23    2    1    2    0    0  0.38668636565E+03  0.12750343082E+04  0.17966962768E+04  0.22387911612E+04  0.93965525533E+02 0.  0.
         11    1    3    3    0    0  0.32589982877E+03  0.10574616387E+04  0.14305854982E+04  0.18085935650E+04  0.00000000000E+00 0. -1.
        -11    1    3    3    0    0  0.60786536876E+02  0.21757266952E+03  0.36611077857E+03  0.43019759619E+03  0.00000000000E+00 0.  1.
         22    1    1    2    0    0 -0.38668636565E+03 -0.12750343082E+04 -0.36722471375E+03  0.13820610778E+04  0.00000000000E+00 0.  1.
<mgrwt>
<rscale>  0 0.33267374E+04</rscale>
<asrwt>0</asrwt>
<pdfrwt beam="1">  1        1 0.16856774E+00 0.33267374E+04</pdfrwt>
<pdfrwt beam="2">  1       -1 0.38848645E+00 0.33267374E+04</pdfrwt>
<totfact> 0.90553998E-02</totfact>
</mgrwt>
</event>
<event>
 6    1  0.2436515E-005  0.3648098E+04  0.7818608E-02  0.8079562E-01
         -2   -1    0    0    0  501 -0.00000000000E+00  0.00000000000E+00  0.27825527762E+04  0.27825527762E+04  0.00000000000E+00 0. -1.
          2   -1    0    0  501    0  0.00000000000E+00 -0.00000000000E+00 -0.11957204467E+04  0.11957204467E+04  0.00000000000E+00 0.  1.
         23    2    1    2    0    0  0.17556668011E+04 -0.12158425626E+03  0.13093005855E+04  0.21966524674E+04  0.11775139619E+03 0.  0.
         13    1    3    3    0    0  0.10496802045E+04 -0.62950953117E+02  0.71083949091E+03  0.12692848916E+04  0.00000000000E+00 0. -1.
        -13    1    3    3    0    0  0.70598659656E+03 -0.58633303146E+02  0.59846109461E+03  0.92736757573E+03  0.00000000000E+00 0.  1.
         22    1    1    2    0    0 -0.17556668011E+04  0.12158425626E+03  0.27753174390E+03  0.17816207556E+04  0.00000000000E+00 0.  1.
<mgrwt>
<rscale>  0 0.36480983E+04</rscale>
<asrwt>0</asrwt>
<pdfrwt beam="1">  1        2 0.18395699E+00 0.36480983E+04</pdfrwt>
<pdfrwt beam="2">  1       -2 0.42808504E+00 0.36480983E+04</pdfrwt>
<totfact> 0.74922567E-02</totfact>
</mgrwt>
</event>
<event>
 6    1  0.2436515E-005  0.8871304E+03  0.7818608E-02  0.9441814E-01
         -2   -1    0    0    0  501 -0.00000000000E+00  0.00000000000E+00  0.32961512970E+03  0.32961512970E+03  0.00000000000E+00 0. -1.
          2   -1    0    0  501    0  0.00000000000E+00 -0.00000000000E+00 -0.59690852693E+03  0.59690852693E+03  0.00000000000E+00 0.  1.
         23    2    1    2    0    0 -0.35599621990E+03 -0.46626575474E+02 -0.39838952930E+03  0.54430180748E+03  0.92967168670E+02 0.  0.
         13    1    3    3    0    0 -0.32732070557E+03 -0.38517667691E+02 -0.31562136338E+03  0.45633244465E+03  0.00000000000E+00 0.  1.
        -13    1    3    3    0    0 -0.28675514333E+02 -0.81089077830E+01 -0.82768165922E+02  0.87969362836E+02  0.00000000000E+00 0. -1.
         22    1    1    2    0    0  0.35599621990E+03  0.46626575474E+02  0.13109613206E+03  0.38222184915E+03  0.00000000000E+00 0. -1.
<mgrwt>
<rscale>  0 0.88713039E+03</rscale>
<asrwt>0</asrwt>
<pdfrwt beam="1">  1        2 0.91832080E-01 0.88713039E+03</pdfrwt>
<pdfrwt beam="2">  1       -2 0.50710021E-01 0.88713039E+03</pdfrwt>
<totfact> 0.18421437E+02</totfact>
</mgrwt>
</event>
<event>
 6    1  0.2436515E-005  0.1479769E+04  0.7818608E-02  0.8898019E-01
          2   -1    0    0  501    0  0.00000000000E+00  0.00000000000E+00  0.17016028940E+04  0.17016028940E+04  0.00000000000E+00 0.  1.
         -2   -1    0    0    0  501 -0.00000000000E+00 -0.00000000000E+00 -0.32171386893E+03  0.32171386893E+03  0.00000000000E+00 0. -1.
         23    2    1    2    0    0  0.13294363953E+03  0.62181957375E+03  0.18251585362E+03  0.66757486076E+03  0.89501755858E+02 0.  0.
         13    1    3    3    0    0  0.12001123937E+03  0.35459794527E+03  0.97250846353E+02  0.38678175691E+03  0.00000000000E+00 0. -1.
        -13    1    3    3    0    0  0.12932400157E+02  0.26722162849E+03  0.85265007263E+02  0.28079310385E+03  0.00000000000E+00 0.  1.
         22    1    1    2    0    0 -0.13294363953E+03 -0.62181957375E+03  0.11973731715E+04  0.13557419022E+04  0.00000000000E+00 0.  1.
<mgrwt>
<rscale>  0 0.14797692E+04</rscale>
<asrwt>0</asrwt>
<pdfrwt beam="1">  1        2 0.26178506E+00 0.14797692E+04</pdfrwt>
<pdfrwt beam="2">  1       -2 0.49494442E-01 0.14797692E+04</pdfrwt>
<totfact> 0.36584226E+01</totfact>
</mgrwt>
</event>
<event>
 6    1  0.2436515E-005  0.2140493E+04  0.7818608E-02  0.8543613E-01
         -2   -1    0    0    0  501 -0.00000000000E+00  0.00000000000E+00  0.37811796587E+03  0.37811796587E+03  0.00000000000E+00 0.  1.
          2   -1    0    0  501    0  0.00000000000E+00 -0.00000000000E+00 -0.30292870061E+04  0.30292870061E+04  0.00000000000E+00 0. -1.
         23    2    1    2    0    0  0.25127439519E+03  0.87210164009E+03 -0.22250352416E+04  0.24047634076E+04  0.91679483728E+02 0.  0.
         13    1    3    3    0    0  0.14587719216E+03  0.52655202472E+03 -0.14545664649E+04  0.15538020436E+04  0.00000000000E+00 0. -1.
        -13    1    3    3    0    0  0.10539720302E+03  0.34554961537E+03 -0.77046877672E+03  0.85096136399E+03  0.00000000000E+00 0.  1.
         22    1    1    2    0    0 -0.25127439519E+03 -0.87210164009E+03 -0.42613379865E+03  0.10026415644E+04  0.00000000000E+00 0.  1.
<mgrwt>
<rscale>  0 0.21404933E+04</rscale>
<asrwt>0</asrwt>
<pdfrwt beam="1">  1        2 0.46604415E+00 0.21404933E+04</pdfrwt>
<pdfrwt beam="2">  1       -2 0.58171996E-01 0.21404933E+04</pdfrwt>
<totfact> 0.42449340E+00</totfact>
</mgrwt>
</event>
<event>
 6    1  0.2436515E-005  0.1911119E+04  0.7818608E-02  0.8649342E-01
          2   -1    0    0  501    0  0.00000000000E+00  0.00000000000E+00  0.60293553771E+03  0.60293553771E+03  0.00000000000E+00 0.  1.
         -2   -1    0    0    0  501 -0.00000000000E+00 -0.00000000000E+00 -0.15144134314E+04  0.15144134314E+04  0.00000000000E+00 0. -1.
         23    2    1    2    0    0 -0.56618011520E+02  0.17526497359E+03 -0.14931305129E+04  0.15072316200E+04  0.91569741049E+02 0.  0.
         13    1    3    3    0    0 -0.35457010998E+02  0.26907668471E+02 -0.59701197146E+03  0.59866895386E+03  0.00000000000E+00 0. -1.
        -13    1    3    3    0    0 -0.21161000522E+02  0.14835730512E+03 -0.89611854145E+03  0.90856266612E+03  0.00000000000E+00 0.  1.
         22    1    1    2    0    0  0.56618011520E+02 -0.17526497359E+03  0.58165261925E+03  0.61011734911E+03  0.00000000000E+00 0.  1.
<mgrwt>
<rscale>  0 0.19111187E+04</rscale>
<asrwt>0</asrwt>
<pdfrwt beam="1">  1        2 0.92759314E-01 0.19111187E+04</pdfrwt>
<pdfrwt beam="2">  1       -2 0.23298668E+00 0.19111187E+04</pdfrwt>
<totfact> 0.37767071E+00</totfact>
</mgrwt>
</event>
<event>
 6    1  0.2436515E-005  0.1661294E+04  0.7818608E-02  0.8783753E-01
         -2   -1    0    0    0  501 -0.00000000000E+00  0.00000000000E+00  0.36867609227E+03  0.36867609227E+03  0.00000000000E+00 0. -1.
          2   -1    0    0  501    0  0.00000000000E+00 -0.00000000000E+00 -0.18714925409E+04  0.18714925409E+04  0.00000000000E+00 0.  1.
         23    2    1    2    0    0 -0.40493716105E+03 -0.33701594633E+03  0.10772852852E+03  0.54564540349E+03  0.92572231323E+02 0.  0.
         13    1    3    3    0    0 -0.10905964302E+03 -0.46951613714E+02  0.42961591719E+02  0.12627017910E+03  0.00000000000E+00 0. -1.
        -13    1    3    3    0    0 -0.29587751803E+03 -0.29006433262E+03  0.64766936796E+02  0.41937522439E+03  0.00000000000E+00 0.  1.
         22    1    1    2    0    0  0.40493716105E+03  0.33701594633E+03 -0.16105449772E+04  0.16945232297E+04  0.00000000000E+00 0.  1.
<mgrwt>
<rscale>  0 0.16612941E+04</rscale>
<asrwt>0</asrwt>
<pdfrwt beam="1">  1        2 0.28792192E+00 0.16612941E+04</pdfrwt>
<pdfrwt beam="2">  1       -2 0.56719400E-01 0.16612941E+04</pdfrwt>
<totfact> 0.21912843E+01</totfact>
</mgrwt>
</event>
<event>
 6    1  0.2436515E-005  0.2891125E+04  0.7818608E-02  0.8275523E-01
          1   -1    0    0  501    0  0.00000000000E+00  0.00000000000E+00  0.12867718624E+04  0.12867718624E+04  0.00000000000E+00 0.  1.
         -1   -1    0    0    0  501 -0.00000000000E+00 -0.00000000000E+00 -0.16239480040E+04  0.16239480040E+04  0.00000000000E+00 0. -1.
         23    2    1    2    0    0  0.65911245913E+02  0.10655232348E+04 -0.11478943349E+04  0.15702169588E+04  0.90751513814E+02 0.  0.
         11    1    3    3    0    0  0.27018359137E+02  0.49037744213E+03 -0.46228352141E+03  0.67446725765E+03  0.00000000000E+00 0.  1.
        -11    1    3    3    0    0  0.38892886775E+02  0.57514579272E+03 -0.68561081349E+03  0.89574970115E+03  0.00000000000E+00 0. -1.
         22    1    1    2    0    0 -0.65911245913E+02 -0.10655232348E+04  0.81071819336E+03  0.13405029076E+04  0.00000000000E+00 0.  1.
<mgrwt>
<rscale>  0 0.28911248E+04</rscale>
<asrwt>0</asrwt>
<pdfrwt beam="1">  1        1 0.19796490E+00 0.28911248E+04</pdfrwt>
<pdfrwt beam="2">  1       -1 0.24983815E+00 0.28911248E+04</pdfrwt>
<totfact> 0.55502880E-01</totfact>
</mgrwt>
</event>
<event>
 6    1  0.2436515E-005  0.2056152E+04  0.7818608E-02  0.8580809E-01
         -1   -1    0    0    0  501 -0.00000000000E+00  0.00000000000E+00  0.10590577227E+04  0.10590577227E+04  0.00000000000E+00 0. -1.
          1   -1    0    0  501    0  0.00000000000E+00 -0.00000000000E+00 -0.99800050558E+03  0.99800050558E+03  0.00000000000E+00 0.  1.
         23    2    1    2    0    0 -0.96070165914E+01 -0.36299152140E+03 -0.92950738247E+03  0.10020353066E+04  0.90750438794E+02 0.  0.
         13    1    3    3    0    0  0.29939333425E+02 -0.15870593088E+03 -0.32908612102E+03  0.36658097500E+03  0.00000000000E+00 0. -1.
        -13    1    3    3    0    0 -0.39546350016E+02 -0.20428559052E+03 -0.60042126145E+03  0.63545433156E+03  0.00000000000E+00 0.  1.
         22    1    1    2    0    0  0.96070165914E+01  0.36299152140E+03  0.99056459955E+03  0.10550229217E+04  0.00000000000E+00 0. -1.
<mgrwt>
<rscale>  0 0.20561519E+04</rscale>
<asrwt>0</asrwt>
<pdfrwt beam="1">  1        1 0.15353854E+00 0.20561519E+04</pdfrwt>
<pdfrwt beam="2">  1       -1 0.16293196E+00 0.20561519E+04</pdfrwt>
<totfact> 0.38935186E+00</totfact>
</mgrwt>
</event>
<event>
 6    1  0.2436515E-005  0.5971079E+03  0.7818608E-02  0.9911424E-01
          2   -1    0    0  501    0  0.00000000000E+00  0.00000000000E+00  0.12139904658E+04  0.12139904658E+04  0.00000000000E+00 0.  1.
         -2   -1    0    0    0  501 -0.00000000000E+00 -0.00000000000E+00 -0.73422710723E+02  0.73422710723E+02  0.00000000000E+00 0. -1.
         23    2    1    2    0    0  0.58571851691E+02 -0.28419078559E+03  0.62729536735E+03  0.69780007590E+03  0.96074989456E+02 0.  0.
         11    1    3    3    0    0  0.15712106515E+02 -0.88735419334E+02  0.30864662591E+03  0.32153317810E+03  0.00000000000E+00 0.  1.
        -11    1    3    3    0    0  0.42859745177E+02 -0.19545536625E+03  0.31864874144E+03  0.37626689780E+03  0.00000000000E+00 0. -1.
         22    1    1    2    0    0 -0.58571851691E+02  0.28419078559E+03  0.51327238770E+03  0.58961310060E+03  0.00000000000E+00 0. -1.
<mgrwt>
<rscale>  0 0.59710793E+03</rscale>
<asrwt>0</asrwt>
<pdfrwt beam="1">  1        2 0.18676775E+00 0.59710793E+03</pdfrwt>
<pdfrwt beam="2">  1       -2 0.11295803E-01 0.59710793E+03</pdfrwt>
<totfact> 0.10573931E+03</totfact>
</mgrwt>
</event>
<event>
 6    1  0.2436515E-005  0.8247968E+03  0.7818608E-02  0.9524802E-01
          2   -1    0    0  501    0  0.00000000000E+00  0.00000000000E+00  0.87934432714E+03  0.87934432714E+03  0.00000000000E+00 0.  1.
         -2   -1    0    0    0  501 -0.00000000000E+00 -0.00000000000E+00 -0.19340824467E+03  0.19340824467E+03  0.00000000000E+00 0. -1.
         23    2    1    2    0    0 -0.25249987116E+02 -0.10545242604E+03  0.85797590775E+03  0.86939210984E+03  0.89231196177E+02 0.  0.
         13    1    3    3    0    0 -0.42201539352E+02 -0.39600970983E+02  0.20902991021E+03  0.21689331523E+03  0.00000000000E+00 0.  1.
        -13    1    3    3    0    0  0.16951552236E+02 -0.65851455055E+02  0.64894599754E+03  0.65249879462E+03  0.00000000000E+00 0. -1.
         22    1    1    2    0    0  0.25249987116E+02  0.10545242604E+03 -0.17203982528E+03  0.20336046196E+03  0.00000000000E+00 0. -1.
<mgrwt>
<rscale>  0 0.82479681E+03</rscale>
<asrwt>0</asrwt>
<pdfrwt beam="1">  1        2 0.13528374E+00 0.82479681E+03</pdfrwt>
<pdfrwt beam="2">  1       -2 0.29755115E-01 0.82479681E+03</pdfrwt>
<totfact> 0.31650804E+02</totfact>
</mgrwt>
</event>
<event>
 6    1  0.2436515E-005  0.1871837E+04  0.7818608E-02  0.8669003E-01
          2   -1    0    0  501    0  0.00000000000E+00  0.00000000000E+00  0.20455155662E+04  0.20455155662E+04  0.00000000000E+00 0.  1.
         -2   -1    0    0    0  501 -0.00000000000E+00 -0.00000000000E+00 -0.42822616596E+03  0.42822616596E+03  0.00000000000E+00 0. -1.
         23    2    1    2    0    0 -0.68866952026E+03 -0.59070481753E+03  0.11019207973E+04  0.14302846480E+04  0.91032088920E+02 0.  0.
         11    1    3    3    0    0 -0.47935085034E+03 -0.38173785244E+03  0.79883581075E+03  0.10067967413E+04  0.00000000000E+00 0. -1.
        -11    1    3    3    0    0 -0.20931866992E+03 -0.20896696509E+03  0.30308498657E+03  0.42348790674E+03  0.00000000000E+00 0.  1.
         22    1    1    2    0    0  0.68866952026E+03  0.59070481753E+03  0.51536860295E+03  0.10434570842E+04  0.00000000000E+00 0. -1.
<mgrwt>
<rscale>  0 0.18718368E+04</rscale>
<asrwt>0</asrwt>
<pdfrwt beam="1">  1        2 0.31469470E+00 0.18718368E+04</pdfrwt>
<pdfrwt beam="2">  1       -2 0.65880950E-01 0.18718368E+04</pdfrwt>
<totfact> 0.12545416E+01</totfact>
</mgrwt>
</event>
<event>
 6    1  0.2436515E-005  0.1756304E+04  0.7818608E-02  0.8729888E-01
          1   -1    0    0  501    0  0.00000000000E+00  0.00000000000E+00  0.30899650526E+04  0.30899650526E+04  0.00000000000E+00 0.  1.
         -1   -1    0    0    0  501 -0.00000000000E+00 -0.00000000000E+00 -0.24956617114E+03  0.24956617114E+03  0.00000000000E+00 0. -1.
         23    2    1    2    0    0  0.81049632719E+03 -0.26249504365E+03  0.18119603189E+04  0.20040560943E+04  0.85045209192E+02 0.  0.
         13    1    3    3    0    0  0.30521470203E+03 -0.57169453563E+02  0.63427687480E+03  0.70620925699E+03  0.00000000000E+00 0. -1.
        -13    1    3    3    0    0  0.50528162517E+03 -0.20532559009E+03  0.11776834441E+04  0.12978468373E+04  0.00000000000E+00 0.  1.
         22    1    1    2    0    0 -0.81049632719E+03  0.26249504365E+03  0.10284385626E+04  0.13354751295E+04  0.00000000000E+00 0. -1.
<mgrwt>
<rscale>  0 0.17563038E+04</rscale>
<asrwt>0</asrwt>
<pdfrwt beam="1">  1        1 0.47537921E+00 0.17563038E+04</pdfrwt>
<pdfrwt beam="2">  1       -1 0.38394798E-01 0.17563038E+04</pdfrwt>
<totfact> 0.32045063E+00</totfact>
</mgrwt>
</event>
<event>
 6    1  0.2436515E-005  0.2464934E+04  0.7818608E-02  0.8415586E-01
          2   -1    0    0  501    0  0.00000000000E+00  0.00000000000E+00  0.19384777628E+04  0.19384777628E+04  0.00000000000E+00 0.  1.
         -2   -1    0    0    0  501 -0.00000000000E+00 -0.00000000000E+00 -0.78359135821E+03  0.78359135821E+03  0.00000000000E+00 0. -1.
         23    2    1    2    0    0 -0.33012957411E+03  0.11134998222E+04  0.12848875419E+03  0.11721144357E+04  0.92062482350E+02 0.  0.
         11    1    3    3    0    0 -0.12298707075E+03  0.32858383715E+03  0.42385834488E+01  0.35087194701E+03  0.00000000000E+00 0. -1.
        -11    1    3    3    0    0 -0.20714250336E+03  0.78491598505E+03  0.12425017074E+03  0.82124248868E+03  0.00000000000E+00 0.  1.
         22    1    1    2    0    0  0.33012957411E+03 -0.11134998222E+04  0.10263976504E+04  0.15499546853E+04  0.00000000000E+00 0. -1.
<mgrwt>
<rscale>  0 0.24649336E+04</rscale>
<asrwt>0</asrwt>
<pdfrwt beam="1">  1        2 0.29822735E+00 0.24649336E+04</pdfrwt>
<pdfrwt beam="2">  1       -2 0.12055252E+00 0.24649336E+04</pdfrwt>
<totfact> 0.33944407E+00</totfact>
</mgrwt>
</event>
<event>
 6    1  0.2436515E-005  0.1161731E+04  0.7818608E-02  0.9147029E-01
         -2   -1    0    0    0  501 -0.00000000000E+00  0.00000000000E+00  0.16673608610E+03  0.16673608610E+03  0.00000000000E+00 0. -1.
          2   -1    0    0  501    0  0.00000000000E+00 -0.00000000000E+00 -0.20235849239E+04  0.20235849239E+04  0.00000000000E+00 0.  1.
         23    2    1    2    0    0  0.11694043130E+03 -0.51101404081E+03 -0.47667487740E+03  0.71394349210E+03  0.87669588759E+02 0.  0.
         11    1    3    3    0    0  0.12387652937E+03 -0.37481484870E+03 -0.36580562206E+03  0.53818706642E+03  0.00000000000E+00 0. -1.
        -11    1    3    3    0    0 -0.69360980685E+01 -0.13619919211E+03 -0.11086925534E+03  0.17575642568E+03  0.00000000000E+00 0.  1.
         22    1    1    2    0    0 -0.11694043130E+03  0.51101404081E+03 -0.13801739604E+04  0.14763775179E+04  0.00000000000E+00 0.  1.
<mgrwt>
<rscale>  0 0.11617308E+04</rscale>
<asrwt>0</asrwt>
<pdfrwt beam="1">  1        2 0.31132077E+00 0.11617308E+04</pdfrwt>
<pdfrwt beam="2">  1       -2 0.25651704E-01 0.11617308E+04</pdfrwt>
<totfact> 0.87937023E+01</totfact>
</mgrwt>
</event>
<event>
 6    1  0.2436515E-005  0.1123183E+04  0.7818608E-02  0.9182887E-01
         -2   -1    0    0    0  501 -0.00000000000E+00  0.00000000000E+00  0.15826071212E+03  0.15826071212E+03  0.00000000000E+00 0. -1.
          2   -1    0    0  501    0  0.00000000000E+00 -0.00000000000E+00 -0.19928177248E+04  0.19928177248E+04  0.00000000000E+00 0.  1.
         23    2    1    2    0    0  0.22421544459E+03  0.51075094038E+03 -0.90307793170E+03  0.10653563882E+04  0.91079056421E+02 0.  0.
         13    1    3    3    0    0  0.13697765879E+03  0.26129833559E+03 -0.55246684503E+03  0.62630608655E+03  0.00000000000E+00 0.  1.
        -13    1    3    3    0    0  0.87237785807E+02  0.24945260479E+03 -0.35061108667E+03  0.43905030168E+03  0.00000000000E+00 0. -1.
         22    1    1    2    0    0 -0.22421544459E+03 -0.51075094038E+03 -0.93147908095E+03  0.10857220487E+04  0.00000000000E+00 0. -1.
<mgrwt>
<rscale>  0 0.11231825E+04</rscale>
<asrwt>0</asrwt>
<pdfrwt beam="1">  1        2 0.30658735E+00 0.11231825E+04</pdfrwt>
<pdfrwt beam="2">  1       -2 0.24347802E-01 0.11231825E+04</pdfrwt>
<totfact> 0.10080951E+02</totfact>
</mgrwt>
</event>
<event>
 6    1  0.2436515E-005  0.2441191E+04  0.7818608E-02  0.8424241E-01
          1   -1    0    0  501    0  0.00000000000E+00  0.00000000000E+00  0.38345612170E+04  0.38345612170E+04  0.00000000000E+00 0.  1.
         -1   -1    0    0    0  501 -0.00000000000E+00 -0.00000000000E+00 -0.38853293342E+03  0.38853293342E+03  0.00000000000E+00 0. -1.
         23    2    1    2    0    0  0.11261989066E+04 -0.42550535151E+02  0.25286000399E+04  0.27698876587E+04  0.91241190149E+02 0.  0.
         11    1    3    3    0    0  0.39960637324E+03  0.83676304882E+01  0.80745082868E+03  0.90096177028E+03  0.00000000000E+00 0. -1.
        -11    1    3    3    0    0  0.72659253339E+03 -0.50918165639E+02  0.17211492112E+04  0.18689258884E+04  0.00000000000E+00 0.  1.
         22    1    1    2    0    0 -0.11261989066E+04  0.42550535151E+02  0.91742824375E+03  0.14532064918E+04  0.00000000000E+00 0. -1.
<mgrwt>
<rscale>  0 0.24411910E+04</rscale>
<asrwt>0</asrwt>
<pdfrwt beam="1">  1        1 0.58993247E+00 0.24411910E+04</pdfrwt>
<pdfrwt beam="2">  1       -1 0.59774300E-01 0.24411910E+04</pdfrwt>
<totfact> 0.33853645E-01</totfact>
</mgrwt>
</event>
<event>
 6    1  0.2436515E-005  0.1652848E+04  0.7818608E-02  0.8788724E-01
         -2   -1    0    0    0  501 -0.00000000000E+00  0.00000000000E+00  0.16132209916E+04  0.16132209916E+04  0.00000000000E+00 0. -1.
          2   -1    0    0  501    0  0.00000000000E+00 -0.00000000000E+00 -0.42336200935E+03  0.42336200935E+03  0.00000000000E+00 0.  1.
         23    2    1    2    0    0 -0.20506087705E+03  0.26639606403E+03 -0.33046640117E+03  0.47953255292E+03  0.87901085207E+02 0.  0.
         13    1    3    3    0    0 -0.18584394767E+03  0.26027326993E+03 -0.27955560270E+03  0.42477227184E+03  0.00000000000E+00 0. -1.
        -13    1    3    3    0    0 -0.19216929381E+02  0.61227940936E+01 -0.50910798473E+02  0.54760281076E+02  0.00000000000E+00 0.  1.
         22    1    1    2    0    0  0.20506087705E+03 -0.26639606403E+03  0.15203253834E+04  0.15570504480E+04  0.00000000000E+00 0. -1.
<mgrwt>
<rscale>  0 0.16528478E+04</rscale>
<asrwt>0</asrwt>
<pdfrwt beam="1">  1        2 0.65132618E-01 0.16528478E+04</pdfrwt>
<pdfrwt beam="2">  1       -2 0.24818784E+00 0.16528478E+04</pdfrwt>
<totfact> 0.46958004E+00</totfact>
</mgrwt>
</event>
<event>
 6    1  0.2436515E-005  0.1420505E+04  0.7818608E-02  0.8939108E-01
          2   -1    0    0  501    0  0.00000000000E+00  0.00000000000E+00  0.13712897972E+04  0.13712897972E+04  0.00000000000E+00 0.  1.
         -2   -1    0    0    0  501 -0.00000000000E+00 -0.00000000000E+00 -0.36787155276E+03  0.36787155276E+03  0.00000000000E+00 0. -1.
         23    2    1    2    0    0 -0.51462893217E+03 -0.16642881861E+03  0.10619137617E+04  0.11951363367E+04  0.90269244402E+02 0.  0.
         11    1    3    3    0    0 -0.28610660750E+03 -0.78857858421E+02  0.48699044582E+03  0.57029400051E+03  0.00000000000E+00 0.  1.
        -11    1    3    3    0    0 -0.22852232466E+03 -0.87570960194E+02  0.57492331588E+03  0.62484233618E+03  0.00000000000E+00 0. -1.
         22    1    1    2    0    0  0.51462893217E+03  0.16642881861E+03 -0.58495517293E+02  0.54402501324E+03  0.00000000000E+00 0. -1.
<mgrwt>
<rscale>  0 0.14205048E+04</rscale>
<asrwt>0</asrwt>
<pdfrwt beam="1">  1        2 0.21096766E+00 0.14205048E+04</pdfrwt>
<pdfrwt beam="2">  1       -2 0.56595624E-01 0.14205048E+04</pdfrwt>
<totfact> 0.42777576E+01</totfact>
</mgrwt>
</event>
<event>
 6    1  0.2436515E-005  0.1521417E+04  0.7818608E-02  0.8870335E-01
          2   -1    0    0  501    0  0.00000000000E+00  0.00000000000E+00  0.87023420773E+03  0.87023420773E+03  0.00000000000E+00 0.  1.
         -2   -1    0    0    0  501 -0.00000000000E+00 -0.00000000000E+00 -0.66496710374E+03  0.66496710374E+03  0.00000000000E+00 0. -1.
         23    2    1    2    0    0 -0.98439569921E+02 -0.71258924886E+03  0.34386148218E+03  0.80261535188E+03  0.92070069092E+02 0.  0.
         11    1    3    3    0    0 -0.76284107198E+02 -0.48956536993E+03  0.28204326141E+03  0.57012447567E+03  0.00000000000E+00 0. -1.
        -11    1    3    3    0    0 -0.22155462723E+02 -0.22302387893E+03  0.61818220763E+02  0.23249087621E+03  0.00000000000E+00 0.  1.
         22    1    1    2    0    0  0.98439569921E+02  0.71258924886E+03 -0.13859437819E+03  0.73258595959E+03  0.00000000000E+00 0. -1.
<mgrwt>
<rscale>  0 0.15214166E+04</rscale>
<asrwt>0</asrwt>
<pdfrwt beam="1">  1        2 0.13388219E+00 0.15214166E+04</pdfrwt>
<pdfrwt beam="2">  1       -2 0.10230263E+00 0.15214166E+04</pdfrwt>
<totfact> 0.23195816E+01</totfact>
</mgrwt>
</event>
<event>
 6    1  0.2436515E-005  0.9380485E+03  0.7818608E-02  0.9379230E-01
          2   -1    0    0  501    0  0.00000000000E+00  0.00000000000E+00  0.28427122710E+04  0.28427122710E+04  0.00000000000E+00 0.  1.
         -2   -1    0    0    0  501 -0.00000000000E+00 -0.00000000000E+00 -0.77385159022E+02  0.77385159022E+02  0.00000000000E+00 0. -1.
         23    2    1    2    0    0  0.47275404383E+02 -0.39867976775E+03  0.21231029545E+04  0.21627121981E+04  0.92614120551E+02 0.  0.
         11    1    3    3    0    0  0.54611222350E+02 -0.15547148021E+03  0.10071007150E+04  0.10204928304E+04  0.00000000000E+00 0.  1.
        -11    1    3    3    0    0 -0.73358179673E+01 -0.24320828754E+03  0.11160022395E+04  0.11422193677E+04  0.00000000000E+00 0. -1.
         22    1    1    2    0    0 -0.47275404383E+02  0.39867976775E+03  0.64222415743E+03  0.75738523187E+03  0.00000000000E+00 0. -1.
<mgrwt>
<rscale>  0 0.93804849E+03</rscale>
<asrwt>0</asrwt>
<pdfrwt beam="1">  1        2 0.43734027E+00 0.93804849E+03</pdfrwt>
<pdfrwt beam="2">  1       -2 0.11905411E-01 0.93804849E+03</pdfrwt>
<totfact> 0.11548651E+02</totfact>
</mgrwt>
</event>
<event>
 6    1  0.2436515E-005  0.2813187E+04  0.7818608E-02  0.8299186E-01
          2   -1    0    0  501    0  0.00000000000E+00  0.00000000000E+00  0.19153390839E+04  0.19153390839E+04  0.00000000000E+00 0.  1.
         -2   -1    0    0    0  501 -0.00000000000E+00 -0.00000000000E+00 -0.10329793948E+04  0.10329793948E+04  0.00000000000E+00 0. -1.
         23    2    1    2    0    0  0.11180166749E+04 -0.77252938948E+03  0.81670828355E+03  0.15877770239E+04  0.85208651486E+02 0.  0.
         11    1    3    3    0    0  0.11227657606E+03 -0.61262301776E+02  0.10221405991E+03  0.16372786322E+03  0.00000000000E+00 0. -1.
        -11    1    3    3    0    0  0.10057400988E+04 -0.71126708771E+03  0.71449422364E+03  0.14240491607E+04  0.00000000000E+00 0.  1.
         22    1    1    2    0    0 -0.11180166749E+04  0.77252938948E+03  0.65651405541E+02  0.13605414547E+04  0.00000000000E+00 0. -1.
<mgrwt>
<rscale>  0 0.28131874E+04</rscale>
<asrwt>0</asrwt>
<pdfrwt beam="1">  1        2 0.29466755E+00 0.28131874E+04</pdfrwt>
<pdfrwt beam="2">  1       -2 0.15891991E+00 0.28131874E+04</pdfrwt>
<totfact> 0.16608138E+00</totfact>
</mgrwt>
</event>
<event>
 6    1  0.2436515E-005  0.1932849E+04  0.7818608E-02  0.8638676E-01
          2   -1    0    0  501    0  0.00000000000E+00  0.00000000000E+00  0.10869402748E+04  0.10869402748E+04  0.00000000000E+00 0. -1.
         -2   -1    0    0    0  501 -0.00000000000E+00 -0.00000000000E+00 -0.85927070957E+03  0.85927070957E+03  0.00000000000E+00 0.  1.
         23    2    1    2    0    0  0.29416464211E+03  0.23984245031E+03 -0.77848534844E+03  0.87084827908E+03  0.90994778979E+02 0.  0.
         11    1    3    3    0    0  0.23196971040E+03  0.18586348774E+03 -0.51312503846E+03  0.59300294073E+03  0.00000000000E+00 0.  1.
        -11    1    3    3    0    0  0.62194931703E+02  0.53978962575E+02 -0.26536030998E+03  0.27784533835E+03  0.00000000000E+00 0. -1.
         22    1    1    2    0    0 -0.29416464211E+03 -0.23984245031E+03  0.10061549137E+04  0.10753627053E+04  0.00000000000E+00 0. -1.
<mgrwt>
<rscale>  0 0.19328486E+04</rscale>
<asrwt>0</asrwt>
<pdfrwt beam="1">  1        2 0.16722158E+00 0.19328486E+04</pdfrwt>
<pdfrwt beam="2">  1       -2 0.13219549E+00 0.19328486E+04</pdfrwt>
<totfact> 0.86300439E+00</totfact>
</mgrwt>
</event>
<event>
 6    1  0.2436515E-005  0.1511848E+04  0.7818608E-02  0.8876612E-01
          2   -1    0    0  501    0  0.00000000000E+00  0.00000000000E+00  0.21888069615E+04  0.21888069615E+04  0.00000000000E+00 0.  1.
         -2   -1    0    0    0  501 -0.00000000000E+00 -0.00000000000E+00 -0.26106500843E+03  0.26106500843E+03  0.00000000000E+00 0. -1.
         23    2    1    2    0    0  0.43262771305E+03 -0.33052385739E+03  0.18106657411E+04  0.18929881420E+04  0.92091917541E+02 0.  0.
         11    1    3    3    0    0  0.33963587060E+03 -0.26561715975E+03  0.12911659927E+04  0.13612547965E+04  0.00000000000E+00 0.  1.
        -11    1    3    3    0    0  0.92991842449E+02 -0.64906697639E+02  0.51949974838E+03  0.53173334551E+03  0.00000000000E+00 0. -1.
         22    1    1    2    0    0 -0.43262771305E+03  0.33052385739E+03  0.11707621194E+03  0.55688382793E+03  0.00000000000E+00 0. -1.
<mgrwt>
<rscale>  0 0.15118478E+04</rscale>
<asrwt>0</asrwt>
<pdfrwt beam="1">  1        2 0.33673952E+00 0.15118478E+04</pdfrwt>
<pdfrwt beam="2">  1       -2 0.40163849E-01 0.15118478E+04</pdfrwt>
<totfact> 0.29702833E+01</totfact>
</mgrwt>
</event>
<event>
 6    1  0.2436515E-005  0.1061888E+04  0.7818608E-02  0.9243156E-01
         -2   -1    0    0    0  501 -0.00000000000E+00  0.00000000000E+00  0.11975189297E+04  0.11975189297E+04  0.00000000000E+00 0.  1.
          2   -1    0    0  501    0  0.00000000000E+00 -0.00000000000E+00 -0.23540455437E+03  0.23540455437E+03  0.00000000000E+00 0. -1.
         23    2    1    2    0    0 -0.60806435611E+02 -0.95932988811E+02  0.11790779833E+04  0.11880280612E+04  0.91023197406E+02 0.  0.
         13    1    3    3    0    0 -0.40063222622E+02 -0.20550536491E+02  0.78378544287E+03  0.78507770750E+03  0.00000000000E+00 0.  1.
        -13    1    3    3    0    0 -0.20743212989E+02 -0.75382452319E+02  0.39529254047E+03  0.40295035371E+03  0.00000000000E+00 0. -1.
         22    1    1    2    0    0  0.60806435611E+02  0.95932988811E+02 -0.21696360799E+03  0.24489542287E+03  0.00000000000E+00 0. -1.
<mgrwt>
<rscale>  0 0.10618878E+04</rscale>
<asrwt>0</asrwt>
<pdfrwt beam="1">  1        2 0.36216086E-01 0.10618878E+04</pdfrwt>
<pdfrwt beam="2">  1       -2 0.18423368E+00 0.10618878E+04</pdfrwt>
<totfact> 0.24283861E+01</totfact>
</mgrwt>
</event>
<event>
 6    1  0.2436515E-005  0.6623747E+03  0.7818608E-02  0.9783832E-01
          2   -1    0    0  501    0  0.00000000000E+00  0.00000000000E+00  0.76139987412E+03  0.76139987412E+03  0.00000000000E+00 0.  1.
         -2   -1    0    0    0  501 -0.00000000000E+00 -0.00000000000E+00 -0.14405709349E+03  0.14405709349E+03  0.00000000000E+00 0. -1.
         23    2    1    2    0    0 -0.20609478444E+03  0.11248034691E+03  0.72938305070E+01  0.25178532974E+03  0.90640850029E+02 0.  0.
         11    1    3    3    0    0 -0.73315846189E+02  0.53612993827E+02 -0.39706069193E+02  0.99126880009E+02  0.00000000000E+00 0. -1.
        -11    1    3    3    0    0 -0.13277893825E+03  0.58867353078E+02  0.46999899700E+02  0.15265844973E+03  0.00000000000E+00 0.  1.
         22    1    1    2    0    0  0.20609478444E+03 -0.11248034691E+03  0.61004895012E+03  0.65367163787E+03  0.00000000000E+00 0.  1.
<mgrwt>
<rscale>  0 0.66237468E+03</rscale>
<asrwt>0</asrwt>
<pdfrwt beam="1">  1        2 0.11713844E+00 0.66237468E+03</pdfrwt>
<pdfrwt beam="2">  1       -2 0.22162630E-01 0.66237468E+03</pdfrwt>
<totfact> 0.65819123E+02</totfact>
</mgrwt>
</event>
<event>
 6    1  0.2436515E-005  0.4752600E+04  0.7818608E-02  0.7867847E-01
         -2   -1    0    0    0  501 -0.00000000000E+00  0.00000000000E+00  0.15840098072E+04  0.15840098072E+04  0.00000000000E+00 0. -1.
          2   -1    0    0  501    0  0.00000000000E+00 -0.00000000000E+00 -0.35648773855E+04  0.35648773855E+04  0.00000000000E+00 0.  1.
         23    2    1    2    0    0  0.88350025558E+03  0.11665825302E+04 -0.30179713019E+04  0.33552674909E+04  0.90452498253E+02 0.  0.
         11    1    3    3    0    0  0.44440770602E+03  0.60719075187E+03 -0.16509717728E+04  0.18143557019E+04  0.00000000000E+00 0.  1.
        -11    1    3    3    0    0  0.43909254956E+03  0.55939177836E+03 -0.13669995291E+04  0.15409117890E+04  0.00000000000E+00 0. -1.
         22    1    1    2    0    0 -0.88350025558E+03 -0.11665825302E+04  0.10371037236E+04  0.17936197019E+04  0.00000000000E+00 0. -1.
<mgrwt>
<rscale>  0 0.47525996E+04</rscale>
<asrwt>0</asrwt>
<pdfrwt beam="1">  1        2 0.54844267E+00 0.47525996E+04</pdfrwt>
<pdfrwt beam="2">  1       -2 0.24369382E+00 0.47525996E+04</pdfrwt>
<totfact> 0.38086903E-02</totfact>
</mgrwt>
</event>
<event>
 6    1  0.2436515E-005  0.1520673E+04  0.7818608E-02  0.8870821E-01
         -2   -1    0    0    0  501 -0.00000000000E+00  0.00000000000E+00  0.37369411266E+03  0.37369411266E+03  0.00000000000E+00 0. -1.
          2   -1    0    0  501    0  0.00000000000E+00 -0.00000000000E+00 -0.15470174897E+04  0.15470174897E+04  0.00000000000E+00 0.  1.
         23    2    1    2    0    0  0.51521337315E+03  0.24656052723E+03  0.40135011049E+02  0.57954860961E+03  0.89603896820E+02 0.  0.
         11    1    3    3    0    0  0.20405302386E+03  0.50028584001E+02  0.17496826777E+02  0.21082370528E+03  0.00000000000E+00 0.  1.
        -11    1    3    3    0    0  0.31116034930E+03  0.19653194323E+03  0.22638184272E+02  0.36872490433E+03  0.00000000000E+00 0. -1.
         22    1    1    2    0    0 -0.51521337315E+03 -0.24656052723E+03 -0.12134583880E+04  0.13411629927E+04  0.00000000000E+00 0.  1.
<mgrwt>
<rscale>  0 0.15206727E+04</rscale>
<asrwt>0</asrwt>
<pdfrwt beam="1">  1        2 0.23800269E+00 0.15206727E+04</pdfrwt>
<pdfrwt beam="2">  1       -2 0.57491403E-01 0.15206727E+04</pdfrwt>
<totfact> 0.32643525E+01</totfact>
</mgrwt>
</event>
<event>
 6    1  0.2436515E-005  0.3494897E+04  0.7818608E-02  0.8115000E-01
         -2   -1    0    0    0  501 -0.00000000000E+00  0.00000000000E+00  0.26280757993E+04  0.26280757993E+04  0.00000000000E+00 0. -1.
          2   -1    0    0  501    0  0.00000000000E+00 -0.00000000000E+00 -0.11619059059E+04  0.11619059059E+04  0.00000000000E+00 0.  1.
         23    2    1    2    0    0  0.77239414573E+03  0.87588596517E+03 -0.67426088741E+03  0.13517009855E+04  0.93267730412E+02 0.  0.
         11    1    3    3    0    0  0.43184716718E+03  0.52666885816E+03 -0.43758303204E+03  0.80953750493E+03  0.00000000000E+00 0. -1.
        -11    1    3    3    0    0  0.34054697855E+03  0.34921710701E+03 -0.23667785536E+03  0.54216348056E+03  0.00000000000E+00 0.  1.
         22    1    1    2    0    0 -0.77239414573E+03 -0.87588596517E+03  0.21404307808E+04  0.24382807197E+04  0.00000000000E+00 0. -1.
<mgrwt>
<rscale>  0 0.34948973E+04</rscale>
<asrwt>0</asrwt>
<pdfrwt beam="1">  1        2 0.17875475E+00 0.34948973E+04</pdfrwt>
<pdfrwt beam="2">  1       -2 0.40431935E+00 0.34948973E+04</pdfrwt>
<totfact> 0.11404801E-01</totfact>
</mgrwt>
</event>
<event>
 6    1  0.2436515E-005  0.1416714E+04  0.7818608E-02  0.8941808E-01
         -2   -1    0    0    0  501 -0.00000000000E+00  0.00000000000E+00  0.69303302270E+03  0.69303302270E+03  0.00000000000E+00 0. -1.
          2   -1    0    0  501    0  0.00000000000E+00 -0.00000000000E+00 -0.72402022807E+03  0.72402022807E+03  0.00000000000E+00 0.  1.
         23    2    1    2    0    0 -0.43456351521E+03  0.44748916304E+03 -0.34125631506E+03  0.72037619487E+03  0.11573240588E+03 0.  0.
         11    1    3    3    0    0 -0.37796961291E+03  0.39557307714E+03 -0.25123132960E+03  0.60204341090E+03  0.00000000000E+00 0. -1.
        -11    1    3    3    0    0 -0.56593902305E+02  0.51916085904E+02 -0.90024985466E+02  0.11833278397E+03  0.00000000000E+00 0.  1.
         22    1    1    2    0    0  0.43456351521E+03 -0.44748916304E+03  0.31026910970E+03  0.69667705591E+03  0.00000000000E+00 0. -1.
<mgrwt>
<rscale>  0 0.14167144E+04</rscale>
<asrwt>0</asrwt>
<pdfrwt beam="1">  1        2 0.11138773E+00 0.14167144E+04</pdfrwt>
<pdfrwt beam="2">  1       -2 0.10662047E+00 0.14167144E+04</pdfrwt>
<totfact> 0.27034366E+01</totfact>
</mgrwt>
</event>
<event>
 6    1  0.2436515E-005  0.3082625E+04  0.7818608E-02  0.8220523E-01
          1   -1    0    0  501    0  0.00000000000E+00  0.00000000000E+00  0.19854163444E+04  0.19854163444E+04  0.00000000000E+00 0.  1.
         -1   -1    0    0    0  501 -0.00000000000E+00 -0.00000000000E+00 -0.11965471777E+04  0.11965471777E+04  0.00000000000E+00 0. -1.
         23    2    1    2    0    0 -0.85598349497E+03  0.12194017203E+04  0.79694252006E+03  0.16920932331E+04  0.91726931947E+02 0.  0.
         11    1    3    3    0    0 -0.49436364153E+03  0.66702627118E+03  0.48940394075E+03  0.96376121199E+03  0.00000000000E+00 0. -1.
        -11    1    3    3    0    0 -0.36161985344E+03  0.55237544912E+03  0.30753857931E+03  0.72833202110E+03  0.00000000000E+00 0.  1.
         22    1    1    2    0    0  0.85598349497E+03 -0.12194017203E+04 -0.80733532986E+01  0.14898702890E+04  0.00000000000E+00 0. -1.
<mgrwt>
<rscale>  0 0.30826251E+04</rscale>
<asrwt>0</asrwt>
<pdfrwt beam="1">  1        1 0.30544867E+00 0.30826251E+04</pdfrwt>
<pdfrwt beam="2">  1       -1 0.18408418E+00 0.30826251E+04</pdfrwt>
<totfact> 0.50128906E-01</totfact>
</mgrwt>
</event>
<event>
 6    1  0.2436515E-005  0.1962104E+04  0.7818608E-02  0.8624546E-01
         -2   -1    0    0    0  501 -0.00000000000E+00  0.00000000000E+00  0.13235329237E+04  0.13235329237E+04  0.00000000000E+00 0. -1.
          2   -1    0    0  501    0  0.00000000000E+00 -0.00000000000E+00 -0.72719245205E+03  0.72719245205E+03  0.00000000000E+00 0.  1.
         23    2    1    2    0    0 -0.90946766755E+02 -0.63383190505E+03  0.10727031068E+04  0.12526429499E+04  0.91696272745E+02 0.  0.
         11    1    3    3    0    0 -0.39470855508E+02 -0.12146744250E+03  0.16033138115E+03  0.20498399890E+03  0.00000000000E+00 0.  1.
        -11    1    3    3    0    0 -0.51475911247E+02 -0.51236446255E+03  0.91237172561E+03  0.10476589510E+04  0.00000000000E+00 0. -1.
         22    1    1    2    0    0  0.90946766755E+02  0.63383190505E+03 -0.47636263514E+03  0.79808242582E+03  0.00000000000E+00 0.  1.
<mgrwt>
<rscale>  0 0.19621041E+04</rscale>
<asrwt>0</asrwt>
<pdfrwt beam="1">  1        2 0.11187576E+00 0.19621041E+04</pdfrwt>
<pdfrwt beam="2">  1       -2 0.20362045E+00 0.19621041E+04</pdfrwt>
<totfact> 0.45774546E+00</totfact>
</mgrwt>
</event>
<event>
 6    1  0.2436515E-005  0.2108465E+04  0.7818608E-02  0.8557523E-01
         -1   -1    0    0    0  501 -0.00000000000E+00  0.00000000000E+00  0.20053335703E+04  0.20053335703E+04  0.00000000000E+00 0. -1.
          1   -1    0    0  501    0  0.00000000000E+00 -0.00000000000E+00 -0.55422529580E+03  0.55422529580E+03  0.00000000000E+00 0.  1.
         23    2    1    2    0    0  0.42503669068E+03 -0.69835960817E+03 -0.77129623109E+02  0.82639026425E+03  0.92787711137E+02 0.  0.
         13    1    3    3    0    0  0.37182438883E+03 -0.65590173809E+03 -0.80392251480E+02  0.75823702116E+03  0.00000000000E+00 0.  1.
        -13    1    3    3    0    0  0.53212301849E+02 -0.42457870081E+02  0.32626283712E+01  0.68153243091E+02  0.00000000000E+00 0. -1.
         22    1    1    2    0    0 -0.42503669068E+03  0.69835960817E+03  0.15282378976E+04  0.17331686019E+04  0.00000000000E+00 0. -1.
<mgrwt>
<rscale>  0 0.21084654E+04</rscale>
<asrwt>0</asrwt>
<pdfrwt beam="1">  1        1 0.85265431E-01 0.21084654E+04</pdfrwt>
<pdfrwt beam="2">  1       -1 0.30851285E+00 0.21084654E+04</pdfrwt>
<totfact> 0.10260351E+00</totfact>
</mgrwt>
</event>
<event>
 6    1  0.4081320E-005  0.4071985E+04  0.7818608E-02  0.7990180E-01
          2   -1    0    0  501    0  0.00000000000E+00  0.00000000000E+00  0.17018655383E+04  0.17018655383E+04  0.00000000000E+00 0.  1.
         -2   -1    0    0    0  501 -0.00000000000E+00 -0.00000000000E+00 -0.24357179957E+04  0.24357179957E+04  0.00000000000E+00 0. -1.
         23    2    1    2    0    0  0.90086472942E+03  0.11431812635E+04  0.10779465702E+04  0.18135705439E+04  0.92998105795E+02 0.  0.
         13    1    3    3    0    0  0.48808968362E+03  0.68222673173E+03  0.58981355699E+03  0.10254486261E+04  0.00000000000E+00 0. -1.
        -13    1    3    3    0    0  0.41277504580E+03  0.46095453173E+03  0.48813301317E+03  0.78812191779E+03  0.00000000000E+00 0.  1.
         22    1    1    2    0    0 -0.90086472942E+03 -0.11431812635E+04 -0.18117990276E+04  0.23240129901E+04  0.00000000000E+00 0. -1.
<mgrwt>
<rscale>  0 0.40719845E+04</rscale>
<asrwt>0</asrwt>
<pdfrwt beam="1">  1        2 0.26182547E+00 0.40719845E+04</pdfrwt>
<pdfrwt beam="2">  1       -2 0.37472584E+00 0.40719845E+04</pdfrwt>
<totfact> 0.83050457E-02</totfact>
</mgrwt>
</event>
<event>
 6    1  0.2436515E-005  0.1796994E+04  0.7818608E-02  0.8707900E-01
         -2   -1    0    0    0  501 -0.00000000000E+00  0.00000000000E+00  0.37559182814E+03  0.37559182814E+03  0.00000000000E+00 0. -1.
          2   -1    0    0  501    0  0.00000000000E+00 -0.00000000000E+00 -0.21493985834E+04  0.21493985834E+04  0.00000000000E+00 0.  1.
         23    2    1    2    0    0  0.68367572328E+03 -0.41320328847E+03 -0.14599653793E+04  0.16667096524E+04  0.90954408860E+02 0.  0.
         13    1    3    3    0    0  0.36021605137E+03 -0.26939054545E+03 -0.83573902562E+03  0.94909777609E+03  0.00000000000E+00 0. -1.
        -13    1    3    3    0    0  0.32345967191E+03 -0.14381274302E+03 -0.62422635370E+03  0.71761187634E+03  0.00000000000E+00 0.  1.
         22    1    1    2    0    0 -0.68367572328E+03  0.41320328847E+03 -0.31384137596E+03  0.85828075912E+03  0.00000000000E+00 0. -1.
<mgrwt>
<rscale>  0 0.17969936E+04</rscale>
<asrwt>0</asrwt>
<pdfrwt beam="1">  1        2 0.33067670E+00 0.17969936E+04</pdfrwt>
<pdfrwt beam="2">  1       -2 0.57783359E-01 0.17969936E+04</pdfrwt>
<totfact> 0.14600665E+01</totfact>
</mgrwt>
</event>
<event>
 6    1  0.2436515E-005  0.3431938E+04  0.7818608E-02  0.8130112E-01
         -2   -1    0    0    0  501 -0.00000000000E+00  0.00000000000E+00  0.14994978498E+04  0.14994978498E+04  0.00000000000E+00 0. -1.
          2   -1    0    0  501    0  0.00000000000E+00 -0.00000000000E+00 -0.19636906421E+04  0.19636906421E+04  0.00000000000E+00 0.  1.
         23    2    1    2    0    0 -0.11004261193E+04  0.57024946202E+03  0.96318095684E+03  0.15728134199E+04  0.99510829781E+02 0.  0.
         13    1    3    3    0    0 -0.36024939648E+03  0.23999235928E+03  0.33233618906E+03  0.54573189639E+03  0.00000000000E+00 0.  1.
        -13    1    3    3    0    0 -0.74017672279E+03  0.33025710274E+03  0.63084476779E+03  0.10270815235E+04  0.00000000000E+00 0. -1.
         22    1    1    2    0    0  0.11004261193E+04 -0.57024946202E+03 -0.14273737492E+04  0.18903750720E+04  0.00000000000E+00 0.  1.
<mgrwt>
<rscale>  0 0.34319382E+04</rscale>
<asrwt>0</asrwt>
<pdfrwt beam="1">  1        2 0.30210625E+00 0.34319382E+04</pdfrwt>
<pdfrwt beam="2">  1       -2 0.23069198E+00 0.34319382E+04</pdfrwt>
<totfact> 0.48959933E-01</totfact>
</mgrwt>
</event>
<event>
 6    1  0.2436515E-005  0.3507020E+04  0.7818608E-02  0.8112128E-01
          2   -1    0    0  501    0  0.00000000000E+00  0.00000000000E+00  0.31344397051E+04  0.31344397051E+04  0.00000000000E+00 0. -1.
         -2   -1    0    0    0  501 -0.00000000000E+00 -0.00000000000E+00 -0.98097172903E+03  0.98097172903E+03  0.00000000000E+00 0.  1.
         23    2    1    2    0    0  0.70119047190E+03  0.10706435668E+04 -0.32732829144E+03  0.13239430310E+04  0.87952339222E+02 0.  0.
         11    1    3    3    0    0  0.38162412856E+03  0.64737923000E+03 -0.21756241188E+03  0.78234918419E+03  0.00000000000E+00 0.  1.
        -11    1    3    3    0    0  0.31956634334E+03  0.42326433676E+03 -0.10976587956E+03  0.54159384679E+03  0.00000000000E+00 0. -1.
         22    1    1    2    0    0 -0.70119047190E+03 -0.10706435668E+04  0.24807962675E+04  0.27914684032E+04  0.00000000000E+00 0. -1.
<mgrwt>
<rscale>  0 0.35070197E+04</rscale>
<asrwt>0</asrwt>
<pdfrwt beam="1">  1        2 0.48222149E+00 0.35070197E+04</pdfrwt>
<pdfrwt beam="2">  1       -2 0.15091873E+00 0.35070197E+04</pdfrwt>
<totfact> 0.34592004E-01</totfact>
</mgrwt>
</event>
<event>
 6    1  0.2436515E-005  0.2587267E+04  0.7818608E-02  0.8372539E-01
          2   -1    0    0  501    0  0.00000000000E+00  0.00000000000E+00  0.12107945562E+04  0.12107945562E+04  0.00000000000E+00 0.  1.
         -2   -1    0    0    0  501 -0.00000000000E+00 -0.00000000000E+00 -0.13821403846E+04  0.13821403846E+04  0.00000000000E+00 0. -1.
         23    2    1    2    0    0  0.20113999238E+03 -0.86817999909E+03  0.85167322452E+03  0.12361881737E+04  0.92844558357E+02 0.  0.
         11    1    3    3    0    0  0.10725647540E+03 -0.35498541803E+03  0.30097321159E+03  0.47760179295E+03  0.00000000000E+00 0. -1.
        -11    1    3    3    0    0  0.93883516984E+02 -0.51319458106E+03  0.55070001292E+03  0.75858638073E+03  0.00000000000E+00 0.  1.
         22    1    1    2    0    0 -0.20113999238E+03  0.86817999909E+03 -0.10230190529E+04  0.13567467671E+04  0.00000000000E+00 0. -1.
<mgrwt>
<rscale>  0 0.25872673E+04</rscale>
<asrwt>0</asrwt>
<pdfrwt beam="1">  1        2 0.18627609E+00 0.25872673E+04</pdfrwt>
<pdfrwt beam="2">  1       -2 0.21263698E+00 0.25872673E+04</pdfrwt>
<totfact> 0.18196940E+00</totfact>
</mgrwt>
</event>
<event>
 6    1  0.2436515E-005  0.1348880E+04  0.7818608E-02  0.8991676E-01
          2   -1    0    0  501    0  0.00000000000E+00  0.00000000000E+00  0.16638199134E+04  0.16638199134E+04  0.00000000000E+00 0.  1.
         -2   -1    0    0    0  501 -0.00000000000E+00 -0.00000000000E+00 -0.27338857271E+03  0.27338857271E+03  0.00000000000E+00 0. -1.
         23    2    1    2    0    0 -0.33569862358E+03 -0.48331772939E+03  0.11626618286E+04  0.13062025083E+04  0.89960388179E+02 0.  0.
         13    1    3    3    0    0 -0.12776541629E+03 -0.12455543446E+03  0.40302941191E+03  0.44076157355E+03  0.00000000000E+00 0. -1.
        -13    1    3    3    0    0 -0.20793320730E+03 -0.35876229493E+03  0.75963241670E+03  0.86544093470E+03  0.00000000000E+00 0.  1.
         22    1    1    2    0    0  0.33569862358E+03  0.48331772939E+03  0.22776951205E+03  0.63100597781E+03  0.00000000000E+00 0. -1.
<mgrwt>
<rscale>  0 0.13488801E+04</rscale>
<asrwt>0</asrwt>
<pdfrwt beam="1">  1        2 0.25597229E+00 0.13488801E+04</pdfrwt>
<pdfrwt beam="2">  1       -2 0.42059781E-01 0.13488801E+04</pdfrwt>
<totfact> 0.53751555E+01</totfact>
</mgrwt>
</event>
<event>
 6    1  0.2436515E-005  0.4317596E+04  0.7818608E-02  0.7943372E-01
         -2   -1    0    0    0  501 -0.00000000000E+00  0.00000000000E+00  0.20418662965E+04  0.20418662965E+04  0.00000000000E+00 0. -1.
          2   -1    0    0  501    0  0.00000000000E+00 -0.00000000000E+00 -0.22824258932E+04  0.22824258932E+04  0.00000000000E+00 0.  1.
         23    2    1    2    0    0 -0.15868468344E+04  0.38041361061E+02  0.13437896209E+04  0.20815946032E+04  0.87951836967E+02 0.  0.
         11    1    3    3    0    0 -0.13235258898E+03 -0.23484478576E+00  0.14535547342E+03  0.19658452791E+03  0.00000000000E+00 0.  1.
        -11    1    3    3    0    0 -0.14544942455E+04  0.38276205847E+02  0.11984341475E+04  0.18850100753E+04  0.00000000000E+00 0. -1.
         22    1    1    2    0    0  0.15868468344E+04 -0.38041361061E+02 -0.15843492177E+04  0.22426975865E+04  0.00000000000E+00 0.  1.
<mgrwt>
<rscale>  0 0.43175959E+04</rscale>
<asrwt>0</asrwt>
<pdfrwt beam="1">  1        2 0.35114244E+00 0.43175959E+04</pdfrwt>
<pdfrwt beam="2">  1       -2 0.31413328E+00 0.43175959E+04</pdfrwt>
<totfact> 0.92833587E-02</totfact>
</mgrwt>
</event>
<event>
 6    1  0.2436515E-005  0.3602853E+04  0.7818608E-02  0.8089839E-01
          2   -1    0    0  501    0  0.00000000000E+00  0.00000000000E+00  0.16396787203E+04  0.16396787203E+04  0.00000000000E+00 0.  1.
         -2   -1    0    0    0  501 -0.00000000000E+00 -0.00000000000E+00 -0.19791299646E+04  0.19791299646E+04  0.00000000000E+00 0. -1.
         23    2    1    2    0    0  0.74804007773E+02 -0.15423342472E+04 -0.10994430834E+04  0.18977688349E+04  0.91437887560E+02 0.  0.
         11    1    3    3    0    0  0.22981649194E+02 -0.52270970018E+03 -0.32011945988E+03  0.61337594952E+03  0.00000000000E+00 0. -1.
        -11    1    3    3    0    0  0.51822358579E+02 -0.10196245470E+04 -0.77932362353E+03  0.12843928854E+04  0.00000000000E+00 0.  1.
         22    1    1    2    0    0 -0.74804007773E+02  0.15423342472E+04  0.75999183914E+03  0.17210398500E+04  0.00000000000E+00 0.  1.
<mgrwt>
<rscale>  0 0.36028529E+04</rscale>
<asrwt>0</asrwt>
<pdfrwt beam="1">  1        2 0.25225827E+00 0.36028529E+04</pdfrwt>
<pdfrwt beam="2">  1       -2 0.30448153E+00 0.36028529E+04</pdfrwt>
<totfact> 0.25758921E-01</totfact>
</mgrwt>
</event>
<event>
 6    1  0.2436515E-005  0.4260440E+04  0.7818608E-02  0.7953974E-01
          2   -1    0    0  501    0  0.00000000000E+00  0.00000000000E+00  0.14419779861E+04  0.14419779861E+04  0.00000000000E+00 0.  1.
         -2   -1    0    0    0  501 -0.00000000000E+00 -0.00000000000E+00 -0.31469526156E+04  0.31469526156E+04  0.00000000000E+00 0. -1.
         23    2    1    2    0    0 -0.35759314005E+03  0.20560894896E+04 -0.39875937491E+03  0.21269039701E+04  0.96615816234E+02 0.  0.
         13    1    3    3    0    0 -0.99418741681E+02  0.84476723118E+03 -0.17042641795E+03  0.86750269452E+03  0.00000000000E+00 0. -1.
        -13    1    3    3    0    0 -0.25817439837E+03  0.12113222585E+04 -0.22833295696E+03  0.12594012756E+04  0.00000000000E+00 0.  1.
         22    1    1    2    0    0  0.35759314005E+03 -0.20560894896E+04 -0.13062152545E+04  0.24620266315E+04  0.00000000000E+00 0. -1.
<mgrwt>
<rscale>  0 0.42604396E+04</rscale>
<asrwt>0</asrwt>
<pdfrwt beam="1">  1        2 0.22184277E+00 0.42604396E+04</pdfrwt>
<pdfrwt beam="2">  1       -2 0.48414655E+00 0.42604396E+04</pdfrwt>
<totfact> 0.22012137E-02</totfact>
</mgrwt>
</event>
<event>
 6    1  0.2436515E-005  0.9868246E+03  0.7818608E-02  0.9323115E-01
         -2   -1    0    0    0  501 -0.00000000000E+00  0.00000000000E+00  0.31018739976E+03  0.31018739976E+03  0.00000000000E+00 0. -1.
          2   -1    0    0  501    0  0.00000000000E+00 -0.00000000000E+00 -0.78486649072E+03  0.78486649072E+03  0.00000000000E+00 0.  1.
         23    2    1    2    0    0  0.30275319276E+03 -0.32636880248E+03 -0.15290771992E+02  0.45535574404E+03  0.94546046763E+02 0.  0.
         11    1    3    3    0    0  0.13322751719E+02 -0.52928128337E+02 -0.17053397889E+02  0.57181298185E+02  0.00000000000E+00 0. -1.
        -11    1    3    3    0    0  0.28943044105E+03 -0.27344067414E+03  0.17626258972E+01  0.39817444585E+03  0.00000000000E+00 0.  1.
         22    1    1    2    0    0 -0.30275319276E+03  0.32636880248E+03 -0.45938831897E+03  0.63969814644E+03  0.00000000000E+00 0. -1.
<mgrwt>
<rscale>  0 0.98682460E+03</rscale>
<asrwt>0</asrwt>
<pdfrwt beam="1">  1        2 0.12074869E+00 0.98682460E+03</pdfrwt>
<pdfrwt beam="2">  1       -2 0.47721139E-01 0.98682460E+03</pdfrwt>
<totfact> 0.14685169E+02</totfact>
</mgrwt>
</event>
<event>
 6    1  0.2436515E-005  0.2437937E+04  0.7818608E-02  0.8425436E-01
          2   -1    0    0  501    0  0.00000000000E+00  0.00000000000E+00  0.16717128241E+04  0.16717128241E+04  0.00000000000E+00 0.  1.
         -2   -1    0    0    0  501 -0.00000000000E+00 -0.00000000000E+00 -0.88883912635E+03  0.88883912635E+03  0.00000000000E+00 0. -1.
         23    2    1    2    0    0 -0.95704992306E+03 -0.28307288817E+03  0.11239555485E+04  0.15058426805E+04  0.90616157392E+02 0.  0.
         11    1    3    3    0    0 -0.91670961129E+03 -0.27565653328E+03  0.10470383467E+04  0.14186727372E+04  0.00000000000E+00 0. -1.
        -11    1    3    3    0    0 -0.40340311768E+02 -0.74163548875E+01  0.76917201820E+02  0.87169943267E+02  0.00000000000E+00 0.  1.
         22    1    1    2    0    0  0.95704992306E+03  0.28307288817E+03 -0.34108185080E+03  0.10547092700E+04  0.00000000000E+00 0. -1.
<mgrwt>
<rscale>  0 0.24379366E+04</rscale>
<asrwt>0</asrwt>
<pdfrwt beam="1">  1        2 0.25718659E+00 0.24379366E+04</pdfrwt>
<pdfrwt beam="2">  1       -2 0.13674448E+00 0.24379366E+04</pdfrwt>
<totfact> 0.34805905E+00</totfact>
</mgrwt>
</event>
<event>
 6    1  0.2436515E-005  0.3479925E+04  0.7818608E-02  0.8118564E-01
          2   -1    0    0  501    0  0.00000000000E+00  0.00000000000E+00  0.19097077494E+04  0.19097077494E+04  0.00000000000E+00 0.  1.
         -2   -1    0    0    0  501 -0.00000000000E+00 -0.00000000000E+00 -0.15853052311E+04  0.15853052311E+04  0.00000000000E+00 0. -1.
         23    2    1    2    0    0  0.72785883574E+03 -0.53736517821E+03 -0.13289571986E+04  0.16103012857E+04  0.91668835309E+02 0.  0.
         13    1    3    3    0    0  0.55437858066E+03 -0.45021589182E+03 -0.10121366636E+04  0.12387294240E+04  0.00000000000E+00 0.  1.
        -13    1    3    3    0    0  0.17348025508E+03 -0.87149286388E+02 -0.31682053498E+03  0.37157186170E+03  0.00000000000E+00 0. -1.
         22    1    1    2    0    0 -0.72785883574E+03  0.53736517821E+03  0.16533597169E+04  0.18847116949E+04  0.00000000000E+00 0.  1.
<mgrwt>
<rscale>  0 0.34799251E+04</rscale>
<asrwt>0</asrwt>
<pdfrwt beam="1">  1        2 0.29380119E+00 0.34799251E+04</pdfrwt>
<pdfrwt beam="2">  1       -2 0.24389311E+00 0.34799251E+04</pdfrwt>
<totfact> 0.43261679E-01</totfact>
</mgrwt>
</event>
<event>
 6    1  0.2436515E-005  0.3662000E+04  0.7818608E-02  0.8076436E-01
         -2   -1    0    0    0  501 -0.00000000000E+00  0.00000000000E+00  0.13959029924E+04  0.13959029924E+04  0.00000000000E+00 0. -1.
          2   -1    0    0  501    0  0.00000000000E+00 -0.00000000000E+00 -0.24017150422E+04  0.24017150422E+04  0.00000000000E+00 0.  1.
         23    2    1    2    0    0  0.12956233705E+03  0.19157333763E+03 -0.23856471076E+04  0.23985356461E+04  0.90412284055E+02 0.  0.
         11    1    3    3    0    0  0.74493884920E+02  0.36633564636E+02 -0.70845930203E+03  0.71330634344E+03  0.00000000000E+00 0. -1.
        -11    1    3    3    0    0  0.55068452134E+02  0.15493977299E+03 -0.16771878055E+04  0.16852293027E+04  0.00000000000E+00 0.  1.
         22    1    1    2    0    0 -0.12956233705E+03 -0.19157333763E+03  0.13798350578E+04  0.13990823885E+04  0.00000000000E+00 0. -1.
<mgrwt>
<rscale>  0 0.36620001E+04</rscale>
<asrwt>0</asrwt>
<pdfrwt beam="1">  1        2 0.36949462E+00 0.36620001E+04</pdfrwt>
<pdfrwt beam="2">  1       -2 0.21475431E+00 0.36620001E+04</pdfrwt>
<totfact> 0.34331140E-01</totfact>
</mgrwt>
</event>
<event>
 6    1  0.2436515E-005  0.2325225E+04  0.7818608E-02  0.8468041E-01
          2   -1    0    0  501    0  0.00000000000E+00  0.00000000000E+00  0.16385367206E+04  0.16385367206E+04  0.00000000000E+00 0.  1.
         -2   -1    0    0    0  501 -0.00000000000E+00 -0.00000000000E+00 -0.82492353588E+03  0.82492353588E+03  0.00000000000E+00 0. -1.
         23    2    1    2    0    0  0.28225034571E+03  0.91565654239E+03  0.11018242875E+04  0.14628815234E+04  0.88957460403E+02 0.  0.
         13    1    3    3    0    0  0.22820179216E+02  0.11761672379E+03  0.18091512118E+03  0.21699017344E+03  0.00000000000E+00 0.  1.
        -13    1    3    3    0    0  0.25943016649E+03  0.79803981861E+03  0.92090916629E+03  0.12458913500E+04  0.00000000000E+00 0. -1.
         22    1    1    2    0    0 -0.28225034571E+03 -0.91565654239E+03 -0.28821110277E+03  0.10005787331E+04  0.00000000000E+00 0. -1.
<mgrwt>
<rscale>  0 0.23252247E+04</rscale>
<asrwt>0</asrwt>
<pdfrwt beam="1">  1        2 0.25208257E+00 0.23252247E+04</pdfrwt>
<pdfrwt beam="2">  1       -2 0.12691131E+00 0.23252247E+04</pdfrwt>
<totfact> 0.44317889E+00</totfact>
</mgrwt>
</event>
<event>
 6    1  0.2436515E-005  0.2682948E+04  0.7818608E-02  0.8340559E-01
         -2   -1    0    0    0  501 -0.00000000000E+00  0.00000000000E+00  0.64599652427E+03  0.64599652427E+03  0.00000000000E+00 0. -1.
          2   -1    0    0  501    0  0.00000000000E+00 -0.00000000000E+00 -0.27857009326E+04  0.27857009326E+04  0.00000000000E+00 0.  1.
         23    2    1    2    0    0  0.65288510620E+03 -0.10504545172E+04 -0.17300391893E+04  0.21288009735E+04  0.95101701095E+02 0.  0.
         13    1    3    3    0    0  0.56033166011E+03 -0.87936339964E+03 -0.15109871653E+04  0.18358468813E+04  0.00000000000E+00 0.  1.
        -13    1    3    3    0    0  0.92553446086E+02 -0.17109111758E+03 -0.21905202400E+03  0.29295409216E+03  0.00000000000E+00 0. -1.
         22    1    1    2    0    0 -0.65288510620E+03  0.10504545172E+04 -0.40966521896E+03  0.13028964833E+04  0.00000000000E+00 0. -1.
<mgrwt>
<rscale>  0 0.26829485E+04</rscale>
<asrwt>0</asrwt>
<pdfrwt beam="1">  1        2 0.42856937E+00 0.26829485E+04</pdfrwt>
<pdfrwt beam="2">  1       -2 0.99384082E-01 0.26829485E+04</pdfrwt>
<totfact> 0.17365017E+00</totfact>
</mgrwt>
</event>
<event>
 6    1  0.2436515E-005  0.2588143E+04  0.7818608E-02  0.8372240E-01
         -1   -1    0    0    0  501 -0.00000000000E+00  0.00000000000E+00  0.20320418816E+04  0.20320418816E+04  0.00000000000E+00 0. -1.
          1   -1    0    0  501    0  0.00000000000E+00 -0.00000000000E+00 -0.82410770360E+03  0.82410770360E+03  0.00000000000E+00 0.  1.
         23    2    1    2    0    0  0.56276941342E+03 -0.10879770555E+04  0.10593566265E+04  0.16222619182E+04  0.95361330544E+02 0.  0.
         13    1    3    3    0    0  0.41278014678E+03 -0.70702503354E+03  0.68426241623E+03  0.10669990168E+04  0.00000000000E+00 0.  1.
        -13    1    3    3    0    0  0.14998926664E+03 -0.38095202192E+03  0.37509421027E+03  0.55526290142E+03  0.00000000000E+00 0. -1.
         22    1    1    2    0    0 -0.56276941342E+03  0.10879770555E+04  0.14857755150E+03  0.12338876670E+04  0.00000000000E+00 0. -1.
<mgrwt>
<rscale>  0 0.25881432E+04</rscale>
<asrwt>0</asrwt>
<pdfrwt beam="1">  1        1 0.12678580E+00 0.25881432E+04</pdfrwt>
<pdfrwt beam="2">  1       -1 0.31262183E+00 0.25881432E+04</pdfrwt>
<totfact> 0.50796974E-01</totfact>
</mgrwt>
</event>
<event>
 6    1  0.4384165E-005  0.2930862E+04  0.7818608E-02  0.8263754E-01
          2   -1    0    0  501    0  0.00000000000E+00  0.00000000000E+00  0.19457863812E+04  0.19457863812E+04  0.00000000000E+00 0.  1.
         -2   -1    0    0    0  501 -0.00000000000E+00 -0.00000000000E+00 -0.11036606040E+04  0.11036606040E+04  0.00000000000E+00 0. -1.
         23    2    1    2    0    0 -0.78641922435E+03  0.85346014502E+03 -0.50708881239E+03  0.12697758290E+04  0.91335517345E+02 0.  0.
         13    1    3    3    0    0 -0.49450019261E+03  0.49934740262E+03 -0.34668780697E+03  0.78362663591E+03  0.00000000000E+00 0.  1.
        -13    1    3    3    0    0 -0.29191903174E+03  0.35411274239E+03 -0.16040100542E+03  0.48614919310E+03  0.00000000000E+00 0. -1.
         22    1    1    2    0    0  0.78641922435E+03 -0.85346014502E+03  0.13492145895E+04  0.17796711562E+04  0.00000000000E+00 0.  1.
<mgrwt>
<rscale>  0 0.29308618E+04</rscale>
<asrwt>0</asrwt>
<pdfrwt beam="1">  1        2 0.29935175E+00 0.29308618E+04</pdfrwt>
<pdfrwt beam="2">  1       -2 0.16979394E+00 0.29308618E+04</pdfrwt>
<totfact> 0.13186028E+00</totfact>
</mgrwt>
</event>
<event>
 6    1  0.2436515E-005  0.4738583E+04  0.7818608E-02  0.7870149E-01
         -2   -1    0    0    0  501 -0.00000000000E+00  0.00000000000E+00  0.28556957646E+04  0.28556957646E+04  0.00000000000E+00 0. -1.
          2   -1    0    0  501    0  0.00000000000E+00 -0.00000000000E+00 -0.19657351016E+04  0.19657351016E+04  0.00000000000E+00 0.  1.
         23    2    1    2    0    0  0.13344202611E+04 -0.24621343138E+03 -0.15297588682E+04  0.20472028480E+04  0.97871441272E+02 0.  0.
         11    1    3    3    0    0  0.11250190869E+04 -0.18818347239E+03 -0.13288392350E+04  0.17512551721E+04  0.00000000000E+00 0. -1.
        -11    1    3    3    0    0  0.20940117419E+03 -0.58029958990E+02 -0.20091963322E+03  0.29594767596E+03  0.00000000000E+00 0.  1.
         22    1    1    2    0    0 -0.13344202611E+04  0.24621343138E+03  0.24197195312E+04  0.27742280181E+04  0.00000000000E+00 0. -1.
<mgrwt>
<rscale>  0 0.47385827E+04</rscale>
<asrwt>0</asrwt>
<pdfrwt beam="1">  1        2 0.30242078E+00 0.47385827E+04</pdfrwt>
<pdfrwt beam="2">  1       -2 0.43933781E+00 0.47385827E+04</pdfrwt>
<totfact> 0.21219936E-02</totfact>
</mgrwt>
</event>
<event>
 6    1  0.2436515E-005  0.2100490E+04  0.7818608E-02  0.8561028E-01
          2   -1    0    0  501    0  0.00000000000E+00  0.00000000000E+00  0.18381590105E+04  0.18381590105E+04  0.00000000000E+00 0.  1.
         -2   -1    0    0    0  501 -0.00000000000E+00 -0.00000000000E+00 -0.60006458641E+03  0.60006458641E+03  0.00000000000E+00 0. -1.
         23    2    1    2    0    0  0.84348083260E+03 -0.62009830195E+03  0.55918071155E+03  0.11904633442E+04  0.92401768263E+02 0.  0.
         13    1    3    3    0    0  0.57421318701E+03 -0.38591548165E+03  0.33155130070E+03  0.76718824816E+03  0.00000000000E+00 0.  1.
        -13    1    3    3    0    0  0.26926764559E+03 -0.23418282030E+03  0.22762941085E+03  0.42327509609E+03  0.00000000000E+00 0. -1.
         22    1    1    2    0    0 -0.84348083260E+03  0.62009830195E+03  0.67891371251E+03  0.12477602526E+04  0.00000000000E+00 0. -1.
<mgrwt>
<rscale>  0 0.21004896E+04</rscale>
<asrwt>0</asrwt>
<pdfrwt beam="1">  1        2 0.28279369E+00 0.21004896E+04</pdfrwt>
<pdfrwt beam="2">  1       -2 0.92317629E-01 0.21004896E+04</pdfrwt>
<totfact> 0.75451884E+00</totfact>
</mgrwt>
</event>
<event>
 6    1  0.2436515E-005  0.3183070E+04  0.7818608E-02  0.8193303E-01
          2   -1    0    0  501    0  0.00000000000E+00  0.00000000000E+00  0.17294032162E+04  0.17294032162E+04  0.00000000000E+00 0.  1.
         -2   -1    0    0    0  501 -0.00000000000E+00 -0.00000000000E+00 -0.14646576242E+04  0.14646576242E+04  0.00000000000E+00 0. -1.
         23    2    1    2    0    0 -0.57510446822E+03 -0.83869920999E+03 -0.10943199219E+04  0.14966449853E+04  0.90821838498E+02 0.  0.
         13    1    3    3    0    0 -0.28887135423E+03 -0.37880436971E+03 -0.56859159826E+03  0.74177881840E+03  0.00000000000E+00 0. -1.
        -13    1    3    3    0    0 -0.28623311399E+03 -0.45989484028E+03 -0.52572832364E+03  0.75486616691E+03  0.00000000000E+00 0.  1.
         22    1    1    2    0    0  0.57510446822E+03  0.83869920999E+03  0.13590655139E+04  0.16974158551E+04  0.00000000000E+00 0.  1.
<mgrwt>
<rscale>  0 0.31830700E+04</rscale>
<asrwt>0</asrwt>
<pdfrwt beam="1">  1        2 0.26606203E+00 0.31830700E+04</pdfrwt>
<pdfrwt beam="2">  1       -2 0.22533194E+00 0.31830700E+04</pdfrwt>
<totfact> 0.72845225E-01</totfact>
</mgrwt>
</event>
<event>
 6    1  0.2436515E-005  0.1068116E+04  0.7818608E-02  0.9236838E-01
          2   -1    0    0  501    0  0.00000000000E+00  0.00000000000E+00  0.22082330474E+04  0.22082330474E+04  0.00000000000E+00 0.  1.
         -2   -1    0    0    0  501 -0.00000000000E+00 -0.00000000000E+00 -0.12916116953E+03  0.12916116953E+03  0.00000000000E+00 0. -1.
         23    2    1    2    0    0 -0.10300808109E+03  0.13457243197E+03  0.21464636636E+04  0.21550153338E+04  0.89802146656E+02 0.  0.
         11    1    3    3    0    0 -0.91503273299E+02  0.86923035470E+02  0.10668196261E+04  0.10742590831E+04  0.00000000000E+00 0. -1.
        -11    1    3    3    0    0 -0.11504807795E+02  0.47649396499E+02  0.10796440375E+04  0.10807562507E+04  0.00000000000E+00 0.  1.
         22    1    1    2    0    0  0.10300808109E+03 -0.13457243197E+03 -0.67391785748E+02  0.18237888311E+03  0.00000000000E+00 0. -1.
<mgrwt>
<rscale>  0 0.10681160E+04</rscale>
<asrwt>0</asrwt>
<pdfrwt beam="1">  1        2 0.33972813E+00 0.10681160E+04</pdfrwt>
<pdfrwt beam="2">  1       -2 0.19870951E-01 0.10681160E+04</pdfrwt>
<totfact> 0.11043129E+02</totfact>
</mgrwt>
</event>
<event>
 6    1  0.2436515E-005  0.2011858E+04  0.7818608E-02  0.8601097E-01
          1   -1    0    0  501    0  0.00000000000E+00  0.00000000000E+00  0.58500166297E+03  0.58500166297E+03  0.00000000000E+00 0. -1.
         -1   -1    0    0    0  501 -0.00000000000E+00 -0.00000000000E+00 -0.17297263244E+04  0.17297263244E+04  0.00000000000E+00 0.  1.
         23    2    1    2    0    0  0.67890578883E+03 -0.43406697624E+03 -0.12620370471E+04  0.15004249689E+04  0.95970667687E+02 0.  0.
         13    1    3    3    0    0  0.53646674839E+03 -0.29409389800E+03 -0.95457825307E+03  0.11338022024E+04  0.00000000000E+00 0. -1.
        -13    1    3    3    0    0  0.14243904044E+03 -0.13997307824E+03 -0.30745879406E+03  0.36662276650E+03  0.00000000000E+00 0.  1.
         22    1    1    2    0    0 -0.67890578883E+03  0.43406697624E+03  0.11731238573E+03  0.81430301843E+03  0.00000000000E+00 0. -1.
<mgrwt>
<rscale>  0 0.20118576E+04</rscale>
<asrwt>0</asrwt>
<pdfrwt beam="1">  1        1 0.90000257E-01 0.20118576E+04</pdfrwt>
<pdfrwt beam="2">  1       -1 0.26611174E+00 0.20118576E+04</pdfrwt>
<totfact> 0.18029500E+00</totfact>
</mgrwt>
</event>
<event>
 6    1  0.2436515E-005  0.1604888E+04  0.7818608E-02  0.8817551E-01
         -2   -1    0    0    0  501 -0.00000000000E+00  0.00000000000E+00  0.45884372821E+03  0.45884372821E+03  0.00000000000E+00 0. -1.
          2   -1    0    0  501    0  0.00000000000E+00 -0.00000000000E+00 -0.14033463830E+04  0.14033463830E+04  0.00000000000E+00 0.  1.
         23    2    1    2    0    0 -0.46601263770E+03 -0.60649290014E+03 -0.20211838518E+03  0.79629339006E+03  0.90718823889E+02 0.  0.
         11    1    3    3    0    0 -0.10954770289E+03 -0.18370536811E+03 -0.23601702297E+02  0.21518689977E+03  0.00000000000E+00 0. -1.
        -11    1    3    3    0    0 -0.35646493481E+03 -0.42278753203E+03 -0.17851668288E+03  0.58110649029E+03  0.00000000000E+00 0.  1.
         22    1    1    2    0    0  0.46601263770E+03  0.60649290014E+03 -0.74238426964E+03  0.10658967212E+04  0.00000000000E+00 0.  1.
<mgrwt>
<rscale>  0 0.16048884E+04</rscale>
<asrwt>0</asrwt>
<pdfrwt beam="1">  1        2 0.21589944E+00 0.16048884E+04</pdfrwt>
<pdfrwt beam="2">  1       -2 0.70591344E-01 0.16048884E+04</pdfrwt>
<totfact> 0.25202849E+01</totfact>
</mgrwt>
</event>
<event>
 6    1  0.2436515E-005  0.2102947E+04  0.7818608E-02  0.8559946E-01
          2   -1    0    0  501    0  0.00000000000E+00  0.00000000000E+00  0.99232187673E+03  0.99232187673E+03  0.00000000000E+00 0.  1.
         -2   -1    0    0    0  501 -0.00000000000E+00 -0.00000000000E+00 -0.11141511722E+04  0.11141511722E+04  0.00000000000E+00 0. -1.
         23    2    1    2    0    0 -0.69906592400E+03 -0.63907622629E+03  0.39178667913E+03  0.10290163405E+04  0.90918854277E+02 0.  0.
         13    1    3    3    0    0 -0.38883759270E+03 -0.30046619777E+03  0.18044841210E+03  0.52348470745E+03  0.00000000000E+00 0.  1.
        -13    1    3    3    0    0 -0.31022833130E+03 -0.33861002852E+03  0.21133826703E+03  0.50553163310E+03  0.00000000000E+00 0. -1.
         22    1    1    2    0    0  0.69906592400E+03  0.63907622629E+03 -0.51361597464E+03  0.10774567084E+04  0.00000000000E+00 0. -1.
<mgrwt>
<rscale>  0 0.21029471E+04</rscale>
<asrwt>0</asrwt>
<pdfrwt beam="1">  1        2 0.15266491E+00 0.21029471E+04</pdfrwt>
<pdfrwt beam="2">  1       -2 0.17140787E+00 0.21029471E+04</pdfrwt>
<totfact> 0.48879947E+00</totfact>
</mgrwt>
</event>
<event>
 6    1  0.2436515E-005  0.3533300E+04  0.7818608E-02  0.8105943E-01
          2   -1    0    0  501    0  0.00000000000E+00  0.00000000000E+00  0.23020539938E+04  0.23020539938E+04  0.00000000000E+00 0.  1.
         -2   -1    0    0    0  501 -0.00000000000E+00 -0.00000000000E+00 -0.13557681695E+04  0.13557681695E+04  0.00000000000E+00 0. -1.
         23    2    1    2    0    0 -0.73162269372E+03  0.23827603195E+03 -0.11715650076E+04  0.14045269364E+04  0.89911705466E+02 0.  0.
         11    1    3    3    0    0 -0.38496650798E+03  0.78112503756E+02 -0.59583150548E+03  0.71366375727E+03  0.00000000000E+00 0.  1.
        -11    1    3    3    0    0 -0.34665618574E+03  0.16016352819E+03 -0.57573350209E+03  0.69086317915E+03  0.00000000000E+00 0. -1.
         22    1    1    2    0    0  0.73162269372E+03 -0.23827603195E+03  0.21178508319E+04  0.22532952269E+04  0.00000000000E+00 0.  1.
<mgrwt>
<rscale>  0 0.35332996E+04</rscale>
<asrwt>0</asrwt>
<pdfrwt beam="1">  1        2 0.35416215E+00 0.35332996E+04</pdfrwt>
<pdfrwt beam="2">  1       -2 0.20857972E+00 0.35332996E+04</pdfrwt>
<totfact> 0.43332280E-01</totfact>
</mgrwt>
</event>
<event>
 6    1  0.2436515E-005  0.3547251E+04  0.7818608E-02  0.8102682E-01
          2   -1    0    0  501    0  0.00000000000E+00  0.00000000000E+00  0.21012081492E+04  0.21012081492E+04  0.00000000000E+00 0.  1.
         -2   -1    0    0    0  501 -0.00000000000E+00 -0.00000000000E+00 -0.14971137202E+04  0.14971137202E+04  0.00000000000E+00 0. -1.
         23    2    1    2    0    0  0.12935615162E+04 -0.78897897939E+03 -0.63062501071E+03  0.16437576415E+04  0.91989422712E+02 0.  0.
         11    1    3    3    0    0  0.94252804786E+03 -0.62044423346E+03 -0.45804006158E+03  0.12178303929E+04  0.00000000000E+00 0.  1.
        -11    1    3    3    0    0  0.35103346830E+03 -0.16853474593E+03 -0.17258494913E+03  0.42592724862E+03  0.00000000000E+00 0. -1.
         22    1    1    2    0    0 -0.12935615162E+04  0.78897897939E+03  0.12347194397E+04  0.19545642278E+04  0.00000000000E+00 0.  1.
<mgrwt>
<rscale>  0 0.35472511E+04</rscale>
<asrwt>0</asrwt>
<pdfrwt beam="1">  1        2 0.32326279E+00 0.35472511E+04</pdfrwt>
<pdfrwt beam="2">  1       -2 0.23032519E+00 0.35472511E+04</pdfrwt>
<totfact> 0.40868724E-01</totfact>
</mgrwt>
</event>
<event>
 6    1  0.6051425E-005  0.4143367E+04  0.7818608E-02  0.7976233E-01
         -2   -1    0    0    0  501 -0.00000000000E+00  0.00000000000E+00  0.22363921576E+04  0.22363921576E+04  0.00000000000E+00 0. -1.
          2   -1    0    0  501    0  0.00000000000E+00 -0.00000000000E+00 -0.19191054008E+04  0.19191054008E+04  0.00000000000E+00 0.  1.
         23    2    1    2    0    0 -0.10545384069E+04 -0.17417447492E+04 -0.21968316252E+03  0.20497761340E+04  0.87152076156E+02 0.  0.
         11    1    3    3    0    0 -0.35062857857E+03 -0.56040509832E+03 -0.31511664786E+02  0.66180605871E+03  0.00000000000E+00 0.  1.
        -11    1    3    3    0    0 -0.70390982837E+03 -0.11813396509E+04 -0.18817149774E+03  0.13879700753E+04  0.00000000000E+00 0. -1.
         22    1    1    2    0    0  0.10545384069E+04  0.17417447492E+04  0.53696991926E+03  0.21057214244E+04  0.00000000000E+00 0. -1.
<mgrwt>
<rscale>  0 0.41433669E+04</rscale>
<asrwt>0</asrwt>
<pdfrwt beam="1">  1        2 0.29524699E+00 0.41433669E+04</pdfrwt>
<pdfrwt beam="2">  1       -2 0.34406033E+00 0.41433669E+04</pdfrwt>
<totfact> 0.97972002E-02</totfact>
</mgrwt>
</event>
<event>
 6    1  0.2436515E-005  0.2305325E+04  0.7818608E-02  0.8475825E-01
          2   -1    0    0  501    0  0.00000000000E+00  0.00000000000E+00  0.79775953802E+03  0.79775953802E+03  0.00000000000E+00 0. -1.
         -2   -1    0    0    0  501 -0.00000000000E+00 -0.00000000000E+00 -0.16654525252E+04  0.16654525252E+04  0.00000000000E+00 0.  1.
         23    2    1    2    0    0 -0.28260551160E+03  0.10193206126E+04  0.50213716129E+02  0.10627003345E+04  0.89051654687E+02 0.  0.
         11    1    3    3    0    0 -0.25420886663E+02  0.21452727976E+03  0.24594551736E+02  0.21742370435E+03  0.00000000000E+00 0. -1.
        -11    1    3    3    0    0 -0.25718462494E+03  0.80479333280E+03  0.25619164393E+02  0.84527663011E+03  0.00000000000E+00 0.  1.
         22    1    1    2    0    0  0.28260551160E+03 -0.10193206126E+04 -0.91790670328E+03  0.14005117287E+04  0.00000000000E+00 0.  1.
<mgrwt>
<rscale>  0 0.23053248E+04</rscale>
<asrwt>0</asrwt>
<pdfrwt beam="1">  1        2 0.12273224E+00 0.23053248E+04</pdfrwt>
<pdfrwt beam="2">  1       -2 0.25622346E+00 0.23053248E+04</pdfrwt>
<totfact> 0.18435557E+00</totfact>
</mgrwt>
</event>
<event>
 6    1  0.2436515E-005  0.3118089E+04  0.7818608E-02  0.8210791E-01
          2   -1    0    0  501    0  0.00000000000E+00  0.00000000000E+00  0.30441985847E+04  0.30441985847E+04  0.00000000000E+00 0.  1.
         -2   -1    0    0    0  501 -0.00000000000E+00 -0.00000000000E+00 -0.79844303611E+03  0.79844303611E+03  0.00000000000E+00 0. -1.
         23    2    1    2    0    0  0.46848551868E+03  0.12852589342E+04  0.20420501543E+04  0.24595779575E+04  0.90474789406E+02 0.  0.
         13    1    3    3    0    0  0.29748854969E+03  0.74573493527E+03  0.12644102297E+04  0.14977827813E+04  0.00000000000E+00 0. -1.
        -13    1    3    3    0    0  0.17099696899E+03  0.53952399891E+03  0.77763992452E+03  0.96179517623E+03  0.00000000000E+00 0.  1.
         22    1    1    2    0    0 -0.46848551868E+03 -0.12852589342E+04  0.20370539436E+03  0.13830636633E+04  0.00000000000E+00 0.  1.
<mgrwt>
<rscale>  0 0.31180886E+04</rscale>
<asrwt>0</asrwt>
<pdfrwt beam="1">  1        2 0.46833824E+00 0.31180886E+04</pdfrwt>
<pdfrwt beam="2">  1       -2 0.12283739E+00 0.31180886E+04</pdfrwt>
<totfact> 0.69298689E-01</totfact>
</mgrwt>
</event>
<event>
 6    1  0.2436515E-005  0.1862022E+04  0.7818608E-02  0.8673995E-01
         -2   -1    0    0    0  501 -0.00000000000E+00  0.00000000000E+00  0.81242935329E+03  0.81242935329E+03  0.00000000000E+00 0. -1.
          2   -1    0    0  501    0  0.00000000000E+00 -0.00000000000E+00 -0.10669003977E+04  0.10669003977E+04  0.00000000000E+00 0.  1.
         23    2    1    2    0    0  0.94898219920E+02 -0.86661263864E+03 -0.45080814085E+03  0.98570153236E+03  0.91413311118E+02 0.  0.
         13    1    3    3    0    0  0.21080539365E+02 -0.54998609038E+03 -0.25978797165E+03  0.60862047202E+03  0.00000000000E+00 0.  1.
        -13    1    3    3    0    0  0.73817680556E+02 -0.31662654827E+03 -0.19102016920E+03  0.37708106034E+03  0.00000000000E+00 0. -1.
         22    1    1    2    0    0 -0.94898219920E+02  0.86661263864E+03  0.19633709648E+03  0.89362821859E+03  0.00000000000E+00 0. -1.
<mgrwt>
<rscale>  0 0.18620217E+04</rscale>
<asrwt>0</asrwt>
<pdfrwt beam="1">  1        2 0.16413852E+00 0.18620217E+04</pdfrwt>
<pdfrwt beam="2">  1       -2 0.12498913E+00 0.18620217E+04</pdfrwt>
<totfact> 0.10292445E+01</totfact>
</mgrwt>
</event>
<event>
 6    1  0.2436515E-005  0.8088218E+03  0.7818608E-02  0.9547335E-01
          2   -1    0    0  501    0  0.00000000000E+00  0.00000000000E+00  0.34199676862E+03  0.34199676862E+03  0.00000000000E+00 0.  1.
         -2   -1    0    0    0  501 -0.00000000000E+00 -0.00000000000E+00 -0.47821560016E+03  0.47821560016E+03  0.00000000000E+00 0. -1.
         23    2    1    2    0    0  0.30505686205E+03  0.49040188779E+02  0.18706723146E+03  0.37302280301E+03  0.93205328631E+02 0.  0.
         13    1    3    3    0    0  0.13819074286E+03 -0.14080468704E+02  0.11604187080E+03  0.18099905190E+03  0.00000000000E+00 0.  1.
        -13    1    3    3    0    0  0.16686611919E+03  0.63120657483E+02  0.71025360657E+02  0.19202375111E+03  0.00000000000E+00 0. -1.
         22    1    1    2    0    0 -0.30505686205E+03 -0.49040188779E+02 -0.32328606300E+03  0.44718956576E+03  0.00000000000E+00 0. -1.
<mgrwt>
<rscale>  0 0.80882183E+03</rscale>
<asrwt>0</asrwt>
<pdfrwt beam="1">  1        2 0.52614888E-01 0.80882183E+03</pdfrwt>
<pdfrwt beam="2">  1       -2 0.73571631E-01 0.80882183E+03</pdfrwt>
<totfact> 0.15920023E+02</totfact>
</mgrwt>
</event>
<event>
 6    1  0.2436515E-005  0.8721616E+03  0.7818608E-02  0.9461066E-01
          2   -1    0    0  501    0  0.00000000000E+00  0.00000000000E+00  0.13449749866E+04  0.13449749866E+04  0.00000000000E+00 0.  1.
         -2   -1    0    0    0  501 -0.00000000000E+00 -0.00000000000E+00 -0.14139034039E+03  0.14139034039E+03  0.00000000000E+00 0. -1.
         23    2    1    2    0    0 -0.34141120437E+03  0.16964779785E+03  0.26508330062E+03  0.47338617545E+03  0.92104989294E+02 0.  0.
         13    1    3    3    0    0 -0.20235157760E+03  0.65315281108E+02  0.18555977049E+03  0.28221388224E+03  0.00000000000E+00 0.  1.
        -13    1    3    3    0    0 -0.13905962676E+03  0.10433251674E+03  0.79523530131E+02  0.19117229321E+03  0.00000000000E+00 0. -1.
         22    1    1    2    0    0  0.34141120437E+03 -0.16964779785E+03  0.93850134564E+03  0.10129791516E+04  0.00000000000E+00 0.  1.
<mgrwt>
<rscale>  0 0.87216162E+03</rscale>
<asrwt>0</asrwt>
<pdfrwt beam="1">  1        2 0.20691922E+00 0.87216162E+03</pdfrwt>
<pdfrwt beam="2">  1       -2 0.21752361E-01 0.87216162E+03</pdfrwt>
<totfact> 0.28755259E+02</totfact>
</mgrwt>
</event>
<event>
 6    1  0.2436515E-005  0.3087505E+04  0.7818608E-02  0.8219175E-01
         -2   -1    0    0    0  501 -0.00000000000E+00  0.00000000000E+00  0.93814377211E+03  0.93814377211E+03  0.00000000000E+00 0. -1.
          2   -1    0    0  501    0  0.00000000000E+00 -0.00000000000E+00 -0.25403059417E+04  0.25403059417E+04  0.00000000000E+00 0.  1.
         23    2    1    2    0    0 -0.17985335731E+03  0.83208819317E+03  0.64747457305E+03  0.10731257304E+04  0.87507251997E+02 0.  0.
         13    1    3    3    0    0 -0.21509970390E+02  0.14158588004E+03  0.15060663803E+03  0.20782588788E+03  0.00000000000E+00 0.  1.
        -13    1    3    3    0    0 -0.15834338692E+03  0.69050231314E+03  0.49686793502E+03  0.86529984253E+03  0.00000000000E+00 0. -1.
         22    1    1    2    0    0  0.17985335731E+03 -0.83208819317E+03 -0.22496367426E+04  0.24053239834E+04  0.00000000000E+00 0.  1.
<mgrwt>
<rscale>  0 0.30875053E+04</rscale>
<asrwt>0</asrwt>
<pdfrwt beam="1">  1        2 0.39081629E+00 0.30875053E+04</pdfrwt>
<pdfrwt beam="2">  1       -2 0.14432981E+00 0.30875053E+04</pdfrwt>
<totfact> 0.92953386E-01</totfact>
</mgrwt>
</event>
<event>
 6    1  0.2436515E-005  0.2370048E+04  0.7818608E-02  0.8450803E-01
          1   -1    0    0  501    0  0.00000000000E+00  0.00000000000E+00  0.52180615622E+03  0.52180615622E+03  0.00000000000E+00 0.  1.
         -1   -1    0    0    0  501 -0.00000000000E+00 -0.00000000000E+00 -0.26911956789E+04  0.26911956789E+04  0.00000000000E+00 0. -1.
         23    2    1    2    0    0  0.15688943504E+03  0.57955434815E+03 -0.24685614616E+04  0.25421804086E+04  0.91586041258E+02 0.  0.
         11    1    3    3    0    0  0.24981231087E+02  0.26482979142E+03 -0.10580074390E+04  0.10909347466E+04  0.00000000000E+00 0.  1.
        -11    1    3    3    0    0  0.13190820395E+03  0.31472455672E+03 -0.14105540226E+04  0.14512456620E+04  0.00000000000E+00 0. -1.
         22    1    1    2    0    0 -0.15688943504E+03 -0.57955434815E+03  0.29917193890E+03  0.67082142654E+03  0.00000000000E+00 0.  1.
<mgrwt>
<rscale>  0 0.23700485E+04</rscale>
<asrwt>0</asrwt>
<pdfrwt beam="1">  1        1 0.80277869E-01 0.23700485E+04</pdfrwt>
<pdfrwt beam="2">  1       -1 0.41403011E+00 0.23700485E+04</pdfrwt>
<totfact> 0.21514339E-01</totfact>
</mgrwt>
</event>
<event>
 6    1  0.2436515E-005  0.1303960E+04  0.7818608E-02  0.9026431E-01
         -2   -1    0    0    0  501 -0.00000000000E+00  0.00000000000E+00  0.14886844117E+04  0.14886844117E+04  0.00000000000E+00 0. -1.
          2   -1    0    0  501    0  0.00000000000E+00 -0.00000000000E+00 -0.28553930885E+03  0.28553930885E+03  0.00000000000E+00 0.  1.
         23    2    1    2    0    0 -0.62153038046E+03  0.64131141222E+02  0.36695137155E+03  0.73036895414E+03  0.91502366006E+02 0.  0.
         11    1    3    3    0    0 -0.33518444308E+03  0.77658659196E+02  0.18222287545E+03  0.38933874013E+03  0.00000000000E+00 0.  1.
        -11    1    3    3    0    0 -0.28634593737E+03 -0.13527517973E+02  0.18472849610E+03  0.34103021401E+03  0.00000000000E+00 0. -1.
         22    1    1    2    0    0  0.62153038046E+03 -0.64131141222E+02  0.83619373128E+03  0.10438547664E+04  0.00000000000E+00 0. -1.
<mgrwt>
<rscale>  0 0.13039600E+04</rscale>
<asrwt>0</asrwt>
<pdfrwt beam="1">  1        2 0.43929125E-01 0.13039600E+04</pdfrwt>
<pdfrwt beam="2">  1       -2 0.22902837E+00 0.13039600E+04</pdfrwt>
<totfact> 0.98608642E+00</totfact>
</mgrwt>
</event>
<event>
 6    1  0.2436515E-005  0.8816199E+03  0.7818608E-02  0.9448854E-01
         -2   -1    0    0    0  501 -0.00000000000E+00  0.00000000000E+00  0.66844098381E+02  0.66844098381E+02  0.00000000000E+00 0. -1.
          2   -1    0    0  501    0  0.00000000000E+00 -0.00000000000E+00 -0.29069643418E+04  0.29069643418E+04  0.00000000000E+00 0.  1.
         23    2    1    2    0    0 -0.99008681752E+02 -0.42044957829E+03 -0.12307741263E+04  0.13075024984E+04  0.90428238894E+02 0.  0.
         13    1    3    3    0    0 -0.86121077093E+02 -0.30681370249E+03 -0.10066476120E+04  0.10558839437E+04  0.00000000000E+00 0. -1.
        -13    1    3    3    0    0 -0.12887604658E+02 -0.11363587580E+03 -0.22412651435E+03  0.25161855468E+03  0.00000000000E+00 0.  1.
         22    1    1    2    0    0  0.99008681752E+02  0.42044957829E+03 -0.16093461170E+04  0.16663059417E+04  0.00000000000E+00 0.  1.
<mgrwt>
<rscale>  0 0.88161990E+03</rscale>
<asrwt>0</asrwt>
<pdfrwt beam="1">  1        2 0.44722534E+00 0.88161990E+03</pdfrwt>
<pdfrwt beam="2">  1       -2 0.10283706E-01 0.88161990E+03</pdfrwt>
<totfact> 0.13522745E+02</totfact>
</mgrwt>
</event>
<event>
 6    1  0.2436515E-005  0.4059888E+04  0.7818608E-02  0.7992573E-01
         -2   -1    0    0    0  501 -0.00000000000E+00  0.00000000000E+00  0.19454332571E+04  0.19454332571E+04  0.00000000000E+00 0. -1.
          2   -1    0    0  501    0  0.00000000000E+00 -0.00000000000E+00 -0.21181262313E+04  0.21181262313E+04  0.00000000000E+00 0.  1.
         23    2    1    2    0    0 -0.71487203638E+03  0.18653893679E+04 -0.44142413882E+03  0.20478869056E+04  0.90917464851E+02 0.  0.
         13    1    3    3    0    0 -0.36802375028E+03  0.84067862026E+03 -0.21777127149E+03  0.94318945606E+03  0.00000000000E+00 0.  1.
        -13    1    3    3    0    0 -0.34684828609E+03  0.10247107477E+04 -0.22365286733E+03  0.11046974495E+04  0.00000000000E+00 0. -1.
         22    1    1    2    0    0  0.71487203638E+03 -0.18653893679E+04  0.26873116457E+03  0.20156725828E+04  0.00000000000E+00 0.  1.
<mgrwt>
<rscale>  0 0.40598883E+04</rscale>
<asrwt>0</asrwt>
<pdfrwt beam="1">  1        2 0.32586557E+00 0.40598883E+04</pdfrwt>
<pdfrwt beam="2">  1       -2 0.29929743E+00 0.40598883E+04</pdfrwt>
<totfact> 0.14466549E-01</totfact>
</mgrwt>
</event>
<event>
 6    1  0.2436515E-005  0.5794718E+04  0.7818608E-02  0.7716388E-01
          2   -1    0    0  501    0  0.00000000000E+00  0.00000000000E+00  0.31562106436E+04  0.31562106436E+04  0.00000000000E+00 0.  1.
         -2   -1    0    0    0  501 -0.00000000000E+00 -0.00000000000E+00 -0.26597367624E+04  0.26597367624E+04  0.00000000000E+00 0. -1.
         23    2    1    2    0    0  0.20672008464E+04 -0.12254581658E+04 -0.13745004901E+04  0.27703584394E+04  0.10279703351E+03 0.  0.
         11    1    3    3    0    0  0.16875595243E+04 -0.10036254150E+04 -0.10765239674E+04  0.22392018610E+04  0.00000000000E+00 0. -1.
        -11    1    3    3    0    0  0.37964132211E+03 -0.22183275078E+03 -0.29797652270E+03  0.53115657847E+03  0.00000000000E+00 0.  1.
         22    1    1    2    0    0 -0.20672008464E+04  0.12254581658E+04  0.18709743713E+04  0.30455889666E+04  0.00000000000E+00 0.  1.
<mgrwt>
<rscale>  0 0.57947181E+04</rscale>
<asrwt>0</asrwt>
<pdfrwt beam="1">  1        2 0.48557087E+00 0.57947181E+04</pdfrwt>
<pdfrwt beam="2">  1       -2 0.40919027E+00 0.57947181E+04</pdfrwt>
<totfact> 0.61219245E-03</totfact>
</mgrwt>
</event>
<event>
 6    1  0.2436515E-005  0.1361068E+04  0.7818608E-02  0.8982492E-01
         -2   -1    0    0    0  501 -0.00000000000E+00  0.00000000000E+00  0.44288815959E+03  0.44288815959E+03  0.00000000000E+00 0. -1.
          2   -1    0    0  501    0  0.00000000000E+00 -0.00000000000E+00 -0.10456964961E+04  0.10456964961E+04  0.00000000000E+00 0.  1.
         23    2    1    2    0    0 -0.32157087555E+03  0.42383706061E+03  0.15703440103E+03  0.56100357151E+03  0.83782588802E+02 0.  0.
         11    1    3    3    0    0 -0.15165996066E+03  0.15544134639E+03  0.96433275481E+02  0.23761761815E+03  0.00000000000E+00 0. -1.
        -11    1    3    3    0    0 -0.16991091489E+03  0.26839571422E+03  0.60601125550E+02  0.32338595336E+03  0.00000000000E+00 0.  1.
         22    1    1    2    0    0  0.32157087555E+03 -0.42383706061E+03 -0.75984273755E+03  0.92758108419E+03  0.00000000000E+00 0.  1.
<mgrwt>
<rscale>  0 0.13610681E+04</rscale>
<asrwt>0</asrwt>
<pdfrwt beam="1">  1        2 0.16087639E+00 0.13610681E+04</pdfrwt>
<pdfrwt beam="2">  1       -2 0.68136639E-01 0.13610681E+04</pdfrwt>
<totfact> 0.45334591E+01</totfact>
</mgrwt>
</event>
<event>
 6    1  0.2436515E-005  0.2873617E+04  0.7818608E-02  0.8280771E-01
          2   -1    0    0  501    0  0.00000000000E+00  0.00000000000E+00  0.20076581830E+04  0.20076581830E+04  0.00000000000E+00 0.  1.
         -2   -1    0    0    0  501 -0.00000000000E+00 -0.00000000000E+00 -0.10282718343E+04  0.10282718343E+04  0.00000000000E+00 0. -1.
         23    2    1    2    0    0 -0.11687053224E+04  0.31062033967E+03 -0.32668877520E+03  0.12559891882E+04  0.91794112174E+02 0.  0.
         13    1    3    3    0    0 -0.62679436544E+03  0.12338351885E+03 -0.19171908679E+03  0.66697142181E+03  0.00000000000E+00 0. -1.
        -13    1    3    3    0    0 -0.54191095694E+03  0.18723682081E+03 -0.13496968842E+03  0.58901776638E+03  0.00000000000E+00 0.  1.
         22    1    1    2    0    0  0.11687053224E+04 -0.31062033967E+03  0.13060751239E+04  0.17799408291E+04  0.00000000000E+00 0.  1.
<mgrwt>
<rscale>  0 0.28736168E+04</rscale>
<asrwt>0</asrwt>
<pdfrwt beam="1">  1        2 0.30887049E+00 0.28736168E+04</pdfrwt>
<pdfrwt beam="2">  1       -2 0.15819567E+00 0.28736168E+04</pdfrwt>
<totfact> 0.14866834E+00</totfact>
</mgrwt>
</event>
<event>
 6    1  0.2436515E-005  0.2838173E+04  0.7818608E-02  0.8291514E-01
          2   -1    0    0  501    0  0.00000000000E+00  0.00000000000E+00  0.15935566568E+04  0.15935566568E+04  0.00000000000E+00 0.  1.
         -2   -1    0    0    0  501 -0.00000000000E+00 -0.00000000000E+00 -0.12637181731E+04  0.12637181731E+04  0.00000000000E+00 0. -1.
         23    2    1    2    0    0  0.11822452192E+04  0.70691648292E+03  0.50210387653E+03  0.14690709408E+04  0.92878705545E+02 0.  0.
         11    1    3    3    0    0  0.32242802024E+03  0.17695922211E+03  0.93223636937E+02  0.37942725391E+03  0.00000000000E+00 0. -1.
        -11    1    3    3    0    0  0.85981719899E+03  0.52995726081E+03  0.40888023959E+03  0.10896436868E+04  0.00000000000E+00 0.  1.
         22    1    1    2    0    0 -0.11822452192E+04 -0.70691648292E+03 -0.17226539279E+03  0.13882038891E+04  0.00000000000E+00 0. -1.
<mgrwt>
<rscale>  0 0.28381730E+04</rscale>
<asrwt>0</asrwt>
<pdfrwt beam="1">  1        2 0.24516256E+00 0.28381730E+04</pdfrwt>
<pdfrwt beam="2">  1       -2 0.19441818E+00 0.28381730E+04</pdfrwt>
<totfact> 0.14126448E+00</totfact>
</mgrwt>
</event>
<event>
 6    1  0.2436515E-005  0.1657953E+04  0.7818608E-02  0.8785715E-01
          2   -1    0    0  501    0  0.00000000000E+00  0.00000000000E+00  0.27417634845E+04  0.27417634845E+04  0.00000000000E+00 0.  1.
         -2   -1    0    0    0  501 -0.00000000000E+00 -0.00000000000E+00 -0.25064248208E+03  0.25064248208E+03  0.00000000000E+00 0. -1.
         23    2    1    2    0    0  0.69988596823E+03  0.55600058939E+02  0.20361777274E+04  0.21558026445E+04  0.92377320748E+02 0.  0.
         11    1    3    3    0    0  0.49338302437E+03  0.78937508809E+02  0.13946581872E+04  0.14814619125E+04  0.00000000000E+00 0. -1.
        -11    1    3    3    0    0  0.20650294386E+03 -0.23337449870E+02  0.64151954011E+03  0.67434073193E+03  0.00000000000E+00 0.  1.
         22    1    1    2    0    0 -0.69988596823E+03 -0.55600058939E+02  0.45494327509E+03  0.83660332215E+03  0.00000000000E+00 0. -1.
<mgrwt>
<rscale>  0 0.16579534E+04</rscale>
<asrwt>0</asrwt>
<pdfrwt beam="1">  1        2 0.42180975E+00 0.16579534E+04</pdfrwt>
<pdfrwt beam="2">  1       -2 0.38560384E-01 0.16579534E+04</pdfrwt>
<totfact> 0.15256578E+01</totfact>
</mgrwt>
</event>
<event>
 6    1  0.2436515E-005  0.9354557E+03  0.7818608E-02  0.9382314E-01
          2   -1    0    0  501    0  0.00000000000E+00  0.00000000000E+00  0.97501119231E+03  0.97501119231E+03  0.00000000000E+00 0.  1.
         -2   -1    0    0    0  501 -0.00000000000E+00 -0.00000000000E+00 -0.22437624137E+03  0.22437624137E+03  0.00000000000E+00 0. -1.
         23    2    1    2    0    0  0.84192959722E+00  0.45277991187E+03  0.50441092029E+03  0.68398794716E+03  0.91644846675E+02 0.  0.
         13    1    3    3    0    0 -0.16520289174E+01  0.13775046574E+02 -0.17290797272E+01  0.13981088096E+02  0.00000000000E+00 0. -1.
        -13    1    3    3    0    0  0.24939585146E+01  0.43900486529E+03  0.50614000002E+03  0.67000685907E+03  0.00000000000E+00 0.  1.
         22    1    1    2    0    0 -0.84192959722E+00 -0.45277991187E+03  0.24622403065E+03  0.51539948652E+03  0.00000000000E+00 0.  1.
<mgrwt>
<rscale>  0 0.93545571E+03</rscale>
<asrwt>0</asrwt>
<pdfrwt beam="1">  1        2 0.15000172E+00 0.93545571E+03</pdfrwt>
<pdfrwt beam="2">  1       -2 0.34519422E-01 0.93545571E+03</pdfrwt>
<totfact> 0.20567166E+02</totfact>
</mgrwt>
</event>
<event>
 6    1  0.2436515E-005  0.1630963E+04  0.7818608E-02  0.8801749E-01
          2   -1    0    0  501    0  0.00000000000E+00  0.00000000000E+00  0.29307991128E+04  0.29307991128E+04  0.00000000000E+00 0. -1.
         -2   -1    0    0    0  501 -0.00000000000E+00 -0.00000000000E+00 -0.22690392835E+03  0.22690392835E+03  0.00000000000E+00 0.  1.
         23    2    1    2    0    0 -0.32605134935E+02 -0.45491305654E+03  0.53044132931E+02  0.46790373987E+03  0.90062455626E+02 0.  0.
         13    1    3    3    0    0 -0.20986911901E+02 -0.41965580669E+03  0.71867293838E+02  0.42628201285E+03  0.00000000000E+00 0. -1.
        -13    1    3    3    0    0 -0.11618223034E+02 -0.35257249855E+02 -0.18823160907E+02  0.41621727022E+02  0.00000000000E+00 0.  1.
         22    1    1    2    0    0  0.32605134935E+02  0.45491305654E+03  0.26508510515E+04  0.26897993013E+04  0.00000000000E+00 0. -1.
<mgrwt>
<rscale>  0 0.16309627E+04</rscale>
<asrwt>0</asrwt>
<pdfrwt beam="1">  1        2 0.45089214E+00 0.16309627E+04</pdfrwt>
<pdfrwt beam="2">  1       -2 0.34908299E-01 0.16309627E+04</pdfrwt>
<totfact> 0.14234821E+01</totfact>
</mgrwt>
</event>
<event>
 6    1  0.2436515E-005  0.3449285E+04  0.7818608E-02  0.8125915E-01
         -2   -1    0    0    0  501 -0.00000000000E+00  0.00000000000E+00  0.73683483359E+03  0.73683483359E+03  0.00000000000E+00 0. -1.
          2   -1    0    0  501    0  0.00000000000E+00 -0.00000000000E+00 -0.40367145933E+04  0.40367145933E+04  0.00000000000E+00 0.  1.
         23    2    1    2    0    0 -0.12187343665E+04 -0.11622698252E+04 -0.11442234274E+04  0.20380350647E+04  0.90305427924E+02 0.  0.
         11    1    3    3    0    0 -0.49304620631E+03 -0.43809385989E+03 -0.40294013335E+03  0.77290461422E+03  0.00000000000E+00 0. -1.
        -11    1    3    3    0    0 -0.72568816020E+03 -0.72417596536E+03 -0.74128329405E+03  0.12651304505E+04  0.00000000000E+00 0.  1.
         22    1    1    2    0    0  0.12187343665E+04  0.11622698252E+04 -0.21556563324E+04  0.27355143622E+04  0.00000000000E+00 0.  1.
<mgrwt>
<rscale>  0 0.34492851E+04</rscale>
<asrwt>0</asrwt>
<pdfrwt beam="1">  1        2 0.62103301E+00 0.34492851E+04</pdfrwt>
<pdfrwt beam="2">  1       -2 0.11335921E+00 0.34492851E+04</pdfrwt>
<totfact> 0.16048760E-01</totfact>
</mgrwt>
</event>
<event>
 6    1  0.2436515E-005  0.5373918E+04  0.7818608E-02  0.7773280E-01
          2   -1    0    0  501    0  0.00000000000E+00  0.00000000000E+00  0.18972152628E+04  0.18972152628E+04  0.00000000000E+00 0.  1.
         -2   -1    0    0    0  501 -0.00000000000E+00 -0.00000000000E+00 -0.38054445828E+04  0.38054445828E+04  0.00000000000E+00 0. -1.
         23    2    1    2    0    0 -0.15010886907E+04 -0.17077867723E+04 -0.24721894325E+04  0.33600429487E+04  0.91460973989E+02 0.  0.
         13    1    3    3    0    0 -0.75303879378E+03 -0.85809411513E+03 -0.11737963923E+04  0.16374342448E+04  0.00000000000E+00 0.  1.
        -13    1    3    3    0    0 -0.74804989693E+03 -0.84969265719E+03 -0.12983930402E+04  0.17226087039E+04  0.00000000000E+00 0. -1.
         22    1    1    2    0    0  0.15010886907E+04  0.17077867723E+04  0.56396011248E+03  0.23426168969E+04  0.00000000000E+00 0.  1.
<mgrwt>
<rscale>  0 0.53739176E+04</rscale>
<asrwt>0</asrwt>
<pdfrwt beam="1">  1        2 0.29187927E+00 0.53739176E+04</pdfrwt>
<pdfrwt beam="2">  1       -2 0.58545301E+00 0.53739176E+04</pdfrwt>
<totfact> 0.31815962E-03</totfact>
</mgrwt>
</event>
<event>
 6    1  0.2436515E-005  0.3043034E+04  0.7818608E-02  0.8231548E-01
          2   -1    0    0  501    0  0.00000000000E+00  0.00000000000E+00  0.38266510970E+04  0.38266510970E+04  0.00000000000E+00 0.  1.
         -2   -1    0    0    0  501 -0.00000000000E+00 -0.00000000000E+00 -0.60497124509E+03  0.60497124509E+03  0.00000000000E+00 0. -1.
         23    2    1    2    0    0  0.68360417127E+03  0.39120815868E+03 -0.28117072850E+03  0.84131306919E+03  0.91609035730E+02 0.  0.
         13    1    3    3    0    0  0.40634371759E+03  0.19841149011E+03 -0.12441147925E+03  0.46899952281E+03  0.00000000000E+00 0. -1.
        -13    1    3    3    0    0  0.27726045368E+03  0.19279666857E+03 -0.15675924925E+03  0.37231354637E+03  0.00000000000E+00 0.  1.
         22    1    1    2    0    0 -0.68360417127E+03 -0.39120815868E+03  0.35028505804E+04  0.35903092729E+04  0.00000000000E+00 0.  1.
<mgrwt>
<rscale>  0 0.30430339E+04</rscale>
<asrwt>0</asrwt>
<pdfrwt beam="1">  1        2 0.58871554E+00 0.30430339E+04</pdfrwt>
<pdfrwt beam="2">  1       -2 0.93072502E-01 0.30430339E+04</pdfrwt>
<totfact> 0.39045865E-01</totfact>
</mgrwt>
</event>
<event>
 6    1  0.2436515E-005  0.2084884E+04  0.7818608E-02  0.8567931E-01
         -2   -1    0    0    0  501 -0.00000000000E+00  0.00000000000E+00  0.14279799663E+04  0.14279799663E+04  0.00000000000E+00 0. -1.
          2   -1    0    0  501    0  0.00000000000E+00 -0.00000000000E+00 -0.76099479425E+03  0.76099479425E+03  0.00000000000E+00 0.  1.
         23    2    1    2    0    0 -0.64933923226E+03  0.44317307712E+03  0.10490180692E+04  0.13149078584E+04  0.10246927300E+03 0.  0.
         11    1    3    3    0    0 -0.40794903975E+03  0.32364121830E+03  0.74172974439E+03  0.90627207335E+03  0.00000000000E+00 0. -1.
        -11    1    3    3    0    0 -0.24139019252E+03  0.11953185882E+03  0.30728832478E+03  0.40863578510E+03  0.00000000000E+00 0.  1.
         22    1    1    2    0    0  0.64933923226E+03 -0.44317307712E+03 -0.38203289713E+03  0.87406690209E+03  0.00000000000E+00 0.  1.
<mgrwt>
<rscale>  0 0.20848840E+04</rscale>
<asrwt>0</asrwt>
<pdfrwt beam="1">  1        2 0.11707612E+00 0.20848840E+04</pdfrwt>
<pdfrwt beam="2">  1       -2 0.21968922E+00 0.20848840E+04</pdfrwt>
<totfact> 0.33692188E+00</totfact>
</mgrwt>
</event>
<event>
 6    1  0.2436515E-005  0.3233994E+04  0.7818608E-02  0.8179897E-01
         -2   -1    0    0    0  501 -0.00000000000E+00  0.00000000000E+00  0.13626369955E+04  0.13626369955E+04  0.00000000000E+00 0. -1.
          2   -1    0    0  501    0  0.00000000000E+00 -0.00000000000E+00 -0.19188378564E+04  0.19188378564E+04  0.00000000000E+00 0.  1.
         23    2    1    2    0    0  0.13737637006E+03  0.13026433286E+04  0.68150554321E+03  0.14793458189E+04  0.90897404391E+02 0.  0.
         11    1    3    3    0    0  0.58755968353E+02  0.94318579637E+03  0.49619166805E+03  0.10673602399E+04  0.00000000000E+00 0. -1.
        -11    1    3    3    0    0  0.78620401707E+02  0.35945753219E+03  0.18531387516E+03  0.41198557905E+03  0.00000000000E+00 0.  1.
         22    1    1    2    0    0 -0.13737637006E+03 -0.13026433286E+04 -0.12377064041E+04  0.18021290329E+04  0.00000000000E+00 0.  1.
<mgrwt>
<rscale>  0 0.32339941E+04</rscale>
<asrwt>0</asrwt>
<pdfrwt beam="1">  1        2 0.29520583E+00 0.32339941E+04</pdfrwt>
<pdfrwt beam="2">  1       -2 0.20963646E+00 0.32339941E+04</pdfrwt>
<totfact> 0.71667935E-01</totfact>
</mgrwt>
</event>
<event>
 6    1  0.2436515E-005  0.1016074E+04  0.7818608E-02  0.9291089E-01
          2   -1    0    0  501    0  0.00000000000E+00  0.00000000000E+00  0.36811334271E+03  0.36811334271E+03  0.00000000000E+00 0.  1.
         -2   -1    0    0    0  501 -0.00000000000E+00 -0.00000000000E+00 -0.70114702522E+03  0.70114702522E+03  0.00000000000E+00 0. -1.
         23    2    1    2    0    0  0.10049068712E+03 -0.28510624764E+03 -0.59225012226E+03  0.67104294832E+03  0.90302162402E+02 0.  0.
         11    1    3    3    0    0  0.83404459413E+02 -0.24436632380E+03 -0.41833821903E+03  0.49160763782E+03  0.00000000000E+00 0. -1.
        -11    1    3    3    0    0  0.17086227707E+02 -0.40739923842E+02 -0.17391190322E+03  0.17943531050E+03  0.00000000000E+00 0.  1.
         22    1    1    2    0    0 -0.10049068712E+03  0.28510624764E+03  0.25921643975E+03  0.39821741960E+03  0.00000000000E+00 0.  1.
<mgrwt>
<rscale>  0 0.10160740E+04</rscale>
<asrwt>0</asrwt>
<pdfrwt beam="1">  1        2 0.56632823E-01 0.10160740E+04</pdfrwt>
<pdfrwt beam="2">  1       -2 0.10786877E+00 0.10160740E+04</pdfrwt>
<totfact> 0.60005231E+01</totfact>
</mgrwt>
</event>
<event>
 6    1  0.2436515E-005  0.7730556E+03  0.7818608E-02  0.9599858E-01
          2   -1    0    0  501    0  0.00000000000E+00  0.00000000000E+00  0.17287714175E+04  0.17287714175E+04  0.00000000000E+00 0.  1.
         -2   -1    0    0    0  501 -0.00000000000E+00 -0.00000000000E+00 -0.86421911841E+02  0.86421911841E+02  0.00000000000E+00 0. -1.
         23    2    1    2    0    0  0.24932875657E+03 -0.20587918497E+03  0.35902473793E+03  0.49176085009E+03  0.91536351163E+02 0.  0.
         13    1    3    3    0    0  0.18737767492E+03 -0.14062157429E+03  0.19557080254E+03  0.30517660300E+03  0.00000000000E+00 0. -1.
        -13    1    3    3    0    0  0.61951081652E+02 -0.65257610678E+02  0.16345393538E+03  0.18658424709E+03  0.00000000000E+00 0.  1.
         22    1    1    2    0    0 -0.24932875657E+03  0.20587918497E+03  0.12833247678E+04  0.13234324793E+04  0.00000000000E+00 0. -1.
<mgrwt>
<rscale>  0 0.77305558E+03</rscale>
<asrwt>0</asrwt>
<pdfrwt beam="1">  1        2 0.26596481E+00 0.77305558E+03</pdfrwt>
<pdfrwt beam="2">  1       -2 0.13295680E-01 0.77305558E+03</pdfrwt>
<totfact> 0.41198279E+02</totfact>
</mgrwt>
</event>
<event>
 6    1  0.2436515E-005  0.2202907E+04  0.7818608E-02  0.8517219E-01
          2   -1    0    0  501    0  0.00000000000E+00  0.00000000000E+00  0.13459540425E+04  0.13459540425E+04  0.00000000000E+00 0.  1.
         -2   -1    0    0    0  501 -0.00000000000E+00 -0.00000000000E+00 -0.90136811080E+03  0.90136811080E+03  0.00000000000E+00 0. -1.
         23    2    1    2    0    0  0.70089839477E+03  0.97676256091E+02 -0.63589192306E+03  0.95572174860E+03  0.90809207259E+02 0.  0.
         13    1    3    3    0    0  0.10667677182E+03  0.42953183698E+02 -0.79200138230E+02  0.13963370485E+03  0.00000000000E+00 0.  1.
        -13    1    3    3    0    0  0.59422162295E+03  0.54723072393E+02 -0.55669178483E+03  0.81608804374E+03  0.00000000000E+00 0. -1.
         22    1    1    2    0    0 -0.70089839477E+03 -0.97676256091E+02  0.10804778547E+04  0.12916004047E+04  0.00000000000E+00 0.  1.
<mgrwt>
<rscale>  0 0.22029072E+04</rscale>
<asrwt>0</asrwt>
<pdfrwt beam="1">  1        2 0.20706985E+00 0.22029072E+04</pdfrwt>
<pdfrwt beam="2">  1       -2 0.13867202E+00 0.22029072E+04</pdfrwt>
<totfact> 0.52309297E+00</totfact>
</mgrwt>
</event>
<event>
 6    1  0.2436515E-005  0.5543099E+04  0.7818608E-02  0.7749786E-01
         -1   -1    0    0    0  501 -0.00000000000E+00  0.00000000000E+00  0.18458113689E+04  0.18458113689E+04  0.00000000000E+00 0. -1.
          1   -1    0    0  501    0  0.00000000000E+00 -0.00000000000E+00 -0.41615778577E+04  0.41615778577E+04  0.00000000000E+00 0.  1.
         23    2    1    2    0    0  0.59544527861E+03  0.69041230497E+03  0.16774662140E+04  0.19113995233E+04  0.91274355853E+02 0.  0.
         11    1    3    3    0    0  0.32556655296E+03  0.40458323434E+03  0.10405372385E+04  0.11629268759E+04  0.00000000000E+00 0. -1.
        -11    1    3    3    0    0  0.26987872565E+03  0.28582907062E+03  0.63692897546E+03  0.74847264743E+03  0.00000000000E+00 0.  1.
         22    1    1    2    0    0 -0.59544527861E+03 -0.69041230497E+03 -0.39932327028E+04  0.40959897033E+04  0.00000000000E+00 0.  1.
<mgrwt>
<rscale>  0 0.55430994E+04</rscale>
<asrwt>0</asrwt>
<pdfrwt beam="1">  1        1 0.64024274E+00 0.55430994E+04</pdfrwt>
<pdfrwt beam="2">  1       -1 0.28397098E+00 0.55430994E+04</pdfrwt>
<totfact> 0.19825928E-03</totfact>
</mgrwt>
</event>
<event>
 6    1  0.2436515E-005  0.2189548E+04  0.7818608E-02  0.8522791E-01
          2   -1    0    0  501    0  0.00000000000E+00  0.00000000000E+00  0.17549826319E+04  0.17549826319E+04  0.00000000000E+00 0.  1.
         -2   -1    0    0    0  501 -0.00000000000E+00 -0.00000000000E+00 -0.68293011179E+03  0.68293011179E+03  0.00000000000E+00 0. -1.
         23    2    1    2    0    0 -0.35415073579E+03  0.61295810595E+03  0.14639472731E+04  0.16287638817E+04  0.92681070160E+02 0.  0.
         13    1    3    3    0    0 -0.89691214203E+02  0.11832686157E+03  0.38708128552E+03  0.41458133300E+03  0.00000000000E+00 0. -1.
        -13    1    3    3    0    0 -0.26445952158E+03  0.49463124439E+03  0.10768659876E+04  0.12141825487E+04  0.00000000000E+00 0.  1.
         22    1    1    2    0    0  0.35415073579E+03 -0.61295810595E+03 -0.39189475301E+03  0.80914886192E+03  0.00000000000E+00 0. -1.
<mgrwt>
<rscale>  0 0.21895483E+04</rscale>
<asrwt>0</asrwt>
<pdfrwt beam="1">  1        2 0.26999733E+00 0.21895483E+04</pdfrwt>
<pdfrwt beam="2">  1       -2 0.10506617E+00 0.21895483E+04</pdfrwt>
<totfact> 0.61374622E+00</totfact>
</mgrwt>
</event>
<event>
 6    1  0.2436515E-005  0.3195939E+04  0.7818608E-02  0.8189891E-01
          2   -1    0    0  501    0  0.00000000000E+00  0.00000000000E+00  0.41623606875E+04  0.41623606875E+04  0.00000000000E+00 0.  1.
         -2   -1    0    0    0  501 -0.00000000000E+00 -0.00000000000E+00 -0.61347536166E+03  0.61347536166E+03  0.00000000000E+00 0. -1.
         23    2    1    2    0    0 -0.88828626570E+03 -0.13004063678E+04  0.13827714543E+04  0.20977474555E+04  0.91532950111E+02 0.  0.
         13    1    3    3    0    0 -0.44053645475E+03 -0.61274657679E+03  0.60672742063E+03  0.96832272424E+03  0.00000000000E+00 0.  1.
        -13    1    3    3    0    0 -0.44774981095E+03 -0.68765979098E+03  0.77604403364E+03  0.11294247312E+04  0.00000000000E+00 0. -1.
         22    1    1    2    0    0  0.88828626570E+03  0.13004063678E+04  0.21661138716E+04  0.26780885937E+04  0.00000000000E+00 0. -1.
<mgrwt>
<rscale>  0 0.31959385E+04</rscale>
<asrwt>0</asrwt>
<pdfrwt beam="1">  1        2 0.64036316E+00 0.31959385E+04</pdfrwt>
<pdfrwt beam="2">  1       -2 0.94380828E-01 0.31959385E+04</pdfrwt>
<totfact> 0.19937497E-01</totfact>
</mgrwt>
</event>
<event>
 6    1  0.2436515E-005  0.4152088E+04  0.7818608E-02  0.7974549E-01
         -2   -1    0    0    0  501 -0.00000000000E+00  0.00000000000E+00  0.21936735117E+04  0.21936735117E+04  0.00000000000E+00 0. -1.
          2   -1    0    0  501    0  0.00000000000E+00 -0.00000000000E+00 -0.19647223391E+04  0.19647223391E+04  0.00000000000E+00 0.  1.
         23    2    1    2    0    0 -0.13675838514E+04  0.62432483652E+03  0.15470138556E+04  0.21590568780E+04  0.90596029996E+02 0.  0.
         11    1    3    3    0    0 -0.11878526772E+04  0.55997968763E+03  0.13125764093E+04  0.18567250910E+04  0.00000000000E+00 0. -1.
        -11    1    3    3    0    0 -0.17973117419E+03  0.64345148888E+02  0.23443744635E+03  0.30233178697E+03  0.00000000000E+00 0.  1.
         22    1    1    2    0    0  0.13675838514E+04 -0.62432483652E+03 -0.13180626829E+04  0.19993389728E+04  0.00000000000E+00 0.  1.
<mgrwt>
<rscale>  0 0.41520883E+04</rscale>
<asrwt>0</asrwt>
<pdfrwt beam="1">  1        2 0.30226498E+00 0.41520883E+04</pdfrwt>
<pdfrwt beam="2">  1       -2 0.33748823E+00 0.41520883E+04</pdfrwt>
<totfact> 0.10154148E-01</totfact>
</mgrwt>
</event>
<event>
 6    1  0.2436515E-005  0.2386621E+04  0.7818608E-02  0.8444530E-01
          2   -1    0    0  501    0  0.00000000000E+00  0.00000000000E+00  0.12640080377E+04  0.12640080377E+04  0.00000000000E+00 0.  1.
         -2   -1    0    0    0  501 -0.00000000000E+00 -0.00000000000E+00 -0.11265667103E+04  0.11265667103E+04  0.00000000000E+00 0. -1.
         23    2    1    2    0    0  0.85206517128E+03 -0.71205703245E+03  0.50169475213E+03  0.12219341570E+04  0.91570662097E+02 0.  0.
         11    1    3    3    0    0  0.55526496694E+03 -0.51308491331E+03  0.36273100230E+03  0.83853985702E+03  0.00000000000E+00 0.  1.
        -11    1    3    3    0    0  0.29680020434E+03 -0.19897211914E+03  0.13896374983E+03  0.38339429998E+03  0.00000000000E+00 0. -1.
         22    1    1    2    0    0 -0.85206517128E+03  0.71205703245E+03 -0.36425342477E+03  0.11686405910E+04  0.00000000000E+00 0.  1.
<mgrwt>
<rscale>  0 0.23866205E+04</rscale>
<asrwt>0</asrwt>
<pdfrwt beam="1">  1        2 0.19446277E+00 0.23866205E+04</pdfrwt>
<pdfrwt beam="2">  1       -2 0.17331796E+00 0.23866205E+04</pdfrwt>
<totfact> 0.31546131E+00</totfact>
</mgrwt>
</event>
<event>
 6    1  0.2436515E-005  0.4726301E+03  0.7818608E-02  0.1021181E+00
         -2   -1    0    0    0  501 -0.00000000000E+00  0.00000000000E+00  0.34029039559E+02  0.34029039559E+02  0.00000000000E+00 0. -1.
          2   -1    0    0  501    0  0.00000000000E+00 -0.00000000000E+00 -0.16410925894E+04  0.16410925894E+04  0.00000000000E+00 0.  1.
         23    2    1    2    0    0 -0.93250055306E+02  0.15360899046E+03 -0.13284200698E+04  0.13435594421E+04  0.90337134793E+02 0.  0.
         11    1    3    3    0    0 -0.96416679872E+01  0.42069863982E+02 -0.62330835464E+03  0.62480088043E+03  0.00000000000E+00 0.  1.
        -11    1    3    3    0    0 -0.83608387318E+02  0.11153912648E+03 -0.70511171513E+03  0.71875856167E+03  0.00000000000E+00 0. -1.
         22    1    1    2    0    0  0.93250055306E+02 -0.15360899046E+03 -0.27864348004E+03  0.33156218683E+03  0.00000000000E+00 0. -1.
<mgrwt>
<rscale>  0 0.47263011E+03</rscale>
<asrwt>0</asrwt>
<pdfrwt beam="1">  1        2 0.25247585E+00 0.47263011E+03</pdfrwt>
<pdfrwt beam="2">  1       -2 0.52352355E-02 0.47263011E+03</pdfrwt>
<totfact> 0.20808793E+03</totfact>
</mgrwt>
</event>
<event>
 6    1  0.2436515E-005  0.1621463E+04  0.7818608E-02  0.8807470E-01
         -2   -1    0    0    0  501 -0.00000000000E+00  0.00000000000E+00  0.10725619761E+04  0.10725619761E+04  0.00000000000E+00 0. -1.
          2   -1    0    0  501    0  0.00000000000E+00 -0.00000000000E+00 -0.61281846124E+03  0.61281846124E+03  0.00000000000E+00 0.  1.
         23    2    1    2    0    0  0.45134168764E+03  0.60294202410E+03 -0.74589571600E+02  0.76193024882E+03  0.87895940987E+02 0.  0.
         11    1    3    3    0    0  0.27517502301E+03  0.31006918001E+03 -0.67916770937E+02  0.42009151081E+03  0.00000000000E+00 0. -1.
        -11    1    3    3    0    0  0.17616666463E+03  0.29287284409E+03 -0.66728006625E+01  0.34183873800E+03  0.00000000000E+00 0.  1.
         22    1    1    2    0    0 -0.45134168764E+03 -0.60294202410E+03  0.53433308649E+03  0.92345018856E+03  0.00000000000E+00 0.  1.
<mgrwt>
<rscale>  0 0.16214633E+04</rscale>
<asrwt>0</asrwt>
<pdfrwt beam="1">  1        2 0.94279763E-01 0.16214633E+04</pdfrwt>
<pdfrwt beam="2">  1       -2 0.16500953E+00 0.16214633E+04</pdfrwt>
<totfact> 0.10703206E+01</totfact>
</mgrwt>
</event>
<event>
 6    1  0.2436515E-005  0.1456422E+04  0.7818608E-02  0.8913960E-01
          2   -1    0    0  501    0  0.00000000000E+00  0.00000000000E+00  0.22838040019E+04  0.22838040019E+04  0.00000000000E+00 0.  1.
         -2   -1    0    0    0  501 -0.00000000000E+00 -0.00000000000E+00 -0.23219658617E+03  0.23219658617E+03  0.00000000000E+00 0. -1.
         23    2    1    2    0    0  0.39658872564E+03  0.56451766014E+03  0.14171170071E+04  0.15786954699E+04  0.89977602694E+02 0.  0.
         13    1    3    3    0    0  0.16728972272E+03  0.24477206070E+03  0.71132146816E+03  0.77063444258E+03  0.00000000000E+00 0. -1.
        -13    1    3    3    0    0  0.22929900292E+03  0.31974559944E+03  0.70579553897E+03  0.80806102735E+03  0.00000000000E+00 0.  1.
         22    1    1    2    0    0 -0.39658872564E+03 -0.56451766014E+03  0.63449040863E+03  0.93730511818E+03  0.00000000000E+00 0. -1.
<mgrwt>
<rscale>  0 0.14564223E+04</rscale>
<asrwt>0</asrwt>
<pdfrwt beam="1">  1        2 0.35135445E+00 0.14564223E+04</pdfrwt>
<pdfrwt beam="2">  1       -2 0.35722553E-01 0.14564223E+04</pdfrwt>
<totfact> 0.33120019E+01</totfact>
</mgrwt>
</event>
<event>
 6    1  0.2436515E-005  0.8986313E+03  0.7818608E-02  0.9427294E-01
          2   -1    0    0  501    0  0.00000000000E+00  0.00000000000E+00  0.63964944389E+03  0.63964944389E+03  0.00000000000E+00 0.  1.
         -2   -1    0    0    0  501 -0.00000000000E+00 -0.00000000000E+00 -0.31561751636E+03  0.31561751636E+03  0.00000000000E+00 0. -1.
         23    2    1    2    0    0 -0.35684969962E+03 -0.10401785058E+03 -0.95680110140E+02  0.39462481420E+03  0.91720440193E+02 0.  0.
         11    1    3    3    0    0 -0.34741742502E+03 -0.83806156360E+02 -0.10160822563E+03  0.37154618901E+03  0.00000000000E+00 0. -1.
        -11    1    3    3    0    0 -0.94322745918E+01 -0.20211694222E+02  0.59281154865E+01  0.23078625187E+02  0.00000000000E+00 0.  1.
         22    1    1    2    0    0  0.35684969962E+03  0.10401785058E+03  0.41971203767E+03  0.56064214604E+03  0.00000000000E+00 0.  1.
<mgrwt>
<rscale>  0 0.89863133E+03</rscale>
<asrwt>0</asrwt>
<pdfrwt beam="1">  1        2 0.98407606E-01 0.89863133E+03</pdfrwt>
<pdfrwt beam="2">  1       -2 0.48556541E-01 0.89863133E+03</pdfrwt>
<totfact> 0.18483512E+02</totfact>
</mgrwt>
</event>
<event>
 6    1  0.2436515E-005  0.2547610E+04  0.7818608E-02  0.8386218E-01
         -2   -1    0    0    0  501 -0.00000000000E+00  0.00000000000E+00  0.11771136424E+04  0.11771136424E+04  0.00000000000E+00 0. -1.
          2   -1    0    0  501    0  0.00000000000E+00 -0.00000000000E+00 -0.13784389936E+04  0.13784389936E+04  0.00000000000E+00 0.  1.
         23    2    1    2    0    0  0.44268333545E+03  0.81732423710E+03  0.77036180931E+03  0.12108729783E+04  0.93640846780E+02 0.  0.
         11    1    3    3    0    0  0.29277529126E+03  0.60777589539E+03  0.59170717073E+03  0.89734401769E+03  0.00000000000E+00 0.  1.
        -11    1    3    3    0    0  0.14990804419E+03  0.20954834171E+03  0.17865463858E+03  0.31352896056E+03  0.00000000000E+00 0. -1.
         22    1    1    2    0    0 -0.44268333545E+03 -0.81732423710E+03 -0.97168716057E+03  0.13446796578E+04  0.00000000000E+00 0.  1.
<mgrwt>
<rscale>  0 0.25476101E+04</rscale>
<asrwt>0</asrwt>
<pdfrwt beam="1">  1        2 0.21206754E+00 0.25476101E+04</pdfrwt>
<pdfrwt beam="2">  1       -2 0.18109441E+00 0.25476101E+04</pdfrwt>
<totfact> 0.23573391E+00</totfact>
</mgrwt>
</event>
<event>
 6    1  0.2436515E-005  0.2775133E+04  0.7818608E-02  0.8311030E-01
         -2   -1    0    0    0  501 -0.00000000000E+00  0.00000000000E+00  0.79143070433E+03  0.79143070433E+03  0.00000000000E+00 0. -1.
          2   -1    0    0  501    0  0.00000000000E+00 -0.00000000000E+00 -0.24327339327E+04  0.24327339327E+04  0.00000000000E+00 0.  1.
         23    2    1    2    0    0 -0.65307555788E+03 -0.32126225115E+02 -0.22415503270E+04  0.23365631734E+04  0.86254370333E+02 0.  0.
         13    1    3    3    0    0 -0.25943774275E+03 -0.35103962974E+02 -0.10252174747E+04  0.10581167710E+04  0.00000000000E+00 0. -1.
        -13    1    3    3    0    0 -0.39363781514E+03  0.29777378581E+01 -0.12163328523E+04  0.12784464025E+04  0.00000000000E+00 0.  1.
         22    1    1    2    0    0  0.65307555788E+03  0.32126225115E+02  0.60024709867E+03  0.88760146355E+03  0.00000000000E+00 0. -1.
<mgrwt>
<rscale>  0 0.27751327E+04</rscale>
<asrwt>0</asrwt>
<pdfrwt beam="1">  1        2 0.37426675E+00 0.27751327E+04</pdfrwt>
<pdfrwt beam="2">  1       -2 0.12175857E+00 0.27751327E+04</pdfrwt>
<totfact> 0.16995348E+00</totfact>
</mgrwt>
</event>
<event>
 6    1  0.2436515E-005  0.1371938E+04  0.7818608E-02  0.8974386E-01
          2   -1    0    0  501    0  0.00000000000E+00  0.00000000000E+00  0.19209913135E+04  0.19209913135E+04  0.00000000000E+00 0. -1.
         -2   -1    0    0    0  501 -0.00000000000E+00 -0.00000000000E+00 -0.24495333116E+03  0.24495333116E+03  0.00000000000E+00 0.  1.
         23    2    1    2    0    0  0.12804328973E+03  0.54486319471E+03  0.22451606290E+03  0.61024966569E+03  0.93414169070E+02 0.  0.
         13    1    3    3    0    0  0.89255691379E+02  0.24968809318E+03  0.67272158091E+02  0.27356217862E+03  0.00000000000E+00 0.  1.
        -13    1    3    3    0    0  0.38787598353E+02  0.29517510153E+03  0.15724390480E+03  0.33668748706E+03  0.00000000000E+00 0. -1.
         22    1    1    2    0    0 -0.12804328973E+03 -0.54486319471E+03  0.14515219194E+04  0.15556949790E+04  0.00000000000E+00 0. -1.
<mgrwt>
<rscale>  0 0.13719376E+04</rscale>
<asrwt>0</asrwt>
<pdfrwt beam="1">  1        2 0.29553712E+00 0.13719376E+04</pdfrwt>
<pdfrwt beam="2">  1       -2 0.37685129E-01 0.13719376E+04</pdfrwt>
<totfact> 0.47914005E+01</totfact>
</mgrwt>
</event>
<event>
 6    1  0.2436515E-005  0.1579825E+04  0.7818608E-02  0.8833039E-01
         -2   -1    0    0    0  501 -0.00000000000E+00  0.00000000000E+00  0.19512702129E+03  0.19512702129E+03  0.00000000000E+00 0. -1.
          2   -1    0    0  501    0  0.00000000000E+00 -0.00000000000E+00 -0.31977217699E+04  0.31977217699E+04  0.00000000000E+00 0.  1.
         23    2    1    2    0    0 -0.55469418459E+03  0.11776843374E+02 -0.30679691400E+03  0.64054969815E+03  0.91406984986E+02 0.  0.
         13    1    3    3    0    0 -0.13432890057E+03 -0.62108980281E+01 -0.32688653816E+02  0.13838849978E+03  0.00000000000E+00 0.  1.
        -13    1    3    3    0    0 -0.42036528402E+03  0.17987741402E+02 -0.27410826018E+03  0.50216119837E+03  0.00000000000E+00 0. -1.
         22    1    1    2    0    0  0.55469418459E+03 -0.11776843374E+02 -0.26957978346E+04  0.27522990931E+04  0.00000000000E+00 0.  1.
<mgrwt>
<rscale>  0 0.15798252E+04</rscale>
<asrwt>0</asrwt>
<pdfrwt beam="1">  1        2 0.49195719E+00 0.15798252E+04</pdfrwt>
<pdfrwt beam="2">  1       -2 0.30019542E-01 0.15798252E+04</pdfrwt>
<totfact> 0.12906816E+01</totfact>
</mgrwt>
</event>
<event>
 6    1  0.2436515E-005  0.1395299E+04  0.7818608E-02  0.8957228E-01
         -2   -1    0    0    0  501 -0.00000000000E+00  0.00000000000E+00  0.20882830932E+03  0.20882830932E+03  0.00000000000E+00 0. -1.
          2   -1    0    0  501    0  0.00000000000E+00 -0.00000000000E+00 -0.23306948635E+04  0.23306948635E+04  0.00000000000E+00 0.  1.
         23    2    1    2    0    0  0.83537299714E+02 -0.91392388674E+02 -0.23094555438E+04  0.23147551186E+04  0.95787793890E+02 0.  0.
         11    1    3    3    0    0  0.44595110917E+02 -0.10507272082E+03 -0.18109660812E+04  0.18145597670E+04  0.00000000000E+00 0.  1.
        -11    1    3    3    0    0  0.38942188797E+02  0.13680332149E+02 -0.49848946253E+03  0.50019535164E+03  0.00000000000E+00 0. -1.
         22    1    1    2    0    0 -0.83537299714E+02  0.91392388674E+02  0.18758898961E+03  0.22476805417E+03  0.00000000000E+00 0. -1.
<mgrwt>
<rscale>  0 0.13952993E+04</rscale>
<asrwt>0</asrwt>
<pdfrwt beam="1">  1        2 0.35856841E+00 0.13952993E+04</pdfrwt>
<pdfrwt beam="2">  1       -2 0.32127435E-01 0.13952993E+04</pdfrwt>
<totfact> 0.38322125E+01</totfact>
</mgrwt>
</event>
<event>
 6    1  0.2436515E-005  0.1710189E+04  0.7818608E-02  0.8755574E-01
         -2   -1    0    0    0  501 -0.00000000000E+00  0.00000000000E+00  0.84015909272E+03  0.84015909272E+03  0.00000000000E+00 0. -1.
          2   -1    0    0  501    0  0.00000000000E+00 -0.00000000000E+00 -0.87029570561E+03  0.87029570561E+03  0.00000000000E+00 0.  1.
         23    2    1    2    0    0 -0.60781631126E+03 -0.58150239554E+03  0.12440814486E+03  0.85519472888E+03  0.91076525711E+02 0.  0.
         11    1    3    3    0    0 -0.51097583628E+03 -0.47484280803E+03  0.13594130782E+03  0.71067013218E+03  0.00000000000E+00 0.  1.
        -11    1    3    3    0    0 -0.96840474976E+02 -0.10665958752E+03 -0.11533162959E+02  0.14452459670E+03  0.00000000000E+00 0. -1.
         22    1    1    2    0    0  0.60781631126E+03  0.58150239554E+03 -0.15454475775E+03  0.85526006946E+03  0.00000000000E+00 0.  1.
<mgrwt>
<rscale>  0 0.17101893E+04</rscale>
<asrwt>0</asrwt>
<pdfrwt beam="1">  1        2 0.13389165E+00 0.17101893E+04</pdfrwt>
<pdfrwt beam="2">  1       -2 0.12925525E+00 0.17101893E+04</pdfrwt>
<totfact> 0.12872009E+01</totfact>
</mgrwt>
</event>
<event>
 6    1  0.2436515E-005  0.3597365E+04  0.7818608E-02  0.8091096E-01
          2   -1    0    0  501    0  0.00000000000E+00  0.00000000000E+00  0.32932664740E+04  0.32932664740E+04  0.00000000000E+00 0.  1.
         -2   -1    0    0    0  501 -0.00000000000E+00 -0.00000000000E+00 -0.98238584668E+03  0.98238584668E+03  0.00000000000E+00 0. -1.
         23    2    1    2    0    0  0.61325834399E+03  0.10798927312E+04  0.27005065659E+04  0.29740907664E+04  0.10112401825E+03 0.  0.
         13    1    3    3    0    0  0.15413823103E+03  0.36590332950E+03  0.84529212494E+03  0.93389647033E+03  0.00000000000E+00 0. -1.
        -13    1    3    3    0    0  0.45912011296E+03  0.71398940170E+03  0.18552144409E+04  0.20401942961E+04  0.00000000000E+00 0.  1.
         22    1    1    2    0    0 -0.61325834399E+03 -0.10798927312E+04 -0.38962593862E+03  0.13015615542E+04  0.00000000000E+00 0. -1.
<mgrwt>
<rscale>  0 0.35973648E+04</rscale>
<asrwt>0</asrwt>
<pdfrwt beam="1">  1        2 0.50665638E+00 0.35973648E+04</pdfrwt>
<pdfrwt beam="2">  1       -2 0.15113629E+00 0.35973648E+04</pdfrwt>
<totfact> 0.26909996E-01</totfact>
</mgrwt>
</event>
<event>
 6    1  0.2436515E-005  0.2738882E+04  0.7818608E-02  0.8322498E-01
         -2   -1    0    0    0  501 -0.00000000000E+00  0.00000000000E+00  0.14619576186E+04  0.14619576186E+04  0.00000000000E+00 0. -1.
          2   -1    0    0  501    0  0.00000000000E+00 -0.00000000000E+00 -0.12827792327E+04  0.12827792327E+04  0.00000000000E+00 0.  1.
         23    2    1    2    0    0 -0.50646189921E+03  0.11498601190E+04  0.63195305783E+03  0.14091894534E+04  0.88137958732E+02 0.  0.
         11    1    3    3    0    0 -0.13364645611E+03  0.39231483894E+03  0.23144123310E+03  0.47469711655E+03  0.00000000000E+00 0.  1.
        -11    1    3    3    0    0 -0.37281544311E+03  0.75754528004E+03  0.40051182473E+03  0.93449233687E+03  0.00000000000E+00 0. -1.
         22    1    1    2    0    0  0.50646189921E+03 -0.11498601190E+04 -0.45277467188E+03  0.13355473979E+04  0.00000000000E+00 0.  1.
<mgrwt>
<rscale>  0 0.27388822E+04</rscale>
<asrwt>0</asrwt>
<pdfrwt beam="1">  1        2 0.19735065E+00 0.27388822E+04</pdfrwt>
<pdfrwt beam="2">  1       -2 0.22491656E+00 0.27388822E+04</pdfrwt>
<totfact> 0.13614964E+00</totfact>
</mgrwt>
</event>
<event>
 6    1  0.2436515E-005  0.1648056E+04  0.7818608E-02  0.8791557E-01
          2   -1    0    0  501    0  0.00000000000E+00  0.00000000000E+00  0.39053544596E+03  0.39053544596E+03  0.00000000000E+00 0.  1.
         -2   -1    0    0    0  501 -0.00000000000E+00 -0.00000000000E+00 -0.17386954111E+04  0.17386954111E+04  0.00000000000E+00 0. -1.
         23    2    1    2    0    0  0.41460570057E+02 -0.33722145680E+03 -0.16425632696E+04  0.16796637370E+04  0.88424458246E+02 0.  0.
         11    1    3    3    0    0  0.55594785273E+02 -0.13051162756E+03 -0.75786693780E+03  0.77102941610E+03  0.00000000000E+00 0.  1.
        -11    1    3    3    0    0 -0.14134215217E+02 -0.20670982924E+03 -0.88469633184E+03  0.90863432090E+03  0.00000000000E+00 0. -1.
         22    1    1    2    0    0 -0.41460570057E+02  0.33722145680E+03  0.29440330447E+03  0.44956712010E+03  0.00000000000E+00 0.  1.
<mgrwt>
<rscale>  0 0.16480561E+04</rscale>
<asrwt>0</asrwt>
<pdfrwt beam="1">  1        2 0.60082377E-01 0.16480561E+04</pdfrwt>
<pdfrwt beam="2">  1       -2 0.26749160E+00 0.16480561E+04</pdfrwt>
<totfact> 0.39225277E+00</totfact>
</mgrwt>
</event>
<event>
 6    1  0.2436515E-005  0.1797014E+04  0.7818608E-02  0.8707889E-01
         -2   -1    0    0    0  501 -0.00000000000E+00  0.00000000000E+00  0.74618276105E+03  0.74618276105E+03  0.00000000000E+00 0.  1.
          2   -1    0    0  501    0  0.00000000000E+00 -0.00000000000E+00 -0.10819264674E+04  0.10819264674E+04  0.00000000000E+00 0. -1.
         23    2    1    2    0    0  0.11750193051E+03  0.88679879294E+03 -0.22435053209E+03  0.92665083110E+03  0.90165396287E+02 0.  0.
         13    1    3    3    0    0  0.99514713867E+02  0.85815018332E+03 -0.20581921116E+03  0.88808021208E+03  0.00000000000E+00 0. -1.
        -13    1    3    3    0    0  0.17987216641E+02  0.28648609625E+02 -0.18531320937E+02  0.38570619020E+02  0.00000000000E+00 0.  1.
         22    1    1    2    0    0 -0.11750193051E+03 -0.88679879294E+03 -0.11139317424E+03  0.90145839732E+03  0.00000000000E+00 0.  1.
<mgrwt>
<rscale>  0 0.17970141E+04</rscale>
<asrwt>0</asrwt>
<pdfrwt beam="1">  1        2 0.16645022E+00 0.17970141E+04</pdfrwt>
<pdfrwt beam="2">  1       -2 0.11479735E+00 0.17970141E+04</pdfrwt>
<totfact> 0.12503095E+01</totfact>
</mgrwt>
</event>
<event>
 6    1  0.2436515E-005  0.1882777E+04  0.7818608E-02  0.8663477E-01
          4   -1    0    0  501    0  0.00000000000E+00  0.00000000000E+00  0.26120673809E+04  0.26120673809E+04  0.00000000000E+00 0.  1.
         -4   -1    0    0    0  501 -0.00000000000E+00 -0.00000000000E+00 -0.33927625293E+03  0.33927625293E+03  0.00000000000E+00 0. -1.
         23    2    1    2    0    0  0.80075823327E+03 -0.47811757516E+03  0.13118058993E+04  0.16122010822E+04  0.92452410635E+02 0.  0.
         13    1    3    3    0    0  0.54449926795E+03 -0.29527149765E+03  0.92931390467E+03  0.11168209541E+04  0.00000000000E+00 0.  1.
        -13    1    3    3    0    0  0.25625896532E+03 -0.18284607751E+03  0.38249199464E+03  0.49538012812E+03  0.00000000000E+00 0. -1.
         22    1    1    2    0    0 -0.80075823327E+03  0.47811757516E+03  0.96098522869E+03  0.13391425516E+04  0.00000000000E+00 0. -1.
<mgrwt>
<rscale>  0 0.18827771E+04</rscale>
<asrwt>0</asrwt>
<pdfrwt beam="1">  1        4 0.40185651E+00 0.18827771E+04</pdfrwt>
<pdfrwt beam="2">  1       -4 0.52196348E-01 0.18827771E+04</pdfrwt>
<totfact> 0.44098167E-02</totfact>
</mgrwt>
</event>
<event>
 6    1  0.2436515E-005  0.3158820E+04  0.7818608E-02  0.8199778E-01
         -2   -1    0    0    0  501 -0.00000000000E+00  0.00000000000E+00  0.18705772912E+04  0.18705772912E+04  0.00000000000E+00 0. -1.
          2   -1    0    0  501    0  0.00000000000E+00 -0.00000000000E+00 -0.13335644811E+04  0.13335644811E+04  0.00000000000E+00 0.  1.
         23    2    1    2    0    0  0.73000084597E+03 -0.28879235150E+03  0.16573881481E+04  0.18360982220E+04  0.89548588372E+02 0.  0.
         13    1    3    3    0    0  0.28402483790E+03 -0.89358081442E+02  0.54170152367E+03  0.61813875142E+03  0.00000000000E+00 0.  1.
        -13    1    3    3    0    0  0.44597600808E+03 -0.19943427005E+03  0.11156866245E+04  0.12179594705E+04  0.00000000000E+00 0. -1.
         22    1    1    2    0    0 -0.73000084597E+03  0.28879235150E+03 -0.11203753380E+04  0.13680435503E+04  0.00000000000E+00 0.  1.
<mgrwt>
<rscale>  0 0.31588197E+04</rscale>
<asrwt>0</asrwt>
<pdfrwt beam="1">  1        2 0.20516377E+00 0.31588197E+04</pdfrwt>
<pdfrwt beam="2">  1       -2 0.28778112E+00 0.31588197E+04</pdfrwt>
<totfact> 0.50406058E-01</totfact>
</mgrwt>
</event>
<event>
 6    1  0.2436515E-005  0.1437726E+04  0.7818608E-02  0.8926954E-01
          2   -1    0    0  501    0  0.00000000000E+00  0.00000000000E+00  0.25074195133E+04  0.25074195133E+04  0.00000000000E+00 0.  1.
         -2   -1    0    0    0  501 -0.00000000000E+00 -0.00000000000E+00 -0.20609402606E+03  0.20609402606E+03  0.00000000000E+00 0. -1.
         23    2    1    2    0    0  0.37504911037E+03 -0.19388198771E+03  0.22467188611E+04  0.22877977375E+04  0.89558843960E+02 0.  0.
         11    1    3    3    0    0  0.23382889475E+03 -0.73580077620E+02  0.12032188288E+04  0.12279354747E+04  0.00000000000E+00 0. -1.
        -11    1    3    3    0    0  0.14122021562E+03 -0.12030191009E+03  0.10435000323E+04  0.10598622629E+04  0.00000000000E+00 0.  1.
         22    1    1    2    0    0 -0.37504911037E+03  0.19388198771E+03  0.54606626146E+02  0.42571580188E+03  0.00000000000E+00 0. -1.
<mgrwt>
<rscale>  0 0.14377262E+04</rscale>
<asrwt>0</asrwt>
<pdfrwt beam="1">  1        2 0.38575683E+00 0.14377262E+04</pdfrwt>
<pdfrwt beam="2">  1       -2 0.31706775E-01 0.14377262E+04</pdfrwt>
<totfact> 0.31028724E+01</totfact>
</mgrwt>
</event>
<event>
 6    1  0.2436515E-005  0.4231196E+04  0.7818608E-02  0.7959464E-01
         -2   -1    0    0    0  501 -0.00000000000E+00  0.00000000000E+00  0.16799119087E+04  0.16799119087E+04  0.00000000000E+00 0. -1.
          2   -1    0    0  501    0  0.00000000000E+00 -0.00000000000E+00 -0.26642800534E+04  0.26642800534E+04  0.00000000000E+00 0.  1.
         23    2    1    2    0    0  0.22906076260E+03  0.16988933452E+04  0.77870982741E+03  0.18850963221E+04  0.92150512487E+02 0.  0.
         11    1    3    3    0    0  0.16381919365E+03  0.12038194908E+04  0.59736955265E+03  0.13538347304E+04  0.00000000000E+00 0. -1.
        -11    1    3    3    0    0  0.65241568951E+02  0.49507385436E+03  0.18134027476E+03  0.53126159172E+03  0.00000000000E+00 0.  1.
         22    1    1    2    0    0 -0.22906076260E+03 -0.16988933452E+04 -0.17630779721E+04  0.24590956401E+04  0.00000000000E+00 0.  1.
<mgrwt>
<rscale>  0 0.42311964E+04</rscale>
<asrwt>0</asrwt>
<pdfrwt beam="1">  1        2 0.40988924E+00 0.42311964E+04</pdfrwt>
<pdfrwt beam="2">  1       -2 0.25844799E+00 0.42311964E+04</pdfrwt>
<totfact> 0.12312464E-01</totfact>
</mgrwt>
</event>
