<event>
 6    1  0.1585031E-006  0.4855723E+04  0.7818608E-02  0.7851157E-01
         -2   -1    0    0    0  501 -0.00000000000E+00  0.00000000000E+00  0.19068613267E+04  0.19068613267E+04  0.00000000000E+00 0.  1.
          2   -1    0    0  501    0  0.00000000000E+00 -0.00000000000E+00 -0.30912112725E+04  0.30912112725E+04  0.00000000000E+00 0. -1.
         23    2    1    2    0    0 -0.14636782871E+04 -0.70820060549E+02  0.13989710872E+04  0.20280697088E+04  0.92612265295E+02 0.  0.
         11    1    3    3    0    0 -0.11779423733E+04 -0.30507154488E+02  0.10875965806E+04  0.16035414691E+04  0.00000000000E+00 0. -1.
        -11    1    3    3    0    0 -0.28573591380E+03 -0.40312906061E+02  0.31137450667E+03  0.42452823962E+03  0.00000000000E+00 0.  1.
         22    1    1    2    0    0  0.14636782871E+04  0.70820060549E+02 -0.25833210331E+04  0.29700028904E+04  0.00000000000E+00 0. -1.
<mgrwt>
<rscale>  0 0.48557229E+04</rscale>
<asrwt>0</asrwt>
<pdfrwt beam="1">  1        2 0.47557096E+00 0.48557229E+04</pdfrwt>
<pdfrwt beam="2">  1       -2 0.29336329E+00 0.48557229E+04</pdfrwt>
<totfact> 0.39149631E-02</totfact>
</mgrwt>
</event>
<event>
 6    1  0.1585031E-006  0.2875273E+04  0.7818608E-02  0.8280273E-01
         -2   -1    0    0    0  501 -0.00000000000E+00  0.00000000000E+00  0.97708619441E+03  0.97708619441E+03  0.00000000000E+00 0.  1.
          2   -1    0    0  501    0  0.00000000000E+00 -0.00000000000E+00 -0.21152669784E+04  0.21152669784E+04  0.00000000000E+00 0. -1.
         23    2    1    2    0    0  0.95255619060E+03 -0.85599556006E+03 -0.12687998728E+04  0.18050486085E+04  0.90860699057E+02 0.  0.
         13    1    3    3    0    0  0.41546949883E+03 -0.36230605680E+03 -0.60871919848E+03  0.82123056802E+03  0.00000000000E+00 0. -1.
        -13    1    3    3    0    0  0.53708669177E+03 -0.49368950326E+03 -0.66008067430E+03  0.98381804044E+03  0.00000000000E+00 0.  1.
         22    1    1    2    0    0 -0.95255619060E+03  0.85599556006E+03  0.13061908876E+03  0.12873045644E+04  0.00000000000E+00 0.  1.
<mgrwt>
<rscale>  0 0.28752726E+04</rscale>
<asrwt>0</asrwt>
<pdfrwt beam="1">  1        2 0.32542569E+00 0.28752726E+04</pdfrwt>
<pdfrwt beam="2">  1       -2 0.15032095E+00 0.28752726E+04</pdfrwt>
<totfact> 0.14844428E+00</totfact>
</mgrwt>
</event>
<event>
 6    1  0.1585031E-006  0.1484139E+04  0.7818608E-02  0.8895070E-01
         -2   -1    0    0    0  501 -0.00000000000E+00  0.00000000000E+00  0.23003108722E+03  0.23003108722E+03  0.00000000000E+00 0.  1.
          2   -1    0    0  501    0  0.00000000000E+00 -0.00000000000E+00 -0.23938805368E+04  0.23938805368E+04  0.00000000000E+00 0. -1.
         23    2    1    2    0    0 -0.92214283174E+01 -0.73719273266E+03 -0.98537321746E+03  0.12338237169E+04  0.88444484840E+02 0.  0.
         11    1    3    3    0    0 -0.45705279504E+02 -0.51840595822E+03 -0.67436712724E+03  0.85182435536E+03  0.00000000000E+00 0. -1.
        -11    1    3    3    0    0  0.36483851186E+02 -0.21878677444E+03 -0.31100609022E+03  0.38199936155E+03  0.00000000000E+00 0.  1.
         22    1    1    2    0    0  0.92214283174E+01  0.73719273266E+03 -0.11784762321E+04  0.13900879071E+04  0.00000000000E+00 0. -1.
<mgrwt>
<rscale>  0 0.14841387E+04</rscale>
<asrwt>0</asrwt>
<pdfrwt beam="1">  1        2 0.36828931E+00 0.14841387E+04</pdfrwt>
<pdfrwt beam="2">  1       -2 0.35389398E-01 0.14841387E+04</pdfrwt>
<totfact> 0.29140472E+01</totfact>
</mgrwt>
</event>
<event>
 6    1  0.1585031E-006  0.6609552E+03  0.7818608E-02  0.9786437E-01
          3   -1    0    0  501    0  0.00000000000E+00  0.00000000000E+00  0.82248586810E+02  0.82248586810E+02  0.00000000000E+00 0. -1.
         -3   -1    0    0    0  501 -0.00000000000E+00 -0.00000000000E+00 -0.13278701732E+04  0.13278701732E+04  0.00000000000E+00 0.  1.
         23    2    1    2    0    0  0.20343132601E+03 -0.16874568333E+03 -0.10388709837E+04  0.10745517447E+04  0.74492424255E+02 0.  0.
         13    1    3    3    0    0  0.12909636422E+03 -0.59687556161E+02 -0.50993064494E+03  0.52939374596E+03  0.00000000000E+00 0.  1.
        -13    1    3    3    0    0  0.74334961790E+02 -0.10905812717E+03 -0.52894033873E+03  0.54515799874E+03  0.00000000000E+00 0. -1.
         22    1    1    2    0    0 -0.20343132601E+03  0.16874568333E+03 -0.20675060275E+03  0.33556701534E+03  0.00000000000E+00 0. -1.
<mgrwt>
<rscale>  0 0.66095520E+03</rscale>
<asrwt>0</asrwt>
<pdfrwt beam="1">  1        3 0.12653630E-01 0.66095520E+03</pdfrwt>
<pdfrwt beam="2">  1       -3 0.20428771E+00 0.66095520E+03</pdfrwt>
<totfact> 0.18868158E+01</totfact>
</mgrwt>
</event>
<event>
 6    1  0.1585031E-006  0.5716902E+04  0.7818608E-02  0.7726529E-01
         -1   -1    0    0    0  501 -0.00000000000E+00  0.00000000000E+00  0.37575535537E+04  0.37575535537E+04  0.00000000000E+00 0.  1.
          1   -1    0    0  501    0  0.00000000000E+00 -0.00000000000E+00 -0.21744847567E+04  0.21744847567E+04  0.00000000000E+00 0. -1.
         23    2    1    2    0    0  0.15899486569E+04  0.95315652484E+03 -0.14650612240E+04  0.23644704109E+04  0.88723400280E+02 0.  0.
         13    1    3    3    0    0  0.25805502252E+03  0.19376456955E+03 -0.25796115873E+03  0.41313564658E+03  0.00000000000E+00 0.  1.
        -13    1    3    3    0    0  0.13318936343E+04  0.75939195529E+03 -0.12071000653E+04  0.19513347643E+04  0.00000000000E+00 0. -1.
         22    1    1    2    0    0 -0.15899486569E+04 -0.95315652484E+03  0.30481300211E+04  0.35675678995E+04  0.00000000000E+00 0.  1.
<mgrwt>
<rscale>  0 0.57169023E+04</rscale>
<asrwt>0</asrwt>
<pdfrwt beam="1">  1        1 0.33453612E+00 0.57169023E+04</pdfrwt>
<pdfrwt beam="2">  1       -1 0.57808516E+00 0.57169023E+04</pdfrwt>
<totfact> 0.86011494E-04</totfact>
</mgrwt>
</event>
<event>
 6    1  0.1585031E-006  0.1496538E+04  0.7818608E-02  0.8886758E-01
         -1   -1    0    0    0  501 -0.00000000000E+00  0.00000000000E+00  0.52480230882E+03  0.52480230882E+03  0.00000000000E+00 0.  1.
          1   -1    0    0  501    0  0.00000000000E+00 -0.00000000000E+00 -0.10668909912E+04  0.10668909912E+04  0.00000000000E+00 0. -1.
         23    2    1    2    0    0  0.22625015936E+03  0.29392793070E+03  0.41590957055E+03  0.56439421228E+03  0.89315692468E+02 0.  0.
         11    1    3    3    0    0  0.14968816837E+03  0.12138401240E+03  0.21403152921E+03  0.28801062778E+03  0.00000000000E+00 0. -1.
        -11    1    3    3    0    0  0.76561990991E+02  0.17254391830E+03  0.20187804134E+03  0.27638358450E+03  0.00000000000E+00 0.  1.
         22    1    1    2    0    0 -0.22625015936E+03 -0.29392793070E+03 -0.95799825298E+03  0.10272990878E+04  0.00000000000E+00 0. -1.
<mgrwt>
<rscale>  0 0.14965385E+04</rscale>
<asrwt>0</asrwt>
<pdfrwt beam="1">  1        1 0.16413707E+00 0.14965385E+04</pdfrwt>
<pdfrwt beam="2">  1       -1 0.80738818E-01 0.14965385E+04</pdfrwt>
<totfact> 0.19885689E+01</totfact>
</mgrwt>
</event>
<event>
 6    1  0.1585031E-006  0.1699933E+04  0.7818608E-02  0.8761402E-01
         -1   -1    0    0    0  501 -0.00000000000E+00  0.00000000000E+00  0.39718362898E+03  0.39718362898E+03  0.00000000000E+00 0.  1.
          1   -1    0    0  501    0  0.00000000000E+00 -0.00000000000E+00 -0.18189151568E+04  0.18189151568E+04  0.00000000000E+00 0. -1.
         23    2    1    2    0    0  0.65942178097E+03 -0.65755885905E+02 -0.14021781473E+04  0.15531182005E+04  0.83136432371E+02 0.  0.
         13    1    3    3    0    0  0.31550578601E+03  0.10134583136E+02 -0.66991188466E+03  0.74055961542E+03  0.00000000000E+00 0. -1.
        -13    1    3    3    0    0  0.34391599495E+03 -0.75890469041E+02 -0.73226626263E+03  0.81255858512E+03  0.00000000000E+00 0.  1.
         22    1    1    2    0    0 -0.65942178097E+03  0.65755885905E+02 -0.19553380560E+02  0.66298058526E+03  0.00000000000E+00 0.  1.
<mgrwt>
<rscale>  0 0.16999333E+04</rscale>
<asrwt>0</asrwt>
<pdfrwt beam="1">  1        1 0.27983311E+00 0.16999333E+04</pdfrwt>
<pdfrwt beam="2">  1       -1 0.61105172E-01 0.16999333E+04</pdfrwt>
<totfact> 0.10223844E+01</totfact>
</mgrwt>
</event>
<event>
 6    1  0.1585031E-006  0.5416038E+04  0.7818608E-02  0.7767349E-01
          2   -1    0    0  501    0  0.00000000000E+00  0.00000000000E+00  0.35214002596E+04  0.35214002596E+04  0.00000000000E+00 0. -1.
         -2   -1    0    0    0  501 -0.00000000000E+00 -0.00000000000E+00 -0.20825142617E+04  0.20825142617E+04  0.00000000000E+00 0.  1.
         23    2    1    2    0    0 -0.25472484696E+04  0.44565182017E+03  0.15488773200E+04  0.30156374106E+04  0.89262137440E+02 0.  0.
         11    1    3    3    0    0 -0.15773395375E+04  0.23288231310E+03  0.94380924800E+03  0.18528383861E+04  0.00000000000E+00 0.  1.
        -11    1    3    3    0    0 -0.96990893211E+03  0.21276950707E+03  0.60506807200E+03  0.11627990245E+04  0.00000000000E+00 0. -1.
         22    1    1    2    0    0  0.25472484696E+04 -0.44565182017E+03 -0.10999132208E+03  0.25882771107E+04  0.00000000000E+00 0.  1.
<mgrwt>
<rscale>  0 0.54160378E+04</rscale>
<asrwt>0</asrwt>
<pdfrwt beam="1">  1        2 0.54175388E+00 0.54160378E+04</pdfrwt>
<pdfrwt beam="2">  1       -2 0.32038681E+00 0.54160378E+04</pdfrwt>
<totfact> 0.13145523E-02</totfact>
</mgrwt>
</event>
<event>
 6    1  0.1585031E-006  0.1033188E+04  0.7818608E-02  0.9272876E-01
          1   -1    0    0  501    0  0.00000000000E+00  0.00000000000E+00  0.16914072033E+04  0.16914072033E+04  0.00000000000E+00 0. -1.
         -1   -1    0    0    0  501 -0.00000000000E+00 -0.00000000000E+00 -0.15777948204E+03  0.15777948204E+03  0.00000000000E+00 0.  1.
         23    2    1    2    0    0  0.33728186315E+03 -0.21492858916E+03  0.19874126123E+03  0.45567485731E+03  0.90488303216E+02 0.  0.
         11    1    3    3    0    0  0.19176048627E+03 -0.11217408074E+03  0.60687284800E+02  0.23029992406E+03  0.00000000000E+00 0. -1.
        -11    1    3    3    0    0  0.14552137688E+03 -0.10275450843E+03  0.13805397643E+03  0.22537493325E+03  0.00000000000E+00 0.  1.
         22    1    1    2    0    0 -0.33728186315E+03  0.21492858916E+03  0.13348864600E+04  0.13935118280E+04  0.00000000000E+00 0. -1.
<mgrwt>
<rscale>  0 0.10331880E+04</rscale>
<asrwt>0</asrwt>
<pdfrwt beam="1">  1        1 0.26021648E+00 0.10331880E+04</pdfrwt>
<pdfrwt beam="2">  1       -1 0.24273768E-01 0.10331880E+04</pdfrwt>
<totfact> 0.71297873E+01</totfact>
</mgrwt>
</event>
<event>
 6    1  0.1585031E-006  0.3134963E+04  0.7818608E-02  0.8206208E-01
          2   -1    0    0  501    0  0.00000000000E+00  0.00000000000E+00  0.23548152103E+04  0.23548152103E+04  0.00000000000E+00 0. -1.
         -2   -1    0    0    0  501 -0.00000000000E+00 -0.00000000000E+00 -0.10433931668E+04  0.10433931668E+04  0.00000000000E+00 0.  1.
         23    2    1    2    0    0 -0.66913876748E+02 -0.14179979206E+04 -0.60858725909E+02  0.14237843902E+04  0.90899039120E+02 0.  0.
         13    1    3    3    0    0 -0.27810320369E+02 -0.39551882130E+03  0.22751215499E+02  0.39714754151E+03  0.00000000000E+00 0. -1.
        -13    1    3    3    0    0 -0.39103556380E+02 -0.10224790993E+04 -0.83609941408E+02  0.10266368486E+04  0.00000000000E+00 0.  1.
         22    1    1    2    0    0  0.66913876748E+02  0.14179979206E+04  0.13722807694E+04  0.19744239869E+04  0.00000000000E+00 0. -1.
<mgrwt>
<rscale>  0 0.31349629E+04</rscale>
<asrwt>0</asrwt>
<pdfrwt beam="1">  1        2 0.36227926E+00 0.31349629E+04</pdfrwt>
<pdfrwt beam="2">  1       -2 0.16052203E+00 0.31349629E+04</pdfrwt>
<totfact> 0.89171067E-01</totfact>
</mgrwt>
</event>
<event>
 6    1  0.1585031E-006  0.2390586E+04  0.7818608E-02  0.8443036E-01
         -1   -1    0    0    0  501 -0.00000000000E+00  0.00000000000E+00  0.95889293531E+03  0.95889293531E+03  0.00000000000E+00 0.  1.
          1   -1    0    0  501    0  0.00000000000E+00 -0.00000000000E+00 -0.14899742702E+04  0.14899742702E+04  0.00000000000E+00 0. -1.
         23    2    1    2    0    0  0.78053278413E+03  0.81596541118E+03  0.13003306726E+03  0.11403935787E+04  0.92509115266E+02 0.  0.
         13    1    3    3    0    0  0.19715652449E+03  0.24385881608E+03  0.38009490378E+01  0.31361164605E+03  0.00000000000E+00 0. -1.
        -13    1    3    3    0    0  0.58337625965E+03  0.57210659510E+03  0.12623211822E+03  0.82678193265E+03  0.00000000000E+00 0.  1.
         22    1    1    2    0    0 -0.78053278413E+03 -0.81596541118E+03 -0.66111440217E+03  0.13084736268E+04  0.00000000000E+00 0.  1.
<mgrwt>
<rscale>  0 0.23905864E+04</rscale>
<asrwt>0</asrwt>
<pdfrwt beam="1">  1        1 0.22922681E+00 0.23905864E+04</pdfrwt>
<pdfrwt beam="2">  1       -1 0.14752199E+00 0.23905864E+04</pdfrwt>
<totfact> 0.21754421E+00</totfact>
</mgrwt>
</event>
<event>
 6    1  0.1585031E-006  0.4957997E+04  0.7818608E-02  0.7835019E-01
          1   -1    0    0  501    0  0.00000000000E+00  0.00000000000E+00  0.27108130131E+04  0.27108130131E+04  0.00000000000E+00 0. -1.
         -1   -1    0    0    0  501 -0.00000000000E+00 -0.00000000000E+00 -0.22670075166E+04  0.22670075166E+04  0.00000000000E+00 0.  1.
         23    2    1    2    0    0  0.80047239029E+03  0.21396606408E+04 -0.74224747160E+03  0.24037915189E+04  0.91534976385E+02 0.  0.
         11    1    3    3    0    0  0.45172016123E+03  0.10877226209E+04 -0.40159357174E+03  0.12443749438E+04  0.00000000000E+00 0.  1.
        -11    1    3    3    0    0  0.34875222905E+03  0.10519380199E+04 -0.34065389986E+03  0.11594165750E+04  0.00000000000E+00 0. -1.
         22    1    1    2    0    0 -0.80047239029E+03 -0.21396606408E+04  0.11860529682E+04  0.25740290108E+04  0.00000000000E+00 0. -1.
<mgrwt>
<rscale>  0 0.49579970E+04</rscale>
<asrwt>0</asrwt>
<pdfrwt beam="1">  1        1 0.41704816E+00 0.49579970E+04</pdfrwt>
<pdfrwt beam="2">  1       -1 0.34877038E+00 0.49579970E+04</pdfrwt>
<totfact> 0.11059525E-02</totfact>
</mgrwt>
</event>
<event>
 6    1  0.1585031E-006  0.3311683E+04  0.7818608E-02  0.8159929E-01
         -2   -1    0    0    0  501 -0.00000000000E+00  0.00000000000E+00  0.27417429044E+04  0.27417429044E+04  0.00000000000E+00 0.  1.
          2   -1    0    0  501    0  0.00000000000E+00 -0.00000000000E+00 -0.10000251116E+04  0.10000251116E+04  0.00000000000E+00 0. -1.
         23    2    1    2    0    0  0.21735317555E+03 -0.15129238207E+04  0.15874670103E+04  0.22055472656E+04  0.90588862230E+02 0.  0.
         11    1    3    3    0    0  0.65660597389E+02 -0.77388575239E+03  0.81186236316E+03  0.11235350322E+04  0.00000000000E+00 0. -1.
        -11    1    3    3    0    0  0.15169257816E+03 -0.73903806829E+03  0.77560464712E+03  0.10820122334E+04  0.00000000000E+00 0.  1.
         22    1    1    2    0    0 -0.21735317555E+03  0.15129238207E+04  0.15425078250E+03  0.15362207504E+04  0.00000000000E+00 0. -1.
<mgrwt>
<rscale>  0 0.33116834E+04</rscale>
<asrwt>0</asrwt>
<pdfrwt beam="1">  1        2 0.15385002E+00 0.33116834E+04</pdfrwt>
<pdfrwt beam="2">  1       -2 0.42180660E+00 0.33116834E+04</pdfrwt>
<totfact> 0.11198573E-01</totfact>
</mgrwt>
</event>
<event>
 6    1  0.1585031E-006  0.9718826E+03  0.7818608E-02  0.9339933E-01
          1   -1    0    0  501    0  0.00000000000E+00  0.00000000000E+00  0.32238049753E+03  0.32238049753E+03  0.00000000000E+00 0. -1.
         -1   -1    0    0    0  501 -0.00000000000E+00 -0.00000000000E+00 -0.73248528076E+03  0.73248528076E+03  0.00000000000E+00 0.  1.
         23    2    1    2    0    0 -0.43869325845E+03 -0.19703245879E+03 -0.23117234897E+03  0.54174748700E+03  0.93680947476E+02 0.  0.
         13    1    3    3    0    0 -0.29432719760E+03 -0.99881674073E+02 -0.11000207961E+03  0.32970487649E+03  0.00000000000E+00 0. -1.
        -13    1    3    3    0    0 -0.14436606085E+03 -0.97150784720E+02 -0.12117026936E+03  0.21204261051E+03  0.00000000000E+00 0.  1.
         22    1    1    2    0    0  0.43869325845E+03  0.19703245879E+03 -0.17893243426E+03  0.51311829129E+03  0.00000000000E+00 0. -1.
<mgrwt>
<rscale>  0 0.97188265E+03</rscale>
<asrwt>0</asrwt>
<pdfrwt beam="1">  1        1 0.49597000E-01 0.97188265E+03</pdfrwt>
<pdfrwt beam="2">  1       -1 0.11269004E+00 0.97188265E+03</pdfrwt>
<totfact> 0.57767524E+01</totfact>
</mgrwt>
</event>
<event>
 6    1  0.1585031E-006  0.2330250E+04  0.7818608E-02  0.8466088E-01
          2   -1    0    0  501    0  0.00000000000E+00  0.00000000000E+00  0.11256431727E+04  0.11256431727E+04  0.00000000000E+00 0. -1.
         -2   -1    0    0    0  501 -0.00000000000E+00 -0.00000000000E+00 -0.12059920189E+04  0.12059920189E+04  0.00000000000E+00 0.  1.
         23    2    1    2    0    0  0.11083261284E+04  0.18906358632E+02  0.31382312858E+03  0.11551506812E+04  0.84521493922E+02 0.  0.
         13    1    3    3    0    0  0.55478957599E+03 -0.25184906122E+02  0.18207039368E+03  0.58444450667E+03  0.00000000000E+00 0. -1.
        -13    1    3    3    0    0  0.55353655244E+03  0.44091264754E+02  0.13175273490E+03  0.57070617455E+03  0.00000000000E+00 0.  1.
         22    1    1    2    0    0 -0.11083261284E+04 -0.18906358632E+02 -0.39417197484E+03  0.11764845104E+04  0.00000000000E+00 0.  1.
<mgrwt>
<rscale>  0 0.23302504E+04</rscale>
<asrwt>0</asrwt>
<pdfrwt beam="1">  1        2 0.17317587E+00 0.23302504E+04</pdfrwt>
<pdfrwt beam="2">  1       -2 0.18553723E+00 0.23302504E+04</pdfrwt>
<totfact> 0.31565661E+00</totfact>
</mgrwt>
</event>
<event>
 6    1  0.1585031E-006  0.1951121E+04  0.7818608E-02  0.8629821E-01
          1   -1    0    0  501    0  0.00000000000E+00  0.00000000000E+00  0.22871388059E+04  0.22871388059E+04  0.00000000000E+00 0. -1.
         -1   -1    0    0    0  501 -0.00000000000E+00 -0.00000000000E+00 -0.41611728116E+03  0.41611728116E+03  0.00000000000E+00 0.  1.
         23    2    1    2    0    0 -0.51659521538E+03  0.58160544412E+03  0.17473885531E+04  0.19155882504E+04  0.10476679066E+03 0.  0.
         11    1    3    3    0    0 -0.21709285346E+03  0.19134280071E+03  0.73784791990E+03  0.79256603971E+03  0.00000000000E+00 0.  1.
        -11    1    3    3    0    0 -0.29950236193E+03  0.39026264341E+03  0.10095406332E+04  0.11230222107E+04  0.00000000000E+00 0. -1.
         22    1    1    2    0    0  0.51659521538E+03 -0.58160544412E+03  0.12363297162E+03  0.78766783663E+03  0.00000000000E+00 0.  1.
<mgrwt>
<rscale>  0 0.19511207E+04</rscale>
<asrwt>0</asrwt>
<pdfrwt beam="1">  1        1 0.35186750E+00 0.19511207E+04</pdfrwt>
<pdfrwt beam="2">  1       -1 0.64018045E-01 0.19511207E+04</pdfrwt>
<totfact> 0.43791353E+00</totfact>
</mgrwt>
</event>
<event>
 6    1  0.1585031E-006  0.1951090E+04  0.7818608E-02  0.8629835E-01
          2   -1    0    0  501    0  0.00000000000E+00  0.00000000000E+00  0.27058913041E+04  0.27058913041E+04  0.00000000000E+00 0. -1.
         -2   -1    0    0    0  501 -0.00000000000E+00 -0.00000000000E+00 -0.35170962250E+03  0.35170962250E+03  0.00000000000E+00 0.  1.
         23    2    1    2    0    0  0.31745580685E+03 -0.69227999265E+03  0.22936745840E+03  0.80042010516E+03  0.89627764918E+02 0.  0.
         11    1    3    3    0    0  0.19520430163E+03 -0.39103425612E+03  0.17507155846E+03  0.47081053452E+03  0.00000000000E+00 0.  1.
        -11    1    3    3    0    0  0.12225150522E+03 -0.30124573654E+03  0.54295899939E+02  0.32960957064E+03  0.00000000000E+00 0. -1.
         22    1    1    2    0    0 -0.31745580685E+03  0.69227999265E+03  0.21248142232E+04  0.22571808214E+04  0.00000000000E+00 0. -1.
<mgrwt>
<rscale>  0 0.19510900E+04</rscale>
<asrwt>0</asrwt>
<pdfrwt beam="1">  1        2 0.41629096E+00 0.19510900E+04</pdfrwt>
<pdfrwt beam="2">  1       -2 0.54109174E-01 0.19510900E+04</pdfrwt>
<totfact> 0.79129432E+00</totfact>
</mgrwt>
</event>
<event>
 6    1  0.1585031E-006  0.3238675E+04  0.7818608E-02  0.8178677E-01
          1   -1    0    0  501    0  0.00000000000E+00  0.00000000000E+00  0.24572133722E+04  0.24572133722E+04  0.00000000000E+00 0. -1.
         -1   -1    0    0    0  501 -0.00000000000E+00 -0.00000000000E+00 -0.10671659558E+04  0.10671659558E+04  0.00000000000E+00 0.  1.
         23    2    1    2    0    0  0.15411627605E+04  0.40627626954E+03  0.39144024833E+03  0.16435658503E+04  0.88544761541E+02 0.  0.
         11    1    3    3    0    0  0.12062353313E+04  0.28144889368E+03  0.31469496733E+03  0.12779867279E+04  0.00000000000E+00 0. -1.
        -11    1    3    3    0    0  0.33492742918E+03  0.12482737587E+03  0.76745281007E+02  0.36557912240E+03  0.00000000000E+00 0.  1.
         22    1    1    2    0    0 -0.15411627605E+04 -0.40627626954E+03  0.99860716808E+03  0.18808134777E+04  0.00000000000E+00 0. -1.
<mgrwt>
<rscale>  0 0.32386753E+04</rscale>
<asrwt>0</asrwt>
<pdfrwt beam="1">  1        1 0.37803282E+00 0.32386753E+04</pdfrwt>
<pdfrwt beam="2">  1       -1 0.16417938E+00 0.32386753E+04</pdfrwt>
<totfact> 0.32867191E-01</totfact>
</mgrwt>
</event>
<event>
 6    1  0.1585031E-006  0.1390830E+04  0.7818608E-02  0.8960483E-01
         -2   -1    0    0    0  501 -0.00000000000E+00  0.00000000000E+00  0.34559752728E+03  0.34559752728E+03  0.00000000000E+00 0.  1.
          2   -1    0    0  501    0  0.00000000000E+00 -0.00000000000E+00 -0.13993211799E+04  0.13993211799E+04  0.00000000000E+00 0. -1.
         23    2    1    2    0    0 -0.20665874465E+03 -0.64070497831E+03 -0.73276788597E+03  0.99911490583E+03  0.89839380943E+02 0.  0.
         11    1    3    3    0    0 -0.19480994753E+02 -0.11862246446E+03 -0.90177622657E+02  0.15027575273E+03  0.00000000000E+00 0. -1.
        -11    1    3    3    0    0 -0.18717774990E+03 -0.52208251385E+03 -0.64259026331E+03  0.84883915309E+03  0.00000000000E+00 0.  1.
         22    1    1    2    0    0  0.20665874465E+03  0.64070497831E+03 -0.32095576668E+03  0.74580380137E+03  0.00000000000E+00 0. -1.
<mgrwt>
<rscale>  0 0.13908299E+04</rscale>
<asrwt>0</asrwt>
<pdfrwt beam="1">  1        2 0.21528018E+00 0.13908299E+04</pdfrwt>
<pdfrwt beam="2">  1       -2 0.53168850E-01 0.13908299E+04</pdfrwt>
<totfact> 0.47038654E+01</totfact>
</mgrwt>
</event>
<event>
 6    1  0.1585031E-006  0.3238833E+04  0.7818608E-02  0.8178636E-01
          3   -1    0    0  501    0  0.00000000000E+00  0.00000000000E+00  0.14727754158E+04  0.14727754158E+04  0.00000000000E+00 0. -1.
         -3   -1    0    0    0  501 -0.00000000000E+00 -0.00000000000E+00 -0.17806583192E+04  0.17806583192E+04  0.00000000000E+00 0.  1.
         23    2    1    2    0    0  0.93326759771E+03  0.97167403440E+03  0.74621202659E+03  0.15428037460E+04  0.90951480655E+02 0.  0.
         11    1    3    3    0    0  0.18004909912E+03  0.16201616723E+03  0.16935999992E+03  0.29554987077E+03  0.00000000000E+00 0.  1.
        -11    1    3    3    0    0  0.75321849859E+03  0.80965786717E+03  0.57685202667E+03  0.12472538752E+04  0.00000000000E+00 0. -1.
         22    1    1    2    0    0 -0.93326759771E+03 -0.97167403440E+03 -0.10540949300E+04  0.17106299891E+04  0.00000000000E+00 0. -1.
<mgrwt>
<rscale>  0 0.32388330E+04</rscale>
<asrwt>0</asrwt>
<pdfrwt beam="1">  1        3 0.22658083E+00 0.32388330E+04</pdfrwt>
<pdfrwt beam="2">  1       -3 0.27394743E+00 0.32388330E+04</pdfrwt>
<totfact> 0.11725478E-02</totfact>
</mgrwt>
</event>
<event>
 6    1  0.1585031E-006  0.2611765E+04  0.7818608E-02  0.8364216E-01
         -1   -1    0    0    0  501 -0.00000000000E+00  0.00000000000E+00  0.10037901582E+04  0.10037901582E+04  0.00000000000E+00 0.  1.
          1   -1    0    0  501    0  0.00000000000E+00 -0.00000000000E+00 -0.16988894101E+04  0.16988894101E+04  0.00000000000E+00 0. -1.
         23    2    1    2    0    0  0.88010468253E+03  0.94780733491E+03 -0.52186030009E+03  0.13977141548E+04  0.91343797350E+02 0.  0.
         11    1    3    3    0    0  0.27984643275E+03  0.36104932502E+03 -0.20116551444E+03  0.49913746124E+03  0.00000000000E+00 0.  1.
        -11    1    3    3    0    0  0.60025824978E+03  0.58675800989E+03 -0.32069478565E+03  0.89857669353E+03  0.00000000000E+00 0. -1.
         22    1    1    2    0    0 -0.88010468253E+03 -0.94780733491E+03 -0.17323895181E+03  0.13049654136E+04  0.00000000000E+00 0. -1.
<mgrwt>
<rscale>  0 0.26117645E+04</rscale>
<asrwt>0</asrwt>
<pdfrwt beam="1">  1        1 0.26136760E+00 0.26117645E+04</pdfrwt>
<pdfrwt beam="2">  1       -1 0.15442926E+00 0.26117645E+04</pdfrwt>
<totfact> 0.13541576E+00</totfact>
</mgrwt>
</event>
<event>
 6    1  0.1585031E-006  0.3538466E+04  0.7818608E-02  0.8104734E-01
         -1   -1    0    0    0  501 -0.00000000000E+00  0.00000000000E+00  0.21310307472E+04  0.21310307472E+04  0.00000000000E+00 0.  1.
          1   -1    0    0  501    0  0.00000000000E+00 -0.00000000000E+00 -0.14688596503E+04  0.14688596503E+04  0.00000000000E+00 0. -1.
         23    2    1    2    0    0 -0.16564264292E+04  0.45244524842E+02 -0.29604887354E+03  0.16857375577E+04  0.90942813858E+02 0.  0.
         11    1    3    3    0    0 -0.14128793938E+04  0.54257390351E+02 -0.28089867490E+03  0.14415533675E+04  0.00000000000E+00 0. -1.
        -11    1    3    3    0    0 -0.24354703539E+03 -0.90128655094E+01 -0.15150198639E+02  0.24418419014E+03  0.00000000000E+00 0.  1.
         22    1    1    2    0    0  0.16564264292E+04 -0.45244524842E+02  0.95821997042E+03  0.19141528398E+04  0.00000000000E+00 0.  1.
<mgrwt>
<rscale>  0 0.35384658E+04</rscale>
<asrwt>0</asrwt>
<pdfrwt beam="1">  1        1 0.22597841E+00 0.35384658E+04</pdfrwt>
<pdfrwt beam="2">  1       -1 0.32785088E+00 0.35384658E+04</pdfrwt>
<totfact> 0.12155988E-01</totfact>
</mgrwt>
</event>
<event>
 6    1  0.1585031E-006  0.4642978E+04  0.7818608E-02  0.7886073E-01
          2   -1    0    0  501    0  0.00000000000E+00  0.00000000000E+00  0.19094965309E+04  0.19094965309E+04  0.00000000000E+00 0.  1.
         -2   -1    0    0    0  501 -0.00000000000E+00 -0.00000000000E+00 -0.28223726468E+04  0.28223726468E+04  0.00000000000E+00 0. -1.
         23    2    1    2    0    0 -0.69466213903E+02  0.91770849779E+03 -0.26276882064E+04  0.27856947387E+04  0.91298551416E+02 0.  0.
         13    1    3    3    0    0 -0.12215399057E+02  0.87201878719E+02 -0.34105060656E+03  0.35223415488E+03  0.00000000000E+00 0.  1.
        -13    1    3    3    0    0 -0.57250814846E+02  0.83050661907E+03 -0.22866375998E+04  0.24334605838E+04  0.00000000000E+00 0. -1.
         22    1    1    2    0    0  0.69466213903E+02 -0.91770849779E+03  0.17148120905E+04  0.19461744391E+04  0.00000000000E+00 0.  1.
<mgrwt>
<rscale>  0 0.46429778E+04</rscale>
<asrwt>0</asrwt>
<pdfrwt beam="1">  1        2 0.29376870E+00 0.46429778E+04</pdfrwt>
<pdfrwt beam="2">  1       -2 0.43421117E+00 0.46429778E+04</pdfrwt>
<totfact> 0.24838190E-02</totfact>
</mgrwt>
</event>
<event>
 6    1  0.1585031E-006  0.2777572E+04  0.7818608E-02  0.8310265E-01
          1   -1    0    0  501    0  0.00000000000E+00  0.00000000000E+00  0.22780408103E+04  0.22780408103E+04  0.00000000000E+00 0. -1.
         -1   -1    0    0    0  501 -0.00000000000E+00 -0.00000000000E+00 -0.84666042513E+03  0.84666042513E+03  0.00000000000E+00 0.  1.
         23    2    1    2    0    0  0.68292227856E+03  0.49818485966E+03  0.19539188827E+04  0.21309117837E+04  0.91733510095E+02 0.  0.
         13    1    3    3    0    0  0.55136149939E+03  0.43678437469E+03  0.16678050843E+04  0.18100701346E+04  0.00000000000E+00 0. -1.
        -13    1    3    3    0    0  0.13156077917E+03  0.61400484967E+02  0.28611379843E+03  0.32084164914E+03  0.00000000000E+00 0.  1.
         22    1    1    2    0    0 -0.68292227856E+03 -0.49818485966E+03 -0.52253849753E+03  0.99378945172E+03  0.00000000000E+00 0.  1.
<mgrwt>
<rscale>  0 0.27775723E+04</rscale>
<asrwt>0</asrwt>
<pdfrwt beam="1">  1        1 0.35046781E+00 0.27775723E+04</pdfrwt>
<pdfrwt beam="2">  1       -1 0.13025545E+00 0.27775723E+04</pdfrwt>
<totfact> 0.84311239E-01</totfact>
</mgrwt>
</event>
<event>
 6    1  0.1585031E-006  0.6612342E+04  0.7818608E-02  0.7618792E-01
          1   -1    0    0  501    0  0.00000000000E+00  0.00000000000E+00  0.41640938584E+04  0.41640938584E+04  0.00000000000E+00 0. -1.
         -1   -1    0    0    0  501 -0.00000000000E+00 -0.00000000000E+00 -0.26250044995E+04  0.26250044995E+04  0.00000000000E+00 0.  1.
         23    2    1    2    0    0 -0.15574280352E+04  0.25656241766E+04 -0.65256570851E+03  0.30727343506E+04  0.88571355648E+02 0.  0.
         13    1    3    3    0    0 -0.77653321894E+03  0.11943164451E+04 -0.31357373662E+03  0.14586720329E+04  0.00000000000E+00 0.  1.
        -13    1    3    3    0    0 -0.78089481625E+03  0.13713077315E+04 -0.33899197189E+03  0.16140623177E+04  0.00000000000E+00 0. -1.
         22    1    1    2    0    0  0.15574280352E+04 -0.25656241766E+04  0.21916550674E+04  0.37163640073E+04  0.00000000000E+00 0. -1.
<mgrwt>
<rscale>  0 0.66123415E+04</rscale>
<asrwt>0</asrwt>
<pdfrwt beam="1">  1        1 0.64062983E+00 0.66123415E+04</pdfrwt>
<pdfrwt beam="2">  1       -1 0.40384684E+00 0.66123415E+04</pdfrwt>
<totfact> 0.29205136E-04</totfact>
</mgrwt>
</event>
<event>
 6    1  0.1585031E-006  0.3222368E+04  0.7818608E-02  0.8182935E-01
         -2   -1    0    0    0  501 -0.00000000000E+00  0.00000000000E+00  0.74972590166E+03  0.74972590166E+03  0.00000000000E+00 0.  1.
          2   -1    0    0  501    0  0.00000000000E+00 -0.00000000000E+00 -0.34624842212E+04  0.34624842212E+04  0.00000000000E+00 0. -1.
         23    2    1    2    0    0 -0.13085305611E+04 -0.82858488527E+03 -0.78328443165E+03  0.17380083070E+04  0.91286543505E+02 0.  0.
         11    1    3    3    0    0 -0.25116774621E+03 -0.14225136343E+03 -0.11011588357E+03  0.30894367601E+03  0.00000000000E+00 0.  1.
        -11    1    3    3    0    0 -0.10573628149E+04 -0.68633352184E+03 -0.67316854808E+03  0.14290646310E+04  0.00000000000E+00 0. -1.
         22    1    1    2    0    0  0.13085305611E+04  0.82858488527E+03 -0.19294738879E+04  0.24742018158E+04  0.00000000000E+00 0.  1.
<mgrwt>
<rscale>  0 0.32223681E+04</rscale>
<asrwt>0</asrwt>
<pdfrwt beam="1">  1        2 0.53268987E+00 0.32223681E+04</pdfrwt>
<pdfrwt beam="2">  1       -2 0.11534245E+00 0.32223681E+04</pdfrwt>
<totfact> 0.42429283E-01</totfact>
</mgrwt>
</event>
<event>
 6    1  0.1585031E-006  0.3183199E+04  0.7818608E-02  0.8193268E-01
         -2   -1    0    0    0  501 -0.00000000000E+00  0.00000000000E+00  0.51651852904E+03  0.51651852904E+03  0.00000000000E+00 0.  1.
          2   -1    0    0  501    0  0.00000000000E+00 -0.00000000000E+00 -0.49043530645E+04  0.49043530645E+04  0.00000000000E+00 0. -1.
         23    2    1    2    0    0  0.81950875026E+02  0.18047526539E+03 -0.48828307362E+04  0.48876657176E+04  0.89179042747E+02 0.  0.
         11    1    3    3    0    0 -0.86047837803E+00 -0.73416216695E+01 -0.57781476972E+02  0.58252372594E+02  0.00000000000E+00 0.  1.
        -11    1    3    3    0    0  0.82811353404E+02  0.18781688706E+03 -0.48250492592E+04  0.48294133450E+04  0.00000000000E+00 0. -1.
         22    1    1    2    0    0 -0.81950875026E+02 -0.18047526539E+03  0.49499620075E+03  0.53320587590E+03  0.00000000000E+00 0.  1.
<mgrwt>
<rscale>  0 0.31831992E+04</rscale>
<asrwt>0</asrwt>
<pdfrwt beam="1">  1        2 0.75451587E+00 0.31831992E+04</pdfrwt>
<pdfrwt beam="2">  1       -2 0.79464388E-01 0.31831992E+04</pdfrwt>
<totfact> 0.53085982E-02</totfact>
</mgrwt>
</event>
<event>
 6    1  0.1585031E-006  0.1913064E+04  0.7818608E-02  0.8648381E-01
         -1   -1    0    0    0  501 -0.00000000000E+00  0.00000000000E+00  0.83542765553E+03  0.83542765553E+03  0.00000000000E+00 0.  1.
          1   -1    0    0  501    0  0.00000000000E+00 -0.00000000000E+00 -0.10951916348E+04  0.10951916348E+04  0.00000000000E+00 0. -1.
         23    2    1    2    0    0  0.93595506737E+01  0.65813555099E+03  0.56716275247E+03  0.87371918894E+03  0.92095758074E+02 0.  0.
         11    1    3    3    0    0  0.34032328188E+02  0.51432731530E+03  0.40460987155E+03  0.65528614726E+03  0.00000000000E+00 0.  1.
        -11    1    3    3    0    0 -0.24672777515E+02  0.14380823569E+03  0.16255288092E+03  0.21843304168E+03  0.00000000000E+00 0. -1.
         22    1    1    2    0    0 -0.93595506737E+01 -0.65813555099E+03 -0.82692673177E+03  0.10569001014E+04  0.00000000000E+00 0. -1.
<mgrwt>
<rscale>  0 0.19130639E+04</rscale>
<asrwt>0</asrwt>
<pdfrwt beam="1">  1        1 0.16849102E+00 0.19130639E+04</pdfrwt>
<pdfrwt beam="2">  1       -1 0.12852733E+00 0.19130639E+04</pdfrwt>
<totfact> 0.62372549E+00</totfact>
</mgrwt>
</event>
<event>
 6    1  0.1585031E-006  0.3734229E+04  0.7818608E-02  0.8060418E-01
          2   -1    0    0  501    0  0.00000000000E+00  0.00000000000E+00  0.25743347141E+04  0.25743347141E+04  0.00000000000E+00 0. -1.
         -2   -1    0    0    0  501 -0.00000000000E+00 -0.00000000000E+00 -0.13541813909E+04  0.13541813909E+04  0.00000000000E+00 0.  1.
         23    2    1    2    0    0  0.11244065862E+04  0.95062818118E+03 -0.59549533817E+03  0.15908753773E+04  0.91025591183E+02 0.  0.
         11    1    3    3    0    0  0.29168607954E+03  0.20491750814E+03 -0.11995142963E+03  0.37611208384E+03  0.00000000000E+00 0. -1.
        -11    1    3    3    0    0  0.83272050668E+03  0.74571067303E+03 -0.47554390854E+03  0.12147632934E+04  0.00000000000E+00 0.  1.
         22    1    1    2    0    0 -0.11244065862E+04 -0.95062818118E+03  0.18156486614E+04  0.23376407276E+04  0.00000000000E+00 0. -1.
<mgrwt>
<rscale>  0 0.37342288E+04</rscale>
<asrwt>0</asrwt>
<pdfrwt beam="1">  1        2 0.39605149E+00 0.37342288E+04</pdfrwt>
<pdfrwt beam="2">  1       -2 0.20833560E+00 0.37342288E+04</pdfrwt>
<totfact> 0.29807400E-01</totfact>
</mgrwt>
</event>
<event>
 6    1  0.1585031E-006  0.2340200E+04  0.7818608E-02  0.8462237E-01
          1   -1    0    0  501    0  0.00000000000E+00  0.00000000000E+00  0.13594894262E+04  0.13594894262E+04  0.00000000000E+00 0. -1.
         -1   -1    0    0    0  501 -0.00000000000E+00 -0.00000000000E+00 -0.10070940098E+04  0.10070940098E+04  0.00000000000E+00 0.  1.
         23    2    1    2    0    0 -0.13544375697E+02  0.11505884291E+04 -0.28463056324E+02  0.11545230581E+04  0.89867473350E+02 0.  0.
         13    1    3    3    0    0  0.21389061050E+02  0.84774535124E+03  0.33000473235E+01  0.84802155798E+03  0.00000000000E+00 0. -1.
        -13    1    3    3    0    0 -0.34933436747E+02  0.30284307786E+03 -0.31763103648E+02  0.30650150010E+03  0.00000000000E+00 0.  1.
         22    1    1    2    0    0  0.13544375697E+02 -0.11505884291E+04  0.38085847275E+03  0.12120603779E+04  0.00000000000E+00 0.  1.
<mgrwt>
<rscale>  0 0.23401997E+04</rscale>
<asrwt>0</asrwt>
<pdfrwt beam="1">  1        1 0.20915222E+00 0.23401997E+04</pdfrwt>
<pdfrwt beam="2">  1       -1 0.15493754E+00 0.23401997E+04</pdfrwt>
<totfact> 0.23614675E+00</totfact>
</mgrwt>
</event>
<event>
 6    1  0.1585031E-006  0.5262294E+04  0.7818608E-02  0.7789272E-01
          1   -1    0    0  501    0  0.00000000000E+00  0.00000000000E+00  0.32951683655E+04  0.32951683655E+04  0.00000000000E+00 0. -1.
         -1   -1    0    0    0  501 -0.00000000000E+00 -0.00000000000E+00 -0.21009348108E+04  0.21009348108E+04  0.00000000000E+00 0.  1.
         23    2    1    2    0    0  0.11032196433E+04  0.16855879428E+04 -0.11370896594E+04  0.23149721790E+04  0.88447734472E+02 0.  0.
         11    1    3    3    0    0  0.47255592469E+03  0.78156077661E+03 -0.54925082835E+03  0.10657498871E+04  0.00000000000E+00 0.  1.
        -11    1    3    3    0    0  0.63066371861E+03  0.90402716619E+03 -0.58783883107E+03  0.12492222919E+04  0.00000000000E+00 0. -1.
         22    1    1    2    0    0 -0.11032196433E+04 -0.16855879428E+04  0.23313232141E+04  0.30811309973E+04  0.00000000000E+00 0. -1.
<mgrwt>
<rscale>  0 0.52622938E+04</rscale>
<asrwt>0</asrwt>
<pdfrwt beam="1">  1        1 0.50694898E+00 0.52622938E+04</pdfrwt>
<pdfrwt beam="2">  1       -1 0.32322074E+00 0.52622938E+04</pdfrwt>
<totfact> 0.59360581E-03</totfact>
</mgrwt>
</event>
<event>
 6    1  0.1585031E-006  0.1646973E+04  0.7818608E-02  0.8792199E-01
         -1   -1    0    0    0  501 -0.00000000000E+00  0.00000000000E+00  0.91872391687E+03  0.91872391687E+03  0.00000000000E+00 0.  1.
          1   -1    0    0  501    0  0.00000000000E+00 -0.00000000000E+00 -0.73812169356E+03  0.73812169356E+03  0.00000000000E+00 0. -1.
         23    2    1    2    0    0  0.58427155303E+03 -0.54646115800E+02 -0.48690927953E+03  0.76806495577E+03  0.92106916885E+02 0.  0.
         11    1    3    3    0    0  0.25762350295E+03 -0.58545121255E+02 -0.25721554547E+03  0.36872379544E+03  0.00000000000E+00 0. -1.
        -11    1    3    3    0    0  0.32664805009E+03  0.38990054558E+01 -0.22969373407E+03  0.39934116033E+03  0.00000000000E+00 0.  1.
         22    1    1    2    0    0 -0.58427155303E+03  0.54646115800E+02  0.66751150284E+03  0.88878065465E+03  0.00000000000E+00 0.  1.
<mgrwt>
<rscale>  0 0.16469730E+04</rscale>
<asrwt>0</asrwt>
<pdfrwt beam="1">  1        1 0.11355718E+00 0.16469730E+04</pdfrwt>
<pdfrwt beam="2">  1       -1 0.14134214E+00 0.16469730E+04</pdfrwt>
<totfact> 0.98125887E+00</totfact>
</mgrwt>
</event>
<event>
 6    1  0.1585031E-006  0.1968870E+04  0.7818608E-02  0.8621315E-01
         -2   -1    0    0    0  501 -0.00000000000E+00  0.00000000000E+00  0.32408388155E+03  0.32408388155E+03  0.00000000000E+00 0.  1.
          2   -1    0    0  501    0  0.00000000000E+00 -0.00000000000E+00 -0.29903129304E+04  0.29903129304E+04  0.00000000000E+00 0. -1.
         23    2    1    2    0    0  0.49357792471E+03  0.63518362615E+03 -0.38709216187E+03  0.89746852252E+03  0.92368828264E+02 0.  0.
         11    1    3    3    0    0  0.33570029636E+03  0.38001364947E+03 -0.27747185389E+03  0.57801011449E+03  0.00000000000E+00 0. -1.
        -11    1    3    3    0    0  0.15787762835E+03  0.25516997668E+03 -0.10962030798E+03  0.31945840803E+03  0.00000000000E+00 0.  1.
         22    1    1    2    0    0 -0.49357792471E+03 -0.63518362615E+03 -0.22791368869E+04  0.24169282894E+04  0.00000000000E+00 0. -1.
<mgrwt>
<rscale>  0 0.19688700E+04</rscale>
<asrwt>0</asrwt>
<pdfrwt beam="1">  1        2 0.46004813E+00 0.19688700E+04</pdfrwt>
<pdfrwt beam="2">  1       -2 0.49859060E-01 0.19688700E+04</pdfrwt>
<totfact> 0.62752943E+00</totfact>
</mgrwt>
</event>
<event>
 6    1  0.1585031E-006  0.2231235E+04  0.7818608E-02  0.8505539E-01
          2   -1    0    0  501    0  0.00000000000E+00  0.00000000000E+00  0.23835145405E+04  0.23835145405E+04  0.00000000000E+00 0. -1.
         -2   -1    0    0    0  501 -0.00000000000E+00 -0.00000000000E+00 -0.52217101047E+03  0.52217101047E+03  0.00000000000E+00 0.  1.
         23    2    1    2    0    0 -0.64853624824E+03 -0.18761082468E+03  0.20850724116E+04  0.21944530297E+04  0.11090559638E+03 0.  0.
         11    1    3    3    0    0 -0.39026912826E+03 -0.84921724836E+02  0.10734589467E+04  0.11453540073E+04  0.00000000000E+00 0.  1.
        -11    1    3    3    0    0 -0.25826711998E+03 -0.10268909985E+03  0.10116134649E+04  0.10490990224E+04  0.00000000000E+00 0. -1.
         22    1    1    2    0    0  0.64853624824E+03  0.18761082468E+03 -0.22372888156E+03  0.71123252124E+03  0.00000000000E+00 0.  1.
<mgrwt>
<rscale>  0 0.22312348E+04</rscale>
<asrwt>0</asrwt>
<pdfrwt beam="1">  1        2 0.36669454E+00 0.22312348E+04</pdfrwt>
<pdfrwt beam="2">  1       -2 0.80334003E-01 0.22312348E+04</pdfrwt>
<totfact> 0.50721629E+00</totfact>
</mgrwt>
</event>
<event>
 6    1  0.1585031E-006  0.6149189E+03  0.7818608E-02  0.9874929E-01
          2   -1    0    0  501    0  0.00000000000E+00  0.00000000000E+00  0.29829557081E+03  0.29829557081E+03  0.00000000000E+00 0. -1.
         -2   -1    0    0    0  501 -0.00000000000E+00 -0.00000000000E+00 -0.31690480957E+03  0.31690480957E+03  0.00000000000E+00 0.  1.
         23    2    1    2    0    0 -0.25095483732E+03  0.16427680187E+03  0.83485773840E+01  0.31404938526E+03  0.92693687107E+02 0.  0.
         11    1    3    3    0    0 -0.15465402926E+03  0.99905920619E+02  0.50281225246E+02  0.19085927631E+03  0.00000000000E+00 0. -1.
        -11    1    3    3    0    0 -0.96300808062E+02  0.64370881253E+02 -0.41932647862E+02  0.12319010895E+03  0.00000000000E+00 0.  1.
         22    1    1    2    0    0  0.25095483732E+03 -0.16427680187E+03 -0.26957816144E+02  0.30115099512E+03  0.00000000000E+00 0.  1.
<mgrwt>
<rscale>  0 0.61491886E+03</rscale>
<asrwt>0</asrwt>
<pdfrwt beam="1">  1        2 0.45891627E-01 0.61491886E+03</pdfrwt>
<pdfrwt beam="2">  1       -2 0.48754586E-01 0.61491886E+03</pdfrwt>
<totfact> 0.44412998E+02</totfact>
</mgrwt>
</event>
<event>
 6    1  0.1585031E-006  0.1740099E+04  0.7818608E-02  0.8738819E-01
          2   -1    0    0  501    0  0.00000000000E+00  0.00000000000E+00  0.48481597791E+03  0.48481597791E+03  0.00000000000E+00 0.  1.
         -2   -1    0    0    0  501 -0.00000000000E+00 -0.00000000000E+00 -0.15613893743E+04  0.15613893743E+04  0.00000000000E+00 0. -1.
         23    2    1    2    0    0 -0.31920131584E+03 -0.58822512548E+03  0.10948009280E+03  0.68436058958E+03  0.92006780013E+02 0.  0.
         13    1    3    3    0    0 -0.24771985142E+03 -0.46916988443E+03  0.12365953547E+03  0.54477260023E+03  0.00000000000E+00 0. -1.
        -13    1    3    3    0    0 -0.71481464421E+02 -0.11905524105E+03 -0.14179442670E+02  0.13958798935E+03  0.00000000000E+00 0.  1.
         22    1    1    2    0    0  0.31920131584E+03  0.58822512548E+03 -0.11860534892E+04  0.13618447627E+04  0.00000000000E+00 0. -1.
<mgrwt>
<rscale>  0 0.17400994E+04</rscale>
<asrwt>0</asrwt>
<pdfrwt beam="1">  1        2 0.74587074E-01 0.17400994E+04</pdfrwt>
<pdfrwt beam="2">  1       -2 0.24021375E+00 0.17400994E+04</pdfrwt>
<totfact> 0.44698737E+00</totfact>
</mgrwt>
</event>
<event>
 6    1  0.1585031E-006  0.1612184E+04  0.7818608E-02  0.8813097E-01
          2   -1    0    0  501    0  0.00000000000E+00  0.00000000000E+00  0.46914035435E+03  0.46914035435E+03  0.00000000000E+00 0.  1.
         -2   -1    0    0    0  501 -0.00000000000E+00 -0.00000000000E+00 -0.13850538603E+04  0.13850538603E+04  0.00000000000E+00 0. -1.
         23    2    1    2    0    0  0.53998147461E+03  0.48544303938E+03 -0.63516136712E+02  0.73445486442E+03  0.90303437598E+02 0.  0.
         13    1    3    3    0    0  0.28782871473E+03  0.31225214603E+03 -0.57023175665E+02  0.42848385534E+03  0.00000000000E+00 0. -1.
        -13    1    3    3    0    0  0.25215275988E+03  0.17319089335E+03 -0.64929610465E+01  0.30597100908E+03  0.00000000000E+00 0.  1.
         22    1    1    2    0    0 -0.53998147461E+03 -0.48544303938E+03 -0.85239736926E+03  0.11197393503E+04  0.00000000000E+00 0. -1.
<mgrwt>
<rscale>  0 0.16121844E+04</rscale>
<asrwt>0</asrwt>
<pdfrwt beam="1">  1        2 0.72175439E-01 0.16121844E+04</pdfrwt>
<pdfrwt beam="2">  1       -2 0.21308521E+00 0.16121844E+04</pdfrwt>
<totfact> 0.69426452E+00</totfact>
</mgrwt>
</event>
<event>
 6    1  0.1585031E-006  0.1515258E+04  0.7818608E-02  0.8874369E-01
         -2   -1    0    0    0  501 -0.00000000000E+00  0.00000000000E+00  0.94438805622E+03  0.94438805622E+03  0.00000000000E+00 0.  1.
          2   -1    0    0  501    0  0.00000000000E+00 -0.00000000000E+00 -0.60780315869E+03  0.60780315869E+03  0.00000000000E+00 0. -1.
         23    2    1    2    0    0 -0.55039615179E+03 -0.33409804170E+03  0.57267891503E+03  0.86640858865E+03  0.90251190565E+02 0.  0.
         11    1    3    3    0    0 -0.42052776866E+03 -0.28457544773E+03  0.41147032270E+03  0.65355536577E+03  0.00000000000E+00 0. -1.
        -11    1    3    3    0    0 -0.12986838313E+03 -0.49522593975E+02  0.16120859234E+03  0.21285322289E+03  0.00000000000E+00 0.  1.
         22    1    1    2    0    0  0.55039615179E+03  0.33409804170E+03 -0.23609401750E+03  0.68578262626E+03  0.00000000000E+00 0. -1.
<mgrwt>
<rscale>  0 0.15152585E+04</rscale>
<asrwt>0</asrwt>
<pdfrwt beam="1">  1        2 0.93508178E-01 0.15152585E+04</pdfrwt>
<pdfrwt beam="2">  1       -2 0.14529047E+00 0.15152585E+04</pdfrwt>
<totfact> 0.15349071E+01</totfact>
</mgrwt>
</event>
<event>
 6    1  0.1585031E-006  0.1585050E+04  0.7818608E-02  0.8829785E-01
          2   -1    0    0  501    0  0.00000000000E+00  0.00000000000E+00  0.27720882968E+04  0.27720882968E+04  0.00000000000E+00 0. -1.
         -2   -1    0    0    0  501 -0.00000000000E+00 -0.00000000000E+00 -0.22657857713E+03  0.22657857713E+03  0.00000000000E+00 0.  1.
         23    2    1    2    0    0  0.69663519883E+03 -0.14758224243E+03  0.19240942247E+04  0.20535540045E+04  0.88681144525E+02 0.  0.
         11    1    3    3    0    0  0.39406089171E+02 -0.94788447870E+01  0.62169351148E+02  0.74213991838E+02  0.00000000000E+00 0. -1.
        -11    1    3    3    0    0  0.65722910966E+03 -0.13810339764E+03  0.18619248736E+04  0.19793400127E+04  0.00000000000E+00 0.  1.
         22    1    1    2    0    0 -0.69663519883E+03  0.14758224243E+03  0.62141549491E+03  0.94511286936E+03  0.00000000000E+00 0.  1.
<mgrwt>
<rscale>  0 0.15850499E+04</rscale>
<asrwt>0</asrwt>
<pdfrwt beam="1">  1        2 0.42647510E+00 0.15850499E+04</pdfrwt>
<pdfrwt beam="2">  1       -2 0.34858245E-01 0.15850499E+04</pdfrwt>
<totfact> 0.17891822E+01</totfact>
</mgrwt>
</event>
<event>
 6    1  0.2397448E-006  0.3229012E+04  0.7818608E-02  0.8181197E-01
          1   -1    0    0  501    0  0.00000000000E+00  0.00000000000E+00  0.23444705330E+04  0.23444705330E+04  0.00000000000E+00 0. -1.
         -1   -1    0    0    0  501 -0.00000000000E+00 -0.00000000000E+00 -0.11118201864E+04  0.11118201864E+04  0.00000000000E+00 0.  1.
         23    2    1    2    0    0  0.15692549825E+04  0.27079554052E+03  0.34128105923E+03  0.16313439718E+04  0.94440287455E+02 0.  0.
         11    1    3    3    0    0  0.88245628668E+03  0.19306413987E+03  0.16880297736E+03  0.91896534493E+03  0.00000000000E+00 0.  1.
        -11    1    3    3    0    0  0.68679869586E+03  0.77731400651E+02  0.17247808187E+03  0.71237862686E+03  0.00000000000E+00 0. -1.
         22    1    1    2    0    0 -0.15692549825E+04 -0.27079554052E+03  0.89136928740E+03  0.18249467476E+04  0.00000000000E+00 0. -1.
<mgrwt>
<rscale>  0 0.32290120E+04</rscale>
<asrwt>0</asrwt>
<pdfrwt beam="1">  1        1 0.36068777E+00 0.32290120E+04</pdfrwt>
<pdfrwt beam="2">  1       -1 0.17104926E+00 0.32290120E+04</pdfrwt>
<totfact> 0.34994230E-01</totfact>
</mgrwt>
</event>
<event>
 6    1  0.1585031E-006  0.2586269E+04  0.7818608E-02  0.8372880E-01
         -2   -1    0    0    0  501 -0.00000000000E+00  0.00000000000E+00  0.71674607198E+03  0.71674607198E+03  0.00000000000E+00 0.  1.
          2   -1    0    0  501    0  0.00000000000E+00 -0.00000000000E+00 -0.23330386566E+04  0.23330386566E+04  0.00000000000E+00 0. -1.
         23    2    1    2    0    0 -0.68291391560E+03  0.10834096110E+04 -0.61214689509E+03  0.14223768611E+04  0.91018199764E+02 0.  0.
         13    1    3    3    0    0 -0.13189356892E+03  0.17054121377E+03 -0.73579588665E+02  0.22780293015E+03  0.00000000000E+00 0.  1.
        -13    1    3    3    0    0 -0.55102034667E+03  0.91286839719E+03 -0.53856730642E+03  0.11945739310E+04  0.00000000000E+00 0. -1.
         22    1    1    2    0    0  0.68291391560E+03 -0.10834096110E+04 -0.10041456895E+04  0.16274078675E+04  0.00000000000E+00 0. -1.
<mgrwt>
<rscale>  0 0.25862686E+04</rscale>
<asrwt>0</asrwt>
<pdfrwt beam="1">  1        2 0.35892902E+00 0.25862686E+04</pdfrwt>
<pdfrwt beam="2">  1       -2 0.11026863E+00 0.25862686E+04</pdfrwt>
<totfact> 0.25108031E+00</totfact>
</mgrwt>
</event>
<event>
 6    1  0.1585031E-006  0.4824052E+04  0.7818608E-02  0.7856237E-01
         -2   -1    0    0    0  501 -0.00000000000E+00  0.00000000000E+00  0.19165845503E+04  0.19165845503E+04  0.00000000000E+00 0.  1.
          2   -1    0    0  501    0  0.00000000000E+00 -0.00000000000E+00 -0.30355397928E+04  0.30355397928E+04  0.00000000000E+00 0. -1.
         23    2    1    2    0    0 -0.14329528475E+04 -0.65828708071E+03 -0.24314262724E+04  0.29004723384E+04  0.11920706206E+03 0.  0.
         11    1    3    3    0    0 -0.28286469239E+03 -0.10861595975E+03 -0.39193966455E+03  0.49540545169E+03  0.00000000000E+00 0.  1.
        -11    1    3    3    0    0 -0.11500881552E+04 -0.54967112096E+03 -0.20394866079E+04  0.24050668867E+04  0.00000000000E+00 0. -1.
         22    1    1    2    0    0  0.14329528475E+04  0.65828708071E+03  0.13124710299E+04  0.20516520047E+04  0.00000000000E+00 0.  1.
<mgrwt>
<rscale>  0 0.48240517E+04</rscale>
<asrwt>0</asrwt>
<pdfrwt beam="1">  1        2 0.46700612E+00 0.48240517E+04</pdfrwt>
<pdfrwt beam="2">  1       -2 0.29485916E+00 0.48240517E+04</pdfrwt>
<totfact> 0.41694513E-02</totfact>
</mgrwt>
</event>
<event>
 6    1  0.1585031E-006  0.2036463E+03  0.7818608E-02  0.1146699E+00
         -2   -1    0    0    0  501 -0.00000000000E+00  0.00000000000E+00  0.67022304026E+02  0.67022304026E+02  0.00000000000E+00 0.  1.
          2   -1    0    0  501    0  0.00000000000E+00 -0.00000000000E+00 -0.15469408881E+03  0.15469408881E+03  0.00000000000E+00 0. -1.
         23    2    1    2    0    0  0.25213086809E+02 -0.45786702858E+02 -0.12103990608E+03  0.15970386649E+03  0.90125158534E+02 0.  0.
         13    1    3    3    0    0  0.30481451970E+02  0.97472924199E+00 -0.71598003043E+00  0.30505436215E+02  0.00000000000E+00 0.  1.
        -13    1    3    3    0    0 -0.52683651605E+01 -0.46761432100E+02 -0.12032392605E+03  0.12919843027E+03  0.00000000000E+00 0. -1.
         22    1    1    2    0    0 -0.25213086809E+02  0.45786702858E+02  0.33368121301E+02  0.62012526349E+02  0.00000000000E+00 0.  1.
<mgrwt>
<rscale>  0 0.20364630E+03</rscale>
<asrwt>0</asrwt>
<pdfrwt beam="1">  1        2 0.23799090E-01 0.20364630E+03</pdfrwt>
<pdfrwt beam="2">  1       -2 0.10311124E-01 0.20364630E+03</pdfrwt>
<totfact> 0.13902990E+04</totfact>
</mgrwt>
</event>
<event>
 6    1  0.1585031E-006  0.4108408E+04  0.7818608E-02  0.7983027E-01
         -1   -1    0    0    0  501 -0.00000000000E+00  0.00000000000E+00  0.16109185258E+04  0.16109185258E+04  0.00000000000E+00 0.  1.
          1   -1    0    0  501    0  0.00000000000E+00 -0.00000000000E+00 -0.26194714515E+04  0.26194714515E+04  0.00000000000E+00 0. -1.
         23    2    1    2    0    0 -0.13932924309E+04 -0.55047931393E+03  0.94119326424E+03  0.17715688211E+04  0.91214331233E+02 0.  0.
         11    1    3    3    0    0 -0.32937673920E+03 -0.17189617523E+03  0.24042674958E+03  0.44254079281E+03  0.00000000000E+00 0. -1.
        -11    1    3    3    0    0 -0.10639156917E+04 -0.37858313869E+03  0.70076651467E+03  0.13290280283E+04  0.00000000000E+00 0.  1.
         22    1    1    2    0    0  0.13932924309E+04  0.55047931393E+03 -0.19497461899E+04  0.24588211562E+04  0.00000000000E+00 0. -1.
<mgrwt>
<rscale>  0 0.41084085E+04</rscale>
<asrwt>0</asrwt>
<pdfrwt beam="1">  1        1 0.40299561E+00 0.41084085E+04</pdfrwt>
<pdfrwt beam="2">  1       -1 0.24783362E+00 0.41084085E+04</pdfrwt>
<totfact> 0.62479982E-02</totfact>
</mgrwt>
</event>
<event>
 6    1  0.1585031E-006  0.2929124E+04  0.7818608E-02  0.8264265E-01
          2   -1    0    0  501    0  0.00000000000E+00  0.00000000000E+00  0.22060597453E+04  0.22060597453E+04  0.00000000000E+00 0. -1.
         -2   -1    0    0    0  501 -0.00000000000E+00 -0.00000000000E+00 -0.97229556536E+03  0.97229556536E+03  0.00000000000E+00 0.  1.
         23    2    1    2    0    0  0.21814976066E+03  0.86527614653E+03  0.18756433977E+04  0.20791278283E+04  0.91881681912E+02 0.  0.
         11    1    3    3    0    0  0.88781762739E+02  0.42591882964E+03  0.10118436671E+04  0.11014157514E+04  0.00000000000E+00 0.  1.
        -11    1    3    3    0    0  0.12936799792E+03  0.43935731689E+03  0.86379973063E+03  0.97771207696E+03  0.00000000000E+00 0. -1.
         22    1    1    2    0    0 -0.21814976066E+03 -0.86527614653E+03 -0.64187921771E+03  0.10992274824E+04  0.00000000000E+00 0.  1.
<mgrwt>
<rscale>  0 0.29291242E+04</rscale>
<asrwt>0</asrwt>
<pdfrwt beam="1">  1        2 0.33939381E+00 0.29291242E+04</pdfrwt>
<pdfrwt beam="2">  1       -2 0.14958393E+00 0.29291242E+04</pdfrwt>
<totfact> 0.13314323E+00</totfact>
</mgrwt>
</event>
<event>
 6    1  0.1585031E-006  0.1932114E+04  0.7818608E-02  0.8639034E-01
         -2   -1    0    0    0  501 -0.00000000000E+00  0.00000000000E+00  0.33200433777E+03  0.33200433777E+03  0.00000000000E+00 0.  1.
          2   -1    0    0  501    0  0.00000000000E+00 -0.00000000000E+00 -0.28110052976E+04  0.28110052976E+04  0.00000000000E+00 0. -1.
         23    2    1    2    0    0 -0.43614386289E+03 -0.73241915092E+03 -0.51016036969E+03  0.99755104776E+03  0.90472141137E+02 0.  0.
         13    1    3    3    0    0 -0.59476010621E+02 -0.17166808080E+03 -0.11190585686E+03  0.21337817744E+03  0.00000000000E+00 0. -1.
        -13    1    3    3    0    0 -0.37666785226E+03 -0.56075107011E+03 -0.39825451283E+03  0.78417287032E+03  0.00000000000E+00 0.  1.
         22    1    1    2    0    0  0.43614386289E+03  0.73241915092E+03 -0.19688405901E+04  0.21454585876E+04  0.00000000000E+00 0. -1.
<mgrwt>
<rscale>  0 0.19321138E+04</rscale>
<asrwt>0</asrwt>
<pdfrwt beam="1">  1        2 0.43246235E+00 0.19321138E+04</pdfrwt>
<pdfrwt beam="2">  1       -2 0.51077591E-01 0.19321138E+04</pdfrwt>
<totfact> 0.77206384E+00</totfact>
</mgrwt>
</event>
<event>
 6    1  0.1585031E-006  0.1119119E+04  0.7818608E-02  0.9186755E-01
         -1   -1    0    0    0  501 -0.00000000000E+00  0.00000000000E+00  0.47637831699E+03  0.47637831699E+03  0.00000000000E+00 0.  1.
          1   -1    0    0  501    0  0.00000000000E+00 -0.00000000000E+00 -0.65726474475E+03  0.65726474475E+03  0.00000000000E+00 0. -1.
         23    2    1    2    0    0 -0.40402870166E+03 -0.26707273465E+03  0.18520394627E+03  0.52652758729E+03  0.91453600779E+02 0.  0.
         13    1    3    3    0    0 -0.10977275138E+03 -0.47731091262E+02  0.82632334284E+02  0.14545245508E+03  0.00000000000E+00 0.  1.
        -13    1    3    3    0    0 -0.29425595028E+03 -0.21934164339E+03  0.10257161199E+03  0.38107513221E+03  0.00000000000E+00 0. -1.
         22    1    1    2    0    0  0.40402870166E+03  0.26707273465E+03 -0.36609037404E+03  0.60711547446E+03  0.00000000000E+00 0. -1.
<mgrwt>
<rscale>  0 0.11191187E+04</rscale>
<asrwt>0</asrwt>
<pdfrwt beam="1">  1        1 0.10111765E+00 0.11191187E+04</pdfrwt>
<pdfrwt beam="2">  1       -1 0.73288972E-01 0.11191187E+04</pdfrwt>
<totfact> 0.55962064E+01</totfact>
</mgrwt>
</event>
<event>
 6    1  0.1585031E-006  0.8201956E+03  0.7818608E-02  0.9531236E-01
         -4   -1    0    0    0  501 -0.00000000000E+00  0.00000000000E+00  0.21102823542E+04  0.21102823542E+04  0.00000000000E+00 0.  1.
          4   -1    0    0  501    0  0.00000000000E+00 -0.00000000000E+00 -0.79695597417E+02  0.79695597417E+02  0.00000000000E+00 0. -1.
         23    2    1    2    0    0  0.31821852893E+03  0.17296793350E+03  0.54902974477E+03  0.66479202262E+03  0.96611772135E+02 0.  0.
         13    1    3    3    0    0  0.89647883838E+02  0.21404313607E+02  0.20543638975E+03  0.22516437984E+03  0.00000000000E+00 0. -1.
        -13    1    3    3    0    0  0.22857064510E+03  0.15156361989E+03  0.34359335503E+03  0.43962764278E+03  0.00000000000E+00 0.  1.
         22    1    1    2    0    0 -0.31821852893E+03 -0.17296793350E+03  0.14815570120E+04  0.15251859290E+04  0.00000000000E+00 0.  1.
<mgrwt>
<rscale>  0 0.82019562E+03</rscale>
<asrwt>0</asrwt>
<pdfrwt beam="1">  1        4 0.12260863E-01 0.82019562E+03</pdfrwt>
<pdfrwt beam="2">  1       -4 0.32465878E+00 0.82019562E+03</pdfrwt>
<totfact> 0.24820211E+00</totfact>
</mgrwt>
</event>
<event>
 6    1  0.1585031E-006  0.2549278E+04  0.7818608E-02  0.8385637E-01
          2   -1    0    0  501    0  0.00000000000E+00  0.00000000000E+00  0.21942540777E+04  0.21942540777E+04  0.00000000000E+00 0. -1.
         -2   -1    0    0    0  501 -0.00000000000E+00 -0.00000000000E+00 -0.74043593373E+03  0.74043593373E+03  0.00000000000E+00 0.  1.
         23    2    1    2    0    0  0.68404766917E+03  0.93186792495E+03  0.13411939399E+04  0.17732326276E+04  0.96196277735E+02 0.  0.
         11    1    3    3    0    0  0.34501360864E+03  0.40272762046E+03  0.57314229104E+03  0.78084314188E+03  0.00000000000E+00 0. -1.
        -11    1    3    3    0    0  0.33903406053E+03  0.52914030449E+03  0.76805164882E+03  0.99238948568E+03  0.00000000000E+00 0.  1.
         22    1    1    2    0    0 -0.68404766917E+03 -0.93186792495E+03  0.11262420414E+03  0.11614573839E+04  0.00000000000E+00 0.  1.
<mgrwt>
<rscale>  0 0.25492780E+04</rscale>
<asrwt>0</asrwt>
<pdfrwt beam="1">  1        2 0.33757755E+00 0.25492780E+04</pdfrwt>
<pdfrwt beam="2">  1       -2 0.11391322E+00 0.25492780E+04</pdfrwt>
<totfact> 0.27884651E+00</totfact>
</mgrwt>
</event>
<event>
 6    1  0.1585031E-006  0.1638223E+04  0.7818608E-02  0.8797404E-01
          2   -1    0    0  501    0  0.00000000000E+00  0.00000000000E+00  0.13653474998E+04  0.13653474998E+04  0.00000000000E+00 0. -1.
         -2   -1    0    0    0  501 -0.00000000000E+00 -0.00000000000E+00 -0.49140856909E+03  0.49140856909E+03  0.00000000000E+00 0.  1.
         23    2    1    2    0    0 -0.56881643788E+03 -0.45625291148E+03  0.85475755833E+03  0.11273132786E+04  0.92227356366E+02 0.  0.
         11    1    3    3    0    0 -0.32153208217E+03 -0.30702766368E+03  0.55409136051E+03  0.71039855146E+03  0.00000000000E+00 0.  1.
        -11    1    3    3    0    0 -0.24728435571E+03 -0.14922524781E+03  0.30066619782E+03  0.41691472710E+03  0.00000000000E+00 0. -1.
         22    1    1    2    0    0  0.56881643788E+03  0.45625291148E+03  0.19181372334E+02  0.72944279027E+03  0.00000000000E+00 0.  1.
<mgrwt>
<rscale>  0 0.16382228E+04</rscale>
<asrwt>0</asrwt>
<pdfrwt beam="1">  1        2 0.21005346E+00 0.16382228E+04</pdfrwt>
<pdfrwt beam="2">  1       -2 0.75601319E-01 0.16382228E+04</pdfrwt>
<totfact> 0.22723530E+01</totfact>
</mgrwt>
</event>
<event>
 6    1  0.1585031E-006  0.1688165E+04  0.7818608E-02  0.8768143E-01
          1   -1    0    0  501    0  0.00000000000E+00  0.00000000000E+00  0.10315323193E+04  0.10315323193E+04  0.00000000000E+00 0. -1.
         -1   -1    0    0    0  501 -0.00000000000E+00 -0.00000000000E+00 -0.69069642282E+03  0.69069642282E+03  0.00000000000E+00 0.  1.
         23    2    1    2    0    0  0.48442752313E+03  0.44147793960E+03  0.70963510269E+03  0.97017445497E+03  0.89909386480E+02 0.  0.
         13    1    3    3    0    0  0.42184887842E+02  0.60130595684E+02  0.48236795224E+02  0.87875148439E+02  0.00000000000E+00 0. -1.
        -13    1    3    3    0    0  0.44224263529E+03  0.38134734391E+03  0.66139830747E+03  0.88229930653E+03  0.00000000000E+00 0.  1.
         22    1    1    2    0    0 -0.48442752313E+03 -0.44147793960E+03 -0.36879920621E+03  0.75205428715E+03  0.00000000000E+00 0.  1.
<mgrwt>
<rscale>  0 0.16881655E+04</rscale>
<asrwt>0</asrwt>
<pdfrwt beam="1">  1        1 0.15869728E+00 0.16881655E+04</pdfrwt>
<pdfrwt beam="2">  1       -1 0.10626099E+00 0.16881655E+04</pdfrwt>
<totfact> 0.11280026E+01</totfact>
</mgrwt>
</event>
<event>
 6    1  0.1585031E-006  0.2028196E+04  0.7818608E-02  0.8593551E-01
          1   -1    0    0  501    0  0.00000000000E+00  0.00000000000E+00  0.15600278330E+04  0.15600278330E+04  0.00000000000E+00 0. -1.
         -1   -1    0    0    0  501 -0.00000000000E+00 -0.00000000000E+00 -0.65921551904E+03  0.65921551904E+03  0.00000000000E+00 0.  1.
         23    2    1    2    0    0 -0.22822809228E+03 -0.76290512923E+02  0.15269022346E+04  0.15484998144E+04  0.92265577405E+02 0.  0.
         13    1    3    3    0    0 -0.14910219607E+03 -0.67726855566E+02  0.12398560736E+04  0.12506244341E+04  0.00000000000E+00 0. -1.
        -13    1    3    3    0    0 -0.79125896218E+02 -0.85636573564E+01  0.28704616103E+03  0.29787538039E+03  0.00000000000E+00 0.  1.
         22    1    1    2    0    0  0.22822809228E+03  0.76290512923E+02 -0.62608992066E+03  0.67074353759E+03  0.00000000000E+00 0.  1.
<mgrwt>
<rscale>  0 0.20281958E+04</rscale>
<asrwt>0</asrwt>
<pdfrwt beam="1">  1        1 0.24000428E+00 0.20281958E+04</pdfrwt>
<pdfrwt beam="2">  1       -1 0.10141777E+00 0.20281958E+04</pdfrwt>
<totfact> 0.50763701E+00</totfact>
</mgrwt>
</event>
<event>
 6    1  0.1585031E-006  0.6591799E+03  0.7818608E-02  0.9789705E-01
         -1   -1    0    0    0  501 -0.00000000000E+00  0.00000000000E+00  0.69359163515E+03  0.69359163515E+03  0.00000000000E+00 0. -1.
          1   -1    0    0  501    0  0.00000000000E+00 -0.00000000000E+00 -0.15661885718E+03  0.15661885718E+03  0.00000000000E+00 0.  1.
         23    2    1    2    0    0  0.59778789456E+02  0.20199763829E+03 -0.42753782051E+02  0.23339655446E+03  0.90936880375E+02 0.  0.
         11    1    3    3    0    0 -0.12306500486E+02  0.11696075394E+03 -0.28496550513E+02  0.12100959180E+03  0.00000000000E+00 0. -1.
        -11    1    3    3    0    0  0.72085289941E+02  0.85036884355E+02 -0.14257231537E+02  0.11238696267E+03  0.00000000000E+00 0.  1.
         22    1    1    2    0    0 -0.59778789456E+02 -0.20199763829E+03  0.57972656003E+03  0.61681393787E+03  0.00000000000E+00 0. -1.
<mgrwt>
<rscale>  0 0.65917988E+03</rscale>
<asrwt>0</asrwt>
<pdfrwt beam="1">  1        1 0.24095209E-01 0.65917988E+03</pdfrwt>
<pdfrwt beam="2">  1       -1 0.10670640E+00 0.65917988E+03</pdfrwt>
<totfact> 0.17096938E+02</totfact>
</mgrwt>
</event>
<event>
 6    1  0.1585031E-006  0.2471707E+04  0.7818608E-02  0.8413135E-01
         -1   -1    0    0    0  501 -0.00000000000E+00  0.00000000000E+00  0.89246566875E+03  0.89246566875E+03  0.00000000000E+00 0.  1.
          1   -1    0    0  501    0  0.00000000000E+00 -0.00000000000E+00 -0.17113647279E+04  0.17113647279E+04  0.00000000000E+00 0. -1.
         23    2    1    2    0    0 -0.53278772793E+03  0.11040645642E+04 -0.56053133395E+03  0.13510035106E+04  0.90519525821E+02 0.  0.
         11    1    3    3    0    0 -0.17260983644E+03  0.45906880724E+03 -0.22893389027E+03  0.54124768039E+03  0.00000000000E+00 0.  1.
        -11    1    3    3    0    0 -0.36017789150E+03  0.64499575693E+03 -0.33159744368E+03  0.80975583026E+03  0.00000000000E+00 0. -1.
         22    1    1    2    0    0  0.53278772793E+03 -0.11040645642E+04 -0.25836772521E+03  0.12528268860E+04  0.00000000000E+00 0.  1.
<mgrwt>
<rscale>  0 0.24717073E+04</rscale>
<asrwt>0</asrwt>
<pdfrwt beam="1">  1        1 0.26328688E+00 0.24717073E+04</pdfrwt>
<pdfrwt beam="2">  1       -1 0.13730241E+00 0.24717073E+04</pdfrwt>
<totfact> 0.18385463E+00</totfact>
</mgrwt>
</event>
<event>
 6    1  0.1585031E-006  0.1594265E+04  0.7818608E-02  0.8824079E-01
         -2   -1    0    0    0  501 -0.00000000000E+00  0.00000000000E+00  0.23218477404E+03  0.23218477404E+03  0.00000000000E+00 0.  1.
          2   -1    0    0  501    0  0.00000000000E+00 -0.00000000000E+00 -0.27366992420E+04  0.27366992420E+04  0.00000000000E+00 0. -1.
         23    2    1    2    0    0 -0.69668097771E+03  0.24914445135E+03 -0.71696108933E+03  0.10342562938E+04  0.90639589939E+02 0.  0.
         11    1    3    3    0    0 -0.57819124048E+03  0.24008355386E+03 -0.58794226309E+03  0.85884883893E+03  0.00000000000E+00 0. -1.
        -11    1    3    3    0    0 -0.11848973723E+03  0.90608974882E+01 -0.12901882624E+03  0.17540745485E+03  0.00000000000E+00 0.  1.
         22    1    1    2    0    0  0.69668097771E+03 -0.24914445135E+03 -0.17875533786E+04  0.19346277223E+04  0.00000000000E+00 0. -1.
<mgrwt>
<rscale>  0 0.15942646E+04</rscale>
<asrwt>0</asrwt>
<pdfrwt beam="1">  1        2 0.42103066E+00 0.15942646E+04</pdfrwt>
<pdfrwt beam="2">  1       -2 0.35720734E-01 0.15942646E+04</pdfrwt>
<totfact> 0.17910521E+01</totfact>
</mgrwt>
</event>
<event>
 6    1  0.1585031E-006  0.7166785E+03  0.7818608E-02  0.9689127E-01
         -1   -1    0    0    0  501 -0.00000000000E+00  0.00000000000E+00  0.21696932559E+03  0.21696932559E+03  0.00000000000E+00 0.  1.
          1   -1    0    0  501    0  0.00000000000E+00 -0.00000000000E+00 -0.59182112841E+03  0.59182112841E+03  0.00000000000E+00 0. -1.
         23    2    1    2    0    0 -0.19110828573E+03  0.29580653110E+03 -0.16998328662E+03  0.40136562701E+03  0.90422165945E+02 0.  0.
         11    1    3    3    0    0 -0.10321589022E+03  0.14981744861E+03 -0.13712817891E+03  0.22782213535E+03  0.00000000000E+00 0. -1.
        -11    1    3    3    0    0 -0.87892395507E+02  0.14598908250E+03 -0.32855107713E+02  0.17354349166E+03  0.00000000000E+00 0.  1.
         22    1    1    2    0    0  0.19110828573E+03 -0.29580653110E+03 -0.20486851620E+03  0.40742482699E+03  0.00000000000E+00 0.  1.
<mgrwt>
<rscale>  0 0.71667854E+03</rscale>
<asrwt>0</asrwt>
<pdfrwt beam="1">  1        1 0.91049404E-01 0.71667854E+03</pdfrwt>
<pdfrwt beam="2">  1       -1 0.33379896E-01 0.71667854E+03</pdfrwt>
<totfact> 0.29851735E+02</totfact>
</mgrwt>
</event>
<event>
 6    1  0.1585031E-006  0.2261417E+04  0.7818608E-02  0.8493291E-01
          1   -1    0    0  501    0  0.00000000000E+00  0.00000000000E+00  0.21779944445E+04  0.21779944445E+04  0.00000000000E+00 0. -1.
         -1   -1    0    0    0  501 -0.00000000000E+00 -0.00000000000E+00 -0.58700868555E+03  0.58700868555E+03  0.00000000000E+00 0.  1.
         23    2    1    2    0    0 -0.44829285832E+03  0.86032903650E+03  0.91040572543E+02  0.97867502466E+03  0.91563530885E+02 0.  0.
         13    1    3    3    0    0 -0.30137230801E+03  0.62535168823E+03  0.29576997930E+02  0.69481278113E+03  0.00000000000E+00 0.  1.
        -13    1    3    3    0    0 -0.14692055031E+03  0.23497734827E+03  0.61463574613E+02  0.28386224354E+03  0.00000000000E+00 0. -1.
         22    1    1    2    0    0  0.44829285832E+03 -0.86032903650E+03  0.14999451864E+04  0.17863281054E+04  0.00000000000E+00 0. -1.
<mgrwt>
<rscale>  0 0.22614170E+04</rscale>
<asrwt>0</asrwt>
<pdfrwt beam="1">  1        1 0.33507606E+00 0.22614170E+04</pdfrwt>
<pdfrwt beam="2">  1       -1 0.90309030E-01 0.22614170E+04</pdfrwt>
<totfact> 0.24513175E+00</totfact>
</mgrwt>
</event>
<event>
 6    1  0.1585031E-006  0.3716848E+04  0.7818608E-02  0.8064238E-01
         -1   -1    0    0    0  501 -0.00000000000E+00  0.00000000000E+00  0.24444089240E+04  0.24444089240E+04  0.00000000000E+00 0.  1.
          1   -1    0    0  501    0  0.00000000000E+00 -0.00000000000E+00 -0.14129140375E+04  0.14129140375E+04  0.00000000000E+00 0. -1.
         23    2    1    2    0    0 -0.17046123640E+04 -0.39127985609E+03 -0.13296724822E+03  0.17561862928E+04  0.87788202166E+02 0.  0.
         11    1    3    3    0    0 -0.27752230603E+03 -0.36510960304E+02 -0.39575829008E+02  0.28269758897E+03  0.00000000000E+00 0. -1.
        -11    1    3    3    0    0 -0.14270900580E+04 -0.35476889579E+03 -0.93391419215E+02  0.14734887038E+04  0.00000000000E+00 0.  1.
         22    1    1    2    0    0  0.17046123640E+04  0.39127985609E+03  0.11644621347E+04  0.21011366687E+04  0.00000000000E+00 0.  1.
<mgrwt>
<rscale>  0 0.37168480E+04</rscale>
<asrwt>0</asrwt>
<pdfrwt beam="1">  1        1 0.21737139E+00 0.37168480E+04</pdfrwt>
<pdfrwt beam="2">  1       -1 0.37606291E+00 0.37168480E+04</pdfrwt>
<totfact> 0.62663244E-02</totfact>
</mgrwt>
</event>
<event>
 6    1  0.1585031E-006  0.3883746E+04  0.7818608E-02  0.8028418E-01
          1   -1    0    0  501    0  0.00000000000E+00  0.00000000000E+00  0.30284640258E+04  0.30284640258E+04  0.00000000000E+00 0. -1.
         -1   -1    0    0    0  501 -0.00000000000E+00 -0.00000000000E+00 -0.12451429195E+04  0.12451429195E+04  0.00000000000E+00 0.  1.
         23    2    1    2    0    0  0.42184081218E+03 -0.39786792148E+02  0.29762487143E+04  0.30076650283E+04  0.91977460629E+02 0.  0.
         11    1    3    3    0    0  0.22443837042E+03  0.97528503810E-01  0.12831272338E+04  0.13026081873E+04  0.00000000000E+00 0.  1.
        -11    1    3    3    0    0  0.19740244176E+03 -0.39884320652E+02  0.16931214805E+04  0.17050568409E+04  0.00000000000E+00 0. -1.
         22    1    1    2    0    0 -0.42184081218E+03  0.39786792148E+02 -0.11929276079E+04  0.12659419170E+04  0.00000000000E+00 0.  1.
<mgrwt>
<rscale>  0 0.38837459E+04</rscale>
<asrwt>0</asrwt>
<pdfrwt beam="1">  1        1 0.46591754E+00 0.38837459E+04</pdfrwt>
<pdfrwt beam="2">  1       -1 0.19156045E+00 0.38837459E+04</pdfrwt>
<totfact> 0.77519266E-02</totfact>
</mgrwt>
</event>
<event>
 6    1  0.1585031E-006  0.5482931E+03  0.7818608E-02  0.1001890E+00
         -2   -1    0    0    0  501 -0.00000000000E+00  0.00000000000E+00  0.10899981867E+03  0.10899981867E+03  0.00000000000E+00 0.  1.
          2   -1    0    0  501    0  0.00000000000E+00 -0.00000000000E+00 -0.68950865265E+03  0.68950865265E+03  0.00000000000E+00 0. -1.
         23    2    1    2    0    0 -0.18843653914E+03  0.49919671466E+00 -0.23142385500E+02  0.21014979128E+03  0.90104307815E+02 0.  0.
         11    1    3    3    0    0 -0.17144003543E+03 -0.26238214530E+02 -0.33846658586E+02  0.17670802457E+03  0.00000000000E+00 0.  1.
        -11    1    3    3    0    0 -0.16996503717E+02  0.26737411245E+02  0.10704273085E+02  0.33441766714E+02  0.00000000000E+00 0. -1.
         22    1    1    2    0    0  0.18843653914E+03 -0.49919671466E+00 -0.55736644848E+03  0.58835868003E+03  0.00000000000E+00 0. -1.
<mgrwt>
<rscale>  0 0.54829305E+03</rscale>
<asrwt>0</asrwt>
<pdfrwt beam="1">  1        2 0.10607825E+00 0.54829305E+03</pdfrwt>
<pdfrwt beam="2">  1       -2 0.16769203E-01 0.54829305E+03</pdfrwt>
<totfact> 0.12136930E+03</totfact>
</mgrwt>
</event>
<event>
 6    1  0.1585031E-006  0.2002350E+04  0.7818608E-02  0.8605523E-01
         -1   -1    0    0    0  501 -0.00000000000E+00  0.00000000000E+00  0.51200672279E+03  0.51200672279E+03  0.00000000000E+00 0.  1.
          1   -1    0    0  501    0  0.00000000000E+00 -0.00000000000E+00 -0.19576920556E+04  0.19576920556E+04  0.00000000000E+00 0. -1.
         23    2    1    2    0    0  0.88256779130E+03 -0.45498753966E+03 -0.58670759167E+03  0.11567698667E+04  0.89169270436E+02 0.  0.
         13    1    3    3    0    0  0.35529555466E+03 -0.19049831835E+03 -0.28886859829E+03  0.49595323120E+03  0.00000000000E+00 0. -1.
        -13    1    3    3    0    0  0.52727223664E+03 -0.26448922131E+03 -0.29783899338E+03  0.66081663546E+03  0.00000000000E+00 0.  1.
         22    1    1    2    0    0 -0.88256779130E+03  0.45498753966E+03 -0.85897774113E+03  0.13129289117E+04  0.00000000000E+00 0. -1.
<mgrwt>
<rscale>  0 0.20023501E+04</rscale>
<asrwt>0</asrwt>
<pdfrwt beam="1">  1        1 0.30118339E+00 0.20023501E+04</pdfrwt>
<pdfrwt beam="2">  1       -1 0.78770266E-01 0.20023501E+04</pdfrwt>
<totfact> 0.47599964E+00</totfact>
</mgrwt>
</event>
<event>
 6    1  0.2075571E-006  0.4727557E+04  0.7818608E-02  0.7871966E-01
          1   -1    0    0  501    0  0.00000000000E+00  0.00000000000E+00  0.24920928139E+04  0.24920928139E+04  0.00000000000E+00 0. -1.
         -1   -1    0    0    0  501 -0.00000000000E+00 -0.00000000000E+00 -0.22420705267E+04  0.22420705267E+04  0.00000000000E+00 0.  1.
         23    2    1    2    0    0 -0.11105375361E+04  0.38854786644E+03 -0.19270128244E+04  0.22595431796E+04  0.88847574923E+02 0.  0.
         13    1    3    3    0    0 -0.56562697533E+03  0.24197308068E+03 -0.10346902639E+04  0.12037727316E+04  0.00000000000E+00 0.  1.
        -13    1    3    3    0    0 -0.54491056079E+03  0.14657478576E+03 -0.89232256047E+03  0.10557704481E+04  0.00000000000E+00 0. -1.
         22    1    1    2    0    0  0.11105375361E+04 -0.38854786644E+03  0.21770351116E+04  0.24746201609E+04  0.00000000000E+00 0. -1.
<mgrwt>
<rscale>  0 0.47275566E+04</rscale>
<asrwt>0</asrwt>
<pdfrwt beam="1">  1        1 0.38339889E+00 0.47275566E+04</pdfrwt>
<pdfrwt beam="2">  1       -1 0.34493393E+00 0.47275566E+04</pdfrwt>
<totfact> 0.16990239E-02</totfact>
</mgrwt>
</event>
<event>
 6    1  0.1585031E-006  0.1238785E+04  0.7818608E-02  0.9079569E-01
         -1   -1    0    0    0  501 -0.00000000000E+00  0.00000000000E+00  0.13884584498E+03  0.13884584498E+03  0.00000000000E+00 0.  1.
          1   -1    0    0  501    0  0.00000000000E+00 -0.00000000000E+00 -0.27631174173E+04  0.27631174173E+04  0.00000000000E+00 0. -1.
         23    2    1    2    0    0  0.59574534108E+03 -0.15790890558E+03 -0.13306863813E+04  0.14690604811E+04  0.86975386839E+02 0.  0.
         13    1    3    3    0    0  0.21893213657E+03 -0.20052752988E+02 -0.51789844895E+03  0.56262971549E+03  0.00000000000E+00 0. -1.
        -13    1    3    3    0    0  0.37681320451E+03 -0.13785615259E+03 -0.81278793232E+03  0.90643076560E+03  0.00000000000E+00 0.  1.
         22    1    1    2    0    0 -0.59574534108E+03  0.15790890558E+03 -0.12935851911E+04  0.14329027812E+04  0.00000000000E+00 0.  1.
<mgrwt>
<rscale>  0 0.12387855E+04</rscale>
<asrwt>0</asrwt>
<pdfrwt beam="1">  1        1 0.42509501E+00 0.12387855E+04</pdfrwt>
<pdfrwt beam="2">  1       -1 0.21360898E-01 0.12387855E+04</pdfrwt>
<totfact> 0.16137839E+01</totfact>
</mgrwt>
</event>
<event>
 6    1  0.1585031E-006  0.2847936E+04  0.7818608E-02  0.8288539E-01
          1   -1    0    0  501    0  0.00000000000E+00  0.00000000000E+00  0.29892028505E+04  0.29892028505E+04  0.00000000000E+00 0. -1.
         -1   -1    0    0    0  501 -0.00000000000E+00 -0.00000000000E+00 -0.67833625231E+03  0.67833625231E+03  0.00000000000E+00 0.  1.
         23    2    1    2    0    0  0.72491940992E+03 -0.11796788532E+04  0.73574532840E+03  0.15703606741E+04  0.86954648455E+02 0.  0.
         11    1    3    3    0    0  0.61460813551E+03 -0.98421634069E+03  0.58051639286E+03  0.12974683996E+04  0.00000000000E+00 0.  1.
        -11    1    3    3    0    0  0.11031127442E+03 -0.19546251248E+03  0.15522893554E+03  0.27289227450E+03  0.00000000000E+00 0. -1.
         22    1    1    2    0    0 -0.72491940992E+03  0.11796788532E+04  0.15751212698E+04  0.20971784288E+04  0.00000000000E+00 0.  1.
<mgrwt>
<rscale>  0 0.28479359E+04</rscale>
<asrwt>0</asrwt>
<pdfrwt beam="1">  1        1 0.45987735E+00 0.28479359E+04</pdfrwt>
<pdfrwt beam="2">  1       -1 0.10435943E+00 0.28479359E+04</pdfrwt>
<totfact> 0.45292360E-01</totfact>
</mgrwt>
</event>
<event>
 6    1  0.1585031E-006  0.1172859E+04  0.7818608E-02  0.9136950E-01
          1   -1    0    0  501    0  0.00000000000E+00  0.00000000000E+00  0.16332690880E+04  0.16332690880E+04  0.00000000000E+00 0. -1.
         -1   -1    0    0    0  501 -0.00000000000E+00 -0.00000000000E+00 -0.21055912120E+03  0.21055912120E+03  0.00000000000E+00 0.  1.
         23    2    1    2    0    0 -0.33988790008E+03  0.26628015430E+03  0.13311833843E+04  0.14024598591E+04  0.91736298830E+02 0.  0.
         11    1    3    3    0    0 -0.21964728927E+03  0.12022413446E+03  0.82071241687E+03  0.85806039729E+03  0.00000000000E+00 0.  1.
        -11    1    3    3    0    0 -0.12024061080E+03  0.14605601984E+03  0.51047096745E+03  0.54439946182E+03  0.00000000000E+00 0. -1.
         22    1    1    2    0    0  0.33988790008E+03 -0.26628015430E+03  0.91526582521E+02  0.44136835013E+03  0.00000000000E+00 0.  1.
<mgrwt>
<rscale>  0 0.11728592E+04</rscale>
<asrwt>0</asrwt>
<pdfrwt beam="1">  1        1 0.25127216E+00 0.11728592E+04</pdfrwt>
<pdfrwt beam="2">  1       -1 0.32393712E-01 0.11728592E+04</pdfrwt>
<totfact> 0.46780785E+01</totfact>
</mgrwt>
</event>
<event>
 6    1  0.1585031E-006  0.2999375E+04  0.7818608E-02  0.8243909E-01
         -1   -1    0    0    0  501 -0.00000000000E+00  0.00000000000E+00  0.11936044475E+04  0.11936044475E+04  0.00000000000E+00 0.  1.
          1   -1    0    0  501    0  0.00000000000E+00 -0.00000000000E+00 -0.18842608226E+04  0.18842608226E+04  0.00000000000E+00 0. -1.
         23    2    1    2    0    0  0.65097316606E+03 -0.12200264904E+04  0.24624899381E+03  0.14075292648E+04  0.90936044748E+02 0.  0.
         11    1    3    3    0    0  0.10108269938E+03 -0.23898602654E+03  0.73534073694E+02  0.26970223023E+03  0.00000000000E+00 0.  1.
        -11    1    3    3    0    0  0.54989046668E+03 -0.98104046386E+03  0.17271492011E+03  0.11378270346E+04  0.00000000000E+00 0. -1.
         22    1    1    2    0    0 -0.65097316606E+03  0.12200264904E+04 -0.93690536886E+03  0.16703360052E+04  0.00000000000E+00 0. -1.
<mgrwt>
<rscale>  0 0.29993747E+04</rscale>
<asrwt>0</asrwt>
<pdfrwt beam="1">  1        1 0.28988628E+00 0.29993747E+04</pdfrwt>
<pdfrwt beam="2">  1       -1 0.18363145E+00 0.29993747E+04</pdfrwt>
<totfact> 0.59575458E-01</totfact>
</mgrwt>
</event>
<event>
 6    1  0.1585031E-006  0.1842565E+04  0.7818608E-02  0.8683986E-01
          1   -1    0    0  501    0  0.00000000000E+00  0.00000000000E+00  0.16088316857E+04  0.16088316857E+04  0.00000000000E+00 0. -1.
         -1   -1    0    0    0  501 -0.00000000000E+00 -0.00000000000E+00 -0.52756392914E+03  0.52756392914E+03  0.00000000000E+00 0.  1.
         23    2    1    2    0    0 -0.63833065193E+03  0.15868099759E+03 -0.20241103518E+03  0.69400977168E+03  0.89630663430E+02 0.  0.
         11    1    3    3    0    0 -0.36978021368E+03  0.46889981817E+02 -0.12226389943E+03  0.39228119752E+03  0.00000000000E+00 0. -1.
        -11    1    3    3    0    0 -0.26855043826E+03  0.11179101577E+03 -0.80147135746E+02  0.30172857416E+03  0.00000000000E+00 0.  1.
         22    1    1    2    0    0  0.63833065193E+03 -0.15868099759E+03  0.12836787918E+04  0.14423858432E+04  0.00000000000E+00 0. -1.
<mgrwt>
<rscale>  0 0.18425651E+04</rscale>
<asrwt>0</asrwt>
<pdfrwt beam="1">  1        1 0.24751257E+00 0.18425651E+04</pdfrwt>
<pdfrwt beam="2">  1       -1 0.81163682E-01 0.18425651E+04</pdfrwt>
<totfact> 0.78242958E+00</totfact>
</mgrwt>
</event>
<event>
 6    1  0.1585031E-006  0.1842211E+04  0.7818608E-02  0.8684169E-01
         -1   -1    0    0    0  501 -0.00000000000E+00  0.00000000000E+00  0.19570818568E+04  0.19570818568E+04  0.00000000000E+00 0.  1.
          1   -1    0    0  501    0  0.00000000000E+00 -0.00000000000E+00 -0.43352049206E+03  0.43352049206E+03  0.00000000000E+00 0. -1.
         23    2    1    2    0    0 -0.75430801385E+03  0.51625443104E+03  0.64497487072E+03  0.11227642501E+04  0.95434584897E+02 0.  0.
         13    1    3    3    0    0 -0.61226593888E+03  0.43951140292E+03  0.48995445617E+03  0.89894116733E+03  0.00000000000E+00 0.  1.
        -13    1    3    3    0    0 -0.14204207498E+03  0.76743028122E+02  0.15502041455E+03  0.22382308272E+03  0.00000000000E+00 0. -1.
         22    1    1    2    0    0  0.75430801385E+03 -0.51625443104E+03  0.87858649406E+03  0.12678380988E+04  0.00000000000E+00 0.  1.
<mgrwt>
<rscale>  0 0.18422107E+04</rscale>
<asrwt>0</asrwt>
<pdfrwt beam="1">  1        1 0.66695461E-01 0.18422107E+04</pdfrwt>
<pdfrwt beam="2">  1       -1 0.30108951E+00 0.18422107E+04</pdfrwt>
<totfact> 0.16469760E+00</totfact>
</mgrwt>
</event>
<event>
 6    1  0.1585031E-006  0.1584803E+04  0.7818608E-02  0.8829939E-01
          1   -1    0    0  501    0  0.00000000000E+00  0.00000000000E+00  0.85402670050E+03  0.85402670050E+03  0.00000000000E+00 0. -1.
         -1   -1    0    0    0  501 -0.00000000000E+00 -0.00000000000E+00 -0.73522348841E+03  0.73522348841E+03  0.00000000000E+00 0.  1.
         23    2    1    2    0    0 -0.17785489685E+03 -0.74229101628E+03 -0.14266363199E+03  0.78240867552E+03  0.95823308476E+02 0.  0.
         11    1    3    3    0    0 -0.85526046200E+02 -0.29571736039E+03 -0.10324859180E+03  0.32469021162E+03  0.00000000000E+00 0.  1.
        -11    1    3    3    0    0 -0.92328850652E+02 -0.44657365589E+03 -0.39415040193E+02  0.45771846390E+03  0.00000000000E+00 0. -1.
         22    1    1    2    0    0  0.17785489685E+03  0.74229101628E+03  0.26146684408E+03  0.80684151340E+03  0.00000000000E+00 0.  1.
<mgrwt>
<rscale>  0 0.15848034E+04</rscale>
<asrwt>0</asrwt>
<pdfrwt beam="1">  1        1 0.13138872E+00 0.15848034E+04</pdfrwt>
<pdfrwt beam="2">  1       -1 0.11311131E+00 0.15848034E+04</pdfrwt>
<totfact> 0.13638612E+01</totfact>
</mgrwt>
</event>
<event>
 6    1  0.1585031E-006  0.2536416E+04  0.7818608E-02  0.8390126E-01
          2   -1    0    0  501    0  0.00000000000E+00  0.00000000000E+00  0.17883444972E+04  0.17883444972E+04  0.00000000000E+00 0. -1.
         -2   -1    0    0    0  501 -0.00000000000E+00 -0.00000000000E+00 -0.89935247522E+03  0.89935247522E+03  0.00000000000E+00 0.  1.
         23    2    1    2    0    0  0.11746671359E+03  0.40694821558E+03 -0.81973229577E+03  0.92725836996E+03  0.91879099747E+02 0.  0.
         13    1    3    3    0    0  0.43867089084E+02  0.89448445542E+02 -0.27475706808E+03  0.29226151367E+03  0.00000000000E+00 0.  1.
        -13    1    3    3    0    0  0.73599624507E+02  0.31749977003E+03 -0.54497522769E+03  0.63499685629E+03  0.00000000000E+00 0. -1.
         22    1    1    2    0    0 -0.11746671359E+03 -0.40694821558E+03  0.17087243178E+04  0.17604386025E+04  0.00000000000E+00 0. -1.
<mgrwt>
<rscale>  0 0.25364164E+04</rscale>
<asrwt>0</asrwt>
<pdfrwt beam="1">  1        2 0.27512992E+00 0.25364164E+04</pdfrwt>
<pdfrwt beam="2">  1       -2 0.13836192E+00 0.25364164E+04</pdfrwt>
<totfact> 0.28843191E+00</totfact>
</mgrwt>
</event>
<event>
 6    1  0.1585031E-006  0.4434935E+04  0.7818608E-02  0.7922128E-01
          2   -1    0    0  501    0  0.00000000000E+00  0.00000000000E+00  0.17631794214E+04  0.17631794214E+04  0.00000000000E+00 0. -1.
         -2   -1    0    0    0  501 -0.00000000000E+00 -0.00000000000E+00 -0.27888037365E+04  0.27888037365E+04  0.00000000000E+00 0.  1.
         23    2    1    2    0    0 -0.16525548933E+04  0.12786302293E+04 -0.12723747484E+04  0.24480062770E+04  0.89242889080E+02 0.  0.
         13    1    3    3    0    0 -0.47087955238E+03  0.31621171268E+03 -0.33205753683E+03  0.65725155599E+03  0.00000000000E+00 0. -1.
        -13    1    3    3    0    0 -0.11816753410E+04  0.96241851666E+03 -0.94031721155E+03  0.17907547210E+04  0.00000000000E+00 0.  1.
         22    1    1    2    0    0  0.16525548933E+04 -0.12786302293E+04  0.24675043324E+03  0.21039768809E+04  0.00000000000E+00 0. -1.
<mgrwt>
<rscale>  0 0.44349347E+04</rscale>
<asrwt>0</asrwt>
<pdfrwt beam="1">  1        2 0.27125837E+00 0.44349347E+04</pdfrwt>
<pdfrwt beam="2">  1       -2 0.42904672E+00 0.44349347E+04</pdfrwt>
<totfact> 0.32930074E-02</totfact>
</mgrwt>
</event>
<event>
 6    1  0.1585031E-006  0.2245351E+04  0.7818608E-02  0.8499786E-01
          2   -1    0    0  501    0  0.00000000000E+00  0.00000000000E+00  0.25424059667E+04  0.25424059667E+04  0.00000000000E+00 0. -1.
         -2   -1    0    0    0  501 -0.00000000000E+00 -0.00000000000E+00 -0.49575092593E+03  0.49575092593E+03  0.00000000000E+00 0.  1.
         23    2    1    2    0    0  0.42223540153E+03  0.48350158538E+03  0.22681696263E+04  0.23590948711E+04  0.93159218055E+02 0.  0.
         13    1    3    3    0    0  0.20396888770E+03  0.29273933204E+03  0.13420897223E+04  0.13887060331E+04  0.00000000000E+00 0. -1.
        -13    1    3    3    0    0  0.21826651383E+03  0.19076225335E+03  0.92607990406E+03  0.97038883808E+03  0.00000000000E+00 0.  1.
         22    1    1    2    0    0 -0.42223540153E+03 -0.48350158538E+03 -0.22151458557E+03  0.67906202146E+03  0.00000000000E+00 0.  1.
<mgrwt>
<rscale>  0 0.22453509E+04</rscale>
<asrwt>0</asrwt>
<pdfrwt beam="1">  1        2 0.39113937E+00 0.22453509E+04</pdfrwt>
<pdfrwt beam="2">  1       -2 0.76269375E-01 0.22453509E+04</pdfrwt>
<totfact> 0.46077439E+00</totfact>
</mgrwt>
</event>
<event>
 6    1  0.1585031E-006  0.1822892E+04  0.7818608E-02  0.8694220E-01
          2   -1    0    0  501    0  0.00000000000E+00  0.00000000000E+00  0.64673815101E+03  0.64673815101E+03  0.00000000000E+00 0. -1.
         -2   -1    0    0    0  501 -0.00000000000E+00 -0.00000000000E+00 -0.12844974724E+04  0.12844974724E+04  0.00000000000E+00 0.  1.
         23    2    1    2    0    0  0.60874869059E+02  0.40401734910E+03  0.54075707348E+03  0.68390380668E+03  0.91490088130E+02 0.  0.
         11    1    3    3    0    0 -0.21941196325E+02  0.12406574036E+03  0.18232252296E+03  0.22161955331E+03  0.00000000000E+00 0.  1.
        -11    1    3    3    0    0  0.82816065384E+02  0.27995160873E+03  0.35843455052E+03  0.46228425338E+03  0.00000000000E+00 0. -1.
         22    1    1    2    0    0 -0.60874869059E+02 -0.40401734910E+03 -0.11785163949E+04  0.12473318167E+04  0.00000000000E+00 0.  1.
<mgrwt>
<rscale>  0 0.18228917E+04</rscale>
<asrwt>0</asrwt>
<pdfrwt beam="1">  1        2 0.99498178E-01 0.18228917E+04</pdfrwt>
<pdfrwt beam="2">  1       -2 0.19761499E+00 0.18228917E+04</pdfrwt>
<totfact> 0.58748204E+00</totfact>
</mgrwt>
</event>
<event>
 6    1  0.1585031E-006  0.1778019E+04  0.7818608E-02  0.8718077E-01
         -1   -1    0    0    0  501 -0.00000000000E+00  0.00000000000E+00  0.32114895560E+03  0.32114895560E+03  0.00000000000E+00 0.  1.
          1   -1    0    0  501    0  0.00000000000E+00 -0.00000000000E+00 -0.24609709568E+04  0.24609709568E+04  0.00000000000E+00 0. -1.
         23    2    1    2    0    0 -0.50229526094E+03 -0.37436664102E+03 -0.20547947833E+04  0.21499169870E+04  0.86663364730E+02 0.  0.
         11    1    3    3    0    0 -0.26384469084E+03 -0.14359379674E+03 -0.10034044027E+04  0.10474032627E+04  0.00000000000E+00 0. -1.
        -11    1    3    3    0    0 -0.23845057010E+03 -0.23077284428E+03 -0.10513903806E+04  0.11025137244E+04  0.00000000000E+00 0.  1.
         22    1    1    2    0    0  0.50229526094E+03  0.37436664102E+03 -0.85027217974E+02  0.63220292539E+03  0.00000000000E+00 0.  1.
<mgrwt>
<rscale>  0 0.17780194E+04</rscale>
<asrwt>0</asrwt>
<pdfrwt beam="1">  1        1 0.37861090E+00 0.17780194E+04</pdfrwt>
<pdfrwt beam="2">  1       -1 0.49407534E-01 0.17780194E+04</pdfrwt>
<totfact> 0.56028644E+00</totfact>
</mgrwt>
</event>
<event>
 6    1  0.1585031E-006  0.1358695E+04  0.7818608E-02  0.8984272E-01
         -1   -1    0    0    0  501 -0.00000000000E+00  0.00000000000E+00  0.69659743934E+03  0.69659743934E+03  0.00000000000E+00 0.  1.
          1   -1    0    0  501    0  0.00000000000E+00 -0.00000000000E+00 -0.66252493935E+03  0.66252493935E+03  0.00000000000E+00 0. -1.
         23    2    1    2    0    0  0.29076595888E+03 -0.49225829104E+03  0.37901904058E+03  0.69140149104E+03  0.86703637512E+02 0.  0.
         13    1    3    3    0    0  0.15968829976E+02 -0.49527648502E+02  0.64053379963E+02  0.82527734621E+02  0.00000000000E+00 0.  1.
        -13    1    3    3    0    0  0.27479712890E+03 -0.44273064254E+03  0.31496566062E+03  0.60887375642E+03  0.00000000000E+00 0. -1.
         22    1    1    2    0    0 -0.29076595888E+03  0.49225829104E+03 -0.34494654059E+03  0.66772088765E+03  0.00000000000E+00 0. -1.
<mgrwt>
<rscale>  0 0.13586952E+04</rscale>
<asrwt>0</asrwt>
<pdfrwt beam="1">  1        1 0.10192691E+00 0.13586952E+04</pdfrwt>
<pdfrwt beam="2">  1       -1 0.10716884E+00 0.13586952E+04</pdfrwt>
<totfact> 0.23511360E+01</totfact>
</mgrwt>
</event>
<event>
 6    1  0.1585031E-006  0.1742144E+04  0.7818608E-02  0.8737687E-01
         -1   -1    0    0    0  501 -0.00000000000E+00  0.00000000000E+00  0.60101960467E+03  0.60101960467E+03  0.00000000000E+00 0.  1.
          1   -1    0    0  501    0  0.00000000000E+00 -0.00000000000E+00 -0.12624650896E+04  0.12624650896E+04  0.00000000000E+00 0. -1.
         23    2    1    2    0    0  0.25064079236E+03 -0.55018428861E-01 -0.12212922283E+04  0.12500931505E+04  0.91418642734E+02 0.  0.
         11    1    3    3    0    0  0.82390020857E+02 -0.42070168090E+02 -0.37812561719E+03  0.38927753205E+03  0.00000000000E+00 0. -1.
        -11    1    3    3    0    0  0.16825077151E+03  0.42015149661E+02 -0.84316661114E+03  0.86081561850E+03  0.00000000000E+00 0.  1.
         22    1    1    2    0    0 -0.25064079236E+03  0.55018428861E-01  0.55984674340E+03  0.61339154373E+03  0.00000000000E+00 0.  1.
<mgrwt>
<rscale>  0 0.17421438E+04</rscale>
<asrwt>0</asrwt>
<pdfrwt beam="1">  1        1 0.19422540E+00 0.17421438E+04</pdfrwt>
<pdfrwt beam="2">  1       -1 0.92464555E-01 0.17421438E+04</pdfrwt>
<totfact> 0.10383934E+01</totfact>
</mgrwt>
</event>
<event>
 6    1  0.1585031E-006  0.3010618E+04  0.7818608E-02  0.8240705E-01
          2   -1    0    0  501    0  0.00000000000E+00  0.00000000000E+00  0.13687860565E+04  0.13687860565E+04  0.00000000000E+00 0. -1.
         -2   -1    0    0    0  501 -0.00000000000E+00 -0.00000000000E+00 -0.16554483510E+04  0.16554483510E+04  0.00000000000E+00 0.  1.
         23    2    1    2    0    0 -0.52368259303E+03 -0.46419620449E+02 -0.15591626381E+04  0.16474063993E+04  0.81002919893E+02 0.  0.
         11    1    3    3    0    0 -0.30493234427E+03  0.94013398110E+01 -0.94798821637E+03  0.99586835383E+03  0.00000000000E+00 0.  1.
        -11    1    3    3    0    0 -0.21875024876E+03 -0.55820960260E+02 -0.61117442174E+03  0.65153804550E+03  0.00000000000E+00 0. -1.
         22    1    1    2    0    0  0.52368259303E+03  0.46419620449E+02  0.12725003436E+04  0.13768280081E+04  0.00000000000E+00 0. -1.
<mgrwt>
<rscale>  0 0.30106176E+04</rscale>
<asrwt>0</asrwt>
<pdfrwt beam="1">  1        2 0.21058247E+00 0.30106176E+04</pdfrwt>
<pdfrwt beam="2">  1       -2 0.25468436E+00 0.30106176E+04</pdfrwt>
<totfact> 0.77568895E-01</totfact>
</mgrwt>
</event>
<event>
 6    1  0.1585031E-006  0.4355390E+04  0.7818608E-02  0.7936455E-01
          1   -1    0    0  501    0  0.00000000000E+00  0.00000000000E+00  0.30992707216E+04  0.30992707216E+04  0.00000000000E+00 0. -1.
         -1   -1    0    0    0  501 -0.00000000000E+00 -0.00000000000E+00 -0.15301519561E+04  0.15301519561E+04  0.00000000000E+00 0.  1.
         23    2    1    2    0    0 -0.20152216735E+04  0.55007004044E+03  0.14357191218E+04  0.25362215627E+04  0.86226306276E+02 0.  0.
         11    1    3    3    0    0 -0.35319376595E+03  0.65005590723E+02  0.26105829595E+03  0.44398535675E+03  0.00000000000E+00 0.  1.
        -11    1    3    3    0    0 -0.16620279076E+04  0.48506444972E+03  0.11746608259E+04  0.20922362060E+04  0.00000000000E+00 0. -1.
         22    1    1    2    0    0  0.20152216735E+04 -0.55007004044E+03  0.13339964376E+03  0.20932011150E+04  0.00000000000E+00 0. -1.
<mgrwt>
<rscale>  0 0.43553898E+04</rscale>
<asrwt>0</asrwt>
<pdfrwt beam="1">  1        1 0.47681088E+00 0.43553898E+04</pdfrwt>
<pdfrwt beam="2">  1       -1 0.23540799E+00 0.43553898E+04</pdfrwt>
<totfact> 0.33377616E-02</totfact>
</mgrwt>
</event>
<event>
 6    1  0.1585031E-006  0.2710079E+04  0.7818608E-02  0.8331742E-01
         -1   -1    0    0    0  501 -0.00000000000E+00  0.00000000000E+00  0.12671571032E+04  0.12671571032E+04  0.00000000000E+00 0.  1.
          1   -1    0    0  501    0  0.00000000000E+00 -0.00000000000E+00 -0.14490166425E+04  0.14490166425E+04  0.00000000000E+00 0. -1.
         23    2    1    2    0    0 -0.74057495128E+03 -0.85869344150E+03 -0.83161651104E+03  0.14092729050E+04  0.93050601158E+02 0.  0.
         13    1    3    3    0    0 -0.16576499712E+03 -0.25253100878E+03 -0.20663524089E+03  0.36598916301E+03  0.00000000000E+00 0. -1.
        -13    1    3    3    0    0 -0.57480995416E+03 -0.60616243272E+03 -0.62498127014E+03  0.10432837420E+04  0.00000000000E+00 0.  1.
         22    1    1    2    0    0  0.74057495128E+03  0.85869344150E+03  0.64975697174E+03  0.13069008406E+04  0.00000000000E+00 0.  1.
<mgrwt>
<rscale>  0 0.27100788E+04</rscale>
<asrwt>0</asrwt>
<pdfrwt beam="1">  1        1 0.22292564E+00 0.27100788E+04</pdfrwt>
<pdfrwt beam="2">  1       -1 0.19494725E+00 0.27100788E+04</pdfrwt>
<totfact> 0.10104611E+00</totfact>
</mgrwt>
</event>
<event>
 6    1  0.1585031E-006  0.2333210E+04  0.7818608E-02  0.8464941E-01
          2   -1    0    0  501    0  0.00000000000E+00  0.00000000000E+00  0.65759770614E+03  0.65759770614E+03  0.00000000000E+00 0.  1.
         -2   -1    0    0    0  501 -0.00000000000E+00 -0.00000000000E+00 -0.20696049301E+04  0.20696049301E+04  0.00000000000E+00 0. -1.
         23    2    1    2    0    0  0.28480957205E+03  0.10237837268E+04 -0.14943157104E+03  0.10769460226E+04  0.90737697050E+02 0.  0.
         13    1    3    3    0    0  0.20190674747E+03  0.64970567187E+03 -0.13435715202E+03  0.69349523360E+03  0.00000000000E+00 0.  1.
        -13    1    3    3    0    0  0.82902824586E+02  0.37407805489E+03 -0.15074419015E+02  0.38345078900E+03  0.00000000000E+00 0. -1.
         22    1    1    2    0    0 -0.28480957205E+03 -0.10237837268E+04 -0.12625756529E+04  0.16502566137E+04  0.00000000000E+00 0. -1.
<mgrwt>
<rscale>  0 0.23332102E+04</rscale>
<asrwt>0</asrwt>
<pdfrwt beam="1">  1        2 0.10116888E+00 0.23332102E+04</pdfrwt>
<pdfrwt beam="2">  1       -2 0.31840077E+00 0.23332102E+04</pdfrwt>
<totfact> 0.98212158E-01</totfact>
</mgrwt>
</event>
<event>
 6    1  0.1585031E-006  0.1244796E+04  0.7818608E-02  0.9074526E-01
          1   -1    0    0  501    0  0.00000000000E+00  0.00000000000E+00  0.16927487438E+04  0.16927487438E+04  0.00000000000E+00 0. -1.
         -1   -1    0    0    0  501 -0.00000000000E+00 -0.00000000000E+00 -0.22884628334E+03  0.22884628334E+03  0.00000000000E+00 0.  1.
         23    2    1    2    0    0 -0.38695015222E+03  0.27802223238E+03  0.12542872926E+03  0.50084215943E+03  0.89909513054E+02 0.  0.
         13    1    3    3    0    0 -0.18419013009E+03  0.13011963656E+03  0.10581185548E+03  0.24910494295E+03  0.00000000000E+00 0. -1.
        -13    1    3    3    0    0 -0.20276002213E+03  0.14790259582E+03  0.19616873776E+02  0.25173721648E+03  0.00000000000E+00 0.  1.
         22    1    1    2    0    0  0.38695015222E+03 -0.27802223238E+03  0.13384737312E+04  0.14207528677E+04  0.00000000000E+00 0. -1.
<mgrwt>
<rscale>  0 0.12447960E+04</rscale>
<asrwt>0</asrwt>
<pdfrwt beam="1">  1        1 0.26042288E+00 0.12447960E+04</pdfrwt>
<pdfrwt beam="2">  1       -1 0.35207122E-01 0.12447960E+04</pdfrwt>
<totfact> 0.36522997E+01</totfact>
</mgrwt>
</event>
<event>
 6    1  0.1585031E-006  0.1429648E+04  0.7818608E-02  0.8932633E-01
          2   -1    0    0  501    0  0.00000000000E+00  0.00000000000E+00  0.14825088965E+04  0.14825088965E+04  0.00000000000E+00 0.  1.
         -2   -1    0    0    0  501 -0.00000000000E+00 -0.00000000000E+00 -0.34466791954E+03  0.34466791954E+03  0.00000000000E+00 0. -1.
         23    2    1    2    0    0 -0.52797759705E+03  0.45308084509E+03  0.37808097099E+03  0.79699340429E+03  0.90612751174E+02 0.  0.
         13    1    3    3    0    0 -0.45341157745E+03  0.42400338460E+03  0.32246234332E+03  0.69953047938E+03  0.00000000000E+00 0.  1.
        -13    1    3    3    0    0 -0.74566019600E+02  0.29077460485E+02  0.55618627669E+02  0.97462924905E+02  0.00000000000E+00 0. -1.
         22    1    1    2    0    0  0.52797759705E+03 -0.45308084509E+03  0.75976000598E+03  0.10301834118E+04  0.00000000000E+00 0.  1.
<mgrwt>
<rscale>  0 0.14296479E+04</rscale>
<asrwt>0</asrwt>
<pdfrwt beam="1">  1        2 0.22807829E+00 0.14296479E+04</pdfrwt>
<pdfrwt beam="2">  1       -2 0.53025835E-01 0.14296479E+04</pdfrwt>
<totfact> 0.42293022E+01</totfact>
</mgrwt>
</event>
<event>
 6    1  0.1585031E-006  0.5069961E+04  0.7818608E-02  0.7817805E-01
          2   -1    0    0  501    0  0.00000000000E+00  0.00000000000E+00  0.29281528582E+04  0.29281528582E+04  0.00000000000E+00 0. -1.
         -2   -1    0    0    0  501 -0.00000000000E+00 -0.00000000000E+00 -0.21946006405E+04  0.21946006405E+04  0.00000000000E+00 0.  1.
         23    2    1    2    0    0 -0.94537199277E+03 -0.14726557474E+04  0.22188558557E+04  0.28274169108E+04  0.92314268477E+02 0.  0.
         11    1    3    3    0    0 -0.48990827162E+03 -0.82856425172E+03  0.12666763604E+04  0.15909110082E+04  0.00000000000E+00 0. -1.
        -11    1    3    3    0    0 -0.45546372115E+03 -0.64409149566E+03  0.95217949526E+03  0.12365059026E+04  0.00000000000E+00 0.  1.
         22    1    1    2    0    0  0.94537199277E+03  0.14726557474E+04 -0.14853036380E+04  0.22953365879E+04  0.00000000000E+00 0.  1.
<mgrwt>
<rscale>  0 0.50699610E+04</rscale>
<asrwt>0</asrwt>
<pdfrwt beam="1">  1        2 0.45048506E+00 0.50699610E+04</pdfrwt>
<pdfrwt beam="2">  1       -2 0.33763087E+00 0.50699610E+04</pdfrwt>
<totfact> 0.25992203E-02</totfact>
</mgrwt>
</event>
<event>
 6    1  0.1585031E-006  0.1597522E+04  0.7818608E-02  0.8822072E-01
          1   -1    0    0  501    0  0.00000000000E+00  0.00000000000E+00  0.35673485223E+03  0.35673485223E+03  0.00000000000E+00 0. -1.
         -1   -1    0    0    0  501 -0.00000000000E+00 -0.00000000000E+00 -0.17884970221E+04  0.17884970221E+04  0.00000000000E+00 0.  1.
         23    2    1    2    0    0 -0.68896905984E+03 -0.25075315221E+03 -0.11293724540E+04  0.13521397933E+04  0.12346810118E+03 0.  0.
         13    1    3    3    0    0 -0.57531816472E+03 -0.24826292652E+03 -0.99811520990E+03  0.11784988093E+04  0.00000000000E+00 0. -1.
        -13    1    3    3    0    0 -0.11365089513E+03 -0.24902256821E+01 -0.13125724405E+03  0.17364098394E+03  0.00000000000E+00 0.  1.
         22    1    1    2    0    0  0.68896905984E+03  0.25075315221E+03 -0.30238971590E+03  0.79309208106E+03  0.00000000000E+00 0. -1.
<mgrwt>
<rscale>  0 0.15975221E+04</rscale>
<asrwt>0</asrwt>
<pdfrwt beam="1">  1        1 0.54882287E-01 0.15975221E+04</pdfrwt>
<pdfrwt beam="2">  1       -1 0.27515338E+00 0.15975221E+04</pdfrwt>
<totfact> 0.32103275E+00</totfact>
</mgrwt>
</event>
<event>
 6    1  0.1585031E-006  0.1335294E+04  0.7818608E-02  0.9002035E-01
          2   -1    0    0  501    0  0.00000000000E+00  0.00000000000E+00  0.24240537507E+04  0.24240537507E+04  0.00000000000E+00 0. -1.
         -2   -1    0    0    0  501 -0.00000000000E+00 -0.00000000000E+00 -0.18388735382E+03  0.18388735382E+03  0.00000000000E+00 0.  1.
         23    2    1    2    0    0 -0.13883379609E+03  0.51390534743E+03  0.19022915441E+04  0.19774389672E+04  0.90433517659E+02 0.  0.
         11    1    3    3    0    0  0.25642846983E+00  0.13962059883E+03  0.54841516587E+03  0.56590915484E+03  0.00000000000E+00 0. -1.
        -11    1    3    3    0    0 -0.13909022456E+03  0.37428474861E+03  0.13538763782E+04  0.14115298123E+04  0.00000000000E+00 0.  1.
         22    1    1    2    0    0  0.13883379609E+03 -0.51390534743E+03  0.33787485281E+03  0.63050213736E+03  0.00000000000E+00 0.  1.
<mgrwt>
<rscale>  0 0.13352945E+04</rscale>
<asrwt>0</asrwt>
<pdfrwt beam="1">  1        2 0.37293132E+00 0.13352945E+04</pdfrwt>
<pdfrwt beam="2">  1       -2 0.28290364E-01 0.13352945E+04</pdfrwt>
<totfact> 0.43222064E+01</totfact>
</mgrwt>
</event>
<event>
 6    1  0.1585031E-006  0.2864820E+04  0.7818608E-02  0.8283422E-01
         -1   -1    0    0    0  501 -0.00000000000E+00  0.00000000000E+00  0.14532589734E+04  0.14532589734E+04  0.00000000000E+00 0.  1.
          1   -1    0    0  501    0  0.00000000000E+00 -0.00000000000E+00 -0.14118603104E+04  0.14118603104E+04  0.00000000000E+00 0. -1.
         23    2    1    2    0    0 -0.58386152808E+03  0.10521872376E+04  0.79509139703E+03  0.14452442878E+04  0.92565947807E+02 0.  0.
         11    1    3    3    0    0 -0.32416655982E+03  0.57796688126E+03  0.49263497923E+03  0.82572325697E+03  0.00000000000E+00 0. -1.
        -11    1    3    3    0    0 -0.25969496826E+03  0.47422035635E+03  0.30245641780E+03  0.61952103079E+03  0.00000000000E+00 0.  1.
         22    1    1    2    0    0  0.58386152808E+03 -0.10521872376E+04 -0.75369273407E+03  0.14198749960E+04  0.00000000000E+00 0. -1.
<mgrwt>
<rscale>  0 0.28648202E+04</rscale>
<asrwt>0</asrwt>
<pdfrwt beam="1">  1        1 0.21720928E+00 0.28648202E+04</pdfrwt>
<pdfrwt beam="2">  1       -1 0.22357830E+00 0.28648202E+04</pdfrwt>
<totfact> 0.67581765E-01</totfact>
</mgrwt>
</event>
<event>
 6    1  0.1585031E-006  0.1444357E+04  0.7818608E-02  0.8922322E-01
          1   -1    0    0  501    0  0.00000000000E+00  0.00000000000E+00  0.13178083097E+04  0.13178083097E+04  0.00000000000E+00 0. -1.
         -1   -1    0    0    0  501 -0.00000000000E+00 -0.00000000000E+00 -0.39576453046E+03  0.39576453046E+03  0.00000000000E+00 0.  1.
         23    2    1    2    0    0 -0.18719422252E+02 -0.32639778447E+03  0.12229926316E+04  0.12692124659E+04  0.91122863227E+02 0.  0.
         11    1    3    3    0    0 -0.95660366818E+01 -0.21519795616E+03  0.62985821217E+03  0.66567487321E+03  0.00000000000E+00 0. -1.
        -11    1    3    3    0    0 -0.91533855700E+01 -0.11119982830E+03  0.59313441944E+03  0.60353759271E+03  0.00000000000E+00 0.  1.
         22    1    1    2    0    0  0.18719422252E+02  0.32639778447E+03 -0.30094885236E+03  0.44436037426E+03  0.00000000000E+00 0.  1.
<mgrwt>
<rscale>  0 0.14443570E+04</rscale>
<asrwt>0</asrwt>
<pdfrwt beam="1">  1        1 0.20273974E+00 0.14443570E+04</pdfrwt>
<pdfrwt beam="2">  1       -1 0.60886851E-01 0.14443570E+04</pdfrwt>
<totfact> 0.23349118E+01</totfact>
</mgrwt>
</event>
<event>
 6    1  0.1585031E-006  0.4670406E+04  0.7818608E-02  0.7881464E-01
         -1   -1    0    0    0  501 -0.00000000000E+00  0.00000000000E+00  0.13948577388E+04  0.13948577388E+04  0.00000000000E+00 0.  1.
          1   -1    0    0  501    0  0.00000000000E+00 -0.00000000000E+00 -0.39094840602E+04  0.39094840602E+04  0.00000000000E+00 0. -1.
         23    2    1    2    0    0  0.20046165631E+04 -0.11131017246E+04 -0.17548425770E+04  0.28888181803E+04  0.91186591319E+02 0.  0.
         11    1    3    3    0    0  0.51208005759E+03 -0.29152030134E+03 -0.50116256317E+03  0.77354636978E+03  0.00000000000E+00 0.  1.
        -11    1    3    3    0    0  0.14925365055E+04 -0.82158142326E+03 -0.12536800139E+04  0.21152718105E+04  0.00000000000E+00 0. -1.
         22    1    1    2    0    0 -0.20046165631E+04  0.11131017246E+04 -0.75978374435E+03  0.24155236187E+04  0.00000000000E+00 0.  1.
<mgrwt>
<rscale>  0 0.46704064E+04</rscale>
<asrwt>0</asrwt>
<pdfrwt beam="1">  1        1 0.60145908E+00 0.46704064E+04</pdfrwt>
<pdfrwt beam="2">  1       -1 0.21459350E+00 0.46704064E+04</pdfrwt>
<totfact> 0.10172441E-02</totfact>
</mgrwt>
</event>
<event>
 6    1  0.1585031E-006  0.4420637E+04  0.7818608E-02  0.7924680E-01
         -1   -1    0    0    0  501 -0.00000000000E+00  0.00000000000E+00  0.21600285679E+04  0.21600285679E+04  0.00000000000E+00 0.  1.
          1   -1    0    0  501    0  0.00000000000E+00 -0.00000000000E+00 -0.22617795053E+04  0.22617795053E+04  0.00000000000E+00 0. -1.
         23    2    1    2    0    0 -0.21155322985E+04  0.59487715051E+03  0.17723492088E+03  0.22065905128E+04  0.90960122198E+02 0.  0.
         11    1    3    3    0    0 -0.10446713427E+04  0.33803056682E+03  0.72565510780E+02  0.11003947617E+04  0.00000000000E+00 0.  1.
        -11    1    3    3    0    0 -0.10708609559E+04  0.25684658369E+03  0.10466941010E+03  0.11061957511E+04  0.00000000000E+00 0. -1.
         22    1    1    2    0    0  0.21155322985E+04 -0.59487715051E+03 -0.27898585829E+03  0.22152175603E+04  0.00000000000E+00 0. -1.
<mgrwt>
<rscale>  0 0.44206372E+04</rscale>
<asrwt>0</asrwt>
<pdfrwt beam="1">  1        1 0.34796608E+00 0.44206372E+04</pdfrwt>
<pdfrwt beam="2">  1       -1 0.33231209E+00 0.44206372E+04</pdfrwt>
<totfact> 0.30390762E-02</totfact>
</mgrwt>
</event>
<event>
 6    1  0.1585031E-006  0.4990228E+04  0.7818608E-02  0.7830016E-01
         -2   -1    0    0    0  501 -0.00000000000E+00  0.00000000000E+00  0.14802277173E+04  0.14802277173E+04  0.00000000000E+00 0.  1.
          2   -1    0    0  501    0  0.00000000000E+00 -0.00000000000E+00 -0.42058345280E+04  0.42058345280E+04  0.00000000000E+00 0. -1.
         23    2    1    2    0    0 -0.66195252972E+03 -0.15307267311E+04  0.75023229474E+03  0.18308368351E+04  0.88371622704E+02 0.  0.
         13    1    3    3    0    0 -0.24700039870E+03 -0.63727377653E+03  0.34540401062E+03  0.76578782555E+03  0.00000000000E+00 0.  1.
        -13    1    3    3    0    0 -0.41495213103E+03 -0.89345295456E+03  0.40482828412E+03  0.10650490095E+04  0.00000000000E+00 0. -1.
         22    1    1    2    0    0  0.66195252972E+03  0.15307267311E+04 -0.34758391055E+04  0.38552254103E+04  0.00000000000E+00 0. -1.
<mgrwt>
<rscale>  0 0.49902276E+04</rscale>
<asrwt>0</asrwt>
<pdfrwt beam="1">  1        2 0.64705145E+00 0.49902276E+04</pdfrwt>
<pdfrwt beam="2">  1       -2 0.22772735E+00 0.49902276E+04</pdfrwt>
<totfact> 0.14700272E-02</totfact>
</mgrwt>
</event>
<event>
 6    1  0.1585031E-006  0.2626427E+04  0.7818608E-02  0.8359280E-01
         -1   -1    0    0    0  501 -0.00000000000E+00  0.00000000000E+00  0.10110167356E+04  0.10110167356E+04  0.00000000000E+00 0.  1.
          1   -1    0    0  501    0  0.00000000000E+00 -0.00000000000E+00 -0.17057378721E+04  0.17057378721E+04  0.00000000000E+00 0. -1.
         23    2    1    2    0    0 -0.69213612649E+03  0.72266620129E+03  0.52940436749E+03  0.11356846834E+04  0.90619312215E+02 0.  0.
         11    1    3    3    0    0 -0.33008633617E+03  0.31337046755E+03  0.19596623587E+03  0.49554092148E+03  0.00000000000E+00 0.  1.
        -11    1    3    3    0    0 -0.36204979031E+03  0.40929573374E+03  0.33343813161E+03  0.64014376193E+03  0.00000000000E+00 0. -1.
         22    1    1    2    0    0  0.69213612649E+03 -0.72266620129E+03 -0.12241255040E+04  0.15810699243E+04  0.00000000000E+00 0. -1.
<mgrwt>
<rscale>  0 0.26264269E+04</rscale>
<asrwt>0</asrwt>
<pdfrwt beam="1">  1        1 0.26242121E+00 0.26264269E+04</pdfrwt>
<pdfrwt beam="2">  1       -1 0.15554104E+00 0.26264269E+04</pdfrwt>
<totfact> 0.13118681E+00</totfact>
</mgrwt>
</event>
<event>
 6    1  0.1585031E-006  0.1830224E+04  0.7818608E-02  0.8690390E-01
         -1   -1    0    0    0  501 -0.00000000000E+00  0.00000000000E+00  0.28564677439E+04  0.28564677439E+04  0.00000000000E+00 0.  1.
          1   -1    0    0  501    0  0.00000000000E+00 -0.00000000000E+00 -0.29316978514E+03  0.29316978514E+03  0.00000000000E+00 0. -1.
         23    2    1    2    0    0  0.37383734005E+03  0.65265084689E+02  0.27135117673E+04  0.27414977535E+04  0.93005016195E+02 0.  0.
         13    1    3    3    0    0  0.11808299809E+03 -0.15649945605E+02  0.10090910497E+04  0.10160970730E+04  0.00000000000E+00 0.  1.
        -13    1    3    3    0    0  0.25575434196E+03  0.80915030294E+02  0.17044207176E+04  0.17254006805E+04  0.00000000000E+00 0. -1.
         22    1    1    2    0    0 -0.37383734005E+03 -0.65265084689E+02 -0.15021380855E+03  0.40813977553E+03  0.00000000000E+00 0. -1.
<mgrwt>
<rscale>  0 0.18302241E+04</rscale>
<asrwt>0</asrwt>
<pdfrwt beam="1">  1        1 0.45103046E-01 0.18302241E+04</pdfrwt>
<pdfrwt beam="2">  1       -1 0.43945656E+00 0.18302241E+04</pdfrwt>
<totfact> 0.32610061E-01</totfact>
</mgrwt>
</event>
<event>
 6    1  0.1585031E-006  0.3852287E+04  0.7818608E-02  0.8035026E-01
         -2   -1    0    0    0  501 -0.00000000000E+00  0.00000000000E+00  0.10408774564E+04  0.10408774564E+04  0.00000000000E+00 0.  1.
          2   -1    0    0  501    0  0.00000000000E+00 -0.00000000000E+00 -0.35643288004E+04  0.35643288004E+04  0.00000000000E+00 0. -1.
         23    2    1    2    0    0  0.96942669633E+03  0.16607966493E+04 -0.11559351822E+04  0.22455168529E+04  0.90145223608E+02 0.  0.
         11    1    3    3    0    0  0.33129239778E+03  0.64274260678E+03 -0.45964742521E+03  0.85682464186E+03  0.00000000000E+00 0. -1.
        -11    1    3    3    0    0  0.63813429855E+03  0.10180540426E+04 -0.69628775701E+03  0.13886922111E+04  0.00000000000E+00 0.  1.
         22    1    1    2    0    0 -0.96942669633E+03 -0.16607966493E+04 -0.13675161617E+04  0.23596894038E+04  0.00000000000E+00 0.  1.
<mgrwt>
<rscale>  0 0.38522874E+04</rscale>
<asrwt>0</asrwt>
<pdfrwt beam="1">  1        2 0.54835828E+00 0.38522874E+04</pdfrwt>
<pdfrwt beam="2">  1       -2 0.16013499E+00 0.38522874E+04</pdfrwt>
<totfact> 0.14662263E-01</totfact>
</mgrwt>
</event>
<event>
 6    1  0.1585031E-006  0.3176119E+04  0.7818608E-02  0.8195153E-01
         -1   -1    0    0    0  501 -0.00000000000E+00  0.00000000000E+00  0.96976996352E+03  0.96976996352E+03  0.00000000000E+00 0.  1.
          1   -1    0    0  501    0  0.00000000000E+00 -0.00000000000E+00 -0.26005484325E+04  0.26005484325E+04  0.00000000000E+00 0. -1.
         23    2    1    2    0    0  0.71532416002E+03 -0.12324473063E+04 -0.16006581405E+04  0.21450036060E+04  0.91208388869E+02 0.  0.
         11    1    3    3    0    0  0.63662498382E+03 -0.10322499032E+04 -0.13550929973E+04  0.18185456453E+04  0.00000000000E+00 0. -1.
        -11    1    3    3    0    0  0.78699176202E+02 -0.20019740305E+03 -0.24556514319E+03  0.32645796065E+03  0.00000000000E+00 0.  1.
         22    1    1    2    0    0 -0.71532416002E+03  0.12324473063E+04 -0.30120328498E+02  0.14253147901E+04  0.00000000000E+00 0.  1.
<mgrwt>
<rscale>  0 0.31761195E+04</rscale>
<asrwt>0</asrwt>
<pdfrwt beam="1">  1        1 0.40008437E+00 0.31761195E+04</pdfrwt>
<pdfrwt beam="2">  1       -1 0.14919538E+00 0.31761195E+04</pdfrwt>
<totfact> 0.34198444E-01</totfact>
</mgrwt>
</event>
<event>
 6    1  0.1585031E-006  0.4904080E+04  0.7818608E-02  0.7843476E-01
          2   -1    0    0  501    0  0.00000000000E+00  0.00000000000E+00  0.22666658558E+04  0.22666658558E+04  0.00000000000E+00 0. -1.
         -2   -1    0    0    0  501 -0.00000000000E+00 -0.00000000000E+00 -0.26525749038E+04  0.26525749038E+04  0.00000000000E+00 0.  1.
         23    2    1    2    0    0 -0.20900267541E+04  0.11713372805E+04 -0.71238433841E+03  0.25012190532E+04  0.91446425061E+02 0.  0.
         11    1    3    3    0    0 -0.14467001228E+04  0.85858169588E+03 -0.50345794856E+03  0.17560107289E+04  0.00000000000E+00 0. -1.
        -11    1    3    3    0    0 -0.64332663126E+03  0.31275558465E+03 -0.20892638986E+03  0.74520832429E+03  0.00000000000E+00 0.  1.
         22    1    1    2    0    0  0.20900267541E+04 -0.11713372805E+04  0.32647529047E+03  0.24180217065E+04  0.00000000000E+00 0. -1.
<mgrwt>
<rscale>  0 0.49040803E+04</rscale>
<asrwt>0</asrwt>
<pdfrwt beam="1">  1        2 0.34871783E+00 0.49040803E+04</pdfrwt>
<pdfrwt beam="2">  1       -2 0.40808845E+00 0.49040803E+04</pdfrwt>
<totfact> 0.22837273E-02</totfact>
</mgrwt>
</event>
<event>
 6    1  0.1585031E-006  0.2639249E+04  0.7818608E-02  0.8354990E-01
         -2   -1    0    0    0  501 -0.00000000000E+00  0.00000000000E+00  0.41057689610E+03  0.41057689610E+03  0.00000000000E+00 0.  1.
          2   -1    0    0  501    0  0.00000000000E+00 -0.00000000000E+00 -0.42413707013E+04  0.42413707013E+04  0.00000000000E+00 0. -1.
         23    2    1    2    0    0  0.34665057236E+03 -0.11419445182E+04 -0.29037653950E+04  0.31407938741E+04  0.92351442911E+02 0.  0.
         13    1    3    3    0    0  0.31567305988E+03 -0.10912942920E+04 -0.27911787384E+04  0.30135114837E+04  0.00000000000E+00 0.  1.
        -13    1    3    3    0    0  0.30977512479E+02 -0.50650226206E+02 -0.11258665654E+03  0.12728239047E+03  0.00000000000E+00 0. -1.
         22    1    1    2    0    0 -0.34665057236E+03  0.11419445182E+04 -0.92702841019E+03  0.15111537232E+04  0.00000000000E+00 0.  1.
<mgrwt>
<rscale>  0 0.26392490E+04</rscale>
<asrwt>0</asrwt>
<pdfrwt beam="1">  1        2 0.65251860E+00 0.26392490E+04</pdfrwt>
<pdfrwt beam="2">  1       -2 0.63165673E-01 0.26392490E+04</pdfrwt>
<totfact> 0.43911990E-01</totfact>
</mgrwt>
</event>
<event>
 6    1  0.1585031E-006  0.2684309E+04  0.7818608E-02  0.8340114E-01
          2   -1    0    0  501    0  0.00000000000E+00  0.00000000000E+00  0.19935505681E+04  0.19935505681E+04  0.00000000000E+00 0. -1.
         -2   -1    0    0    0  501 -0.00000000000E+00 -0.00000000000E+00 -0.90360316878E+03  0.90360316878E+03  0.00000000000E+00 0.  1.
         23    2    1    2    0    0  0.54988470799E+03 -0.11752911878E+03 -0.76758907752E+03  0.95637346890E+03  0.96285690725E+02 0.  0.
         13    1    3    3    0    0  0.35054562987E+03 -0.56230221601E+02 -0.40942613377E+03  0.54191681599E+03  0.00000000000E+00 0.  1.
        -13    1    3    3    0    0  0.19933907812E+03 -0.61298897177E+02 -0.35816294374E+03  0.41445665290E+03  0.00000000000E+00 0. -1.
         22    1    1    2    0    0 -0.54988470799E+03  0.11752911878E+03  0.18575364769E+04  0.19407802680E+04  0.00000000000E+00 0. -1.
<mgrwt>
<rscale>  0 0.26843089E+04</rscale>
<asrwt>0</asrwt>
<pdfrwt beam="1">  1        2 0.30670009E+00 0.26843089E+04</pdfrwt>
<pdfrwt beam="2">  1       -2 0.13901587E+00 0.26843089E+04</pdfrwt>
<totfact> 0.21648237E+00</totfact>
</mgrwt>
</event>
<event>
 6    1  0.1585031E-006  0.2721382E+04  0.7818608E-02  0.8328100E-01
         -2   -1    0    0    0  501 -0.00000000000E+00  0.00000000000E+00  0.69946178229E+03  0.69946178229E+03  0.00000000000E+00 0.  1.
          2   -1    0    0  501    0  0.00000000000E+00 -0.00000000000E+00 -0.26470064491E+04  0.26470064491E+04  0.00000000000E+00 0. -1.
         23    2    1    2    0    0 -0.10871288443E+04 -0.23075011267E+03 -0.12666701240E+02  0.11151351141E+04  0.90945802336E+02 0.  0.
         13    1    3    3    0    0 -0.58559897708E+03 -0.13651923422E+03  0.36869999824E+02  0.60243095883E+03  0.00000000000E+00 0.  1.
        -13    1    3    3    0    0 -0.50152986717E+03 -0.94230878452E+02 -0.49536701064E+02  0.51270415531E+03  0.00000000000E+00 0. -1.
         22    1    1    2    0    0  0.10871288443E+04  0.23075011267E+03 -0.19348779656E+04  0.22313331173E+04  0.00000000000E+00 0. -1.
<mgrwt>
<rscale>  0 0.27213819E+04</rscale>
<asrwt>0</asrwt>
<pdfrwt beam="1">  1        2 0.40723176E+00 0.27213819E+04</pdfrwt>
<pdfrwt beam="2">  1       -2 0.10760951E+00 0.27213819E+04</pdfrwt>
<totfact> 0.17319539E+00</totfact>
</mgrwt>
</event>
<event>
 6    1  0.1585031E-006  0.9135576E+03  0.7818608E-02  0.9408791E-01
         -1   -1    0    0    0  501 -0.00000000000E+00  0.00000000000E+00  0.22387667517E+03  0.22387667517E+03  0.00000000000E+00 0.  1.
          1   -1    0    0  501    0  0.00000000000E+00 -0.00000000000E+00 -0.93197232741E+03  0.93197232741E+03  0.00000000000E+00 0. -1.
         23    2    1    2    0    0  0.25495920246E+02 -0.33447835934E+03  0.26231975464E+02  0.34853067650E+03  0.90882897771E+02 0.  0.
         11    1    3    3    0    0  0.26606341103E+02 -0.26967717858E+02 -0.91970104549E+01  0.38983845303E+02  0.00000000000E+00 0. -1.
        -11    1    3    3    0    0 -0.11104208570E+01 -0.30751064148E+03  0.35428985919E+02  0.30954683120E+03  0.00000000000E+00 0.  1.
         22    1    1    2    0    0 -0.25495920246E+02  0.33447835934E+03 -0.73432762770E+03  0.80731832608E+03  0.00000000000E+00 0. -1.
<mgrwt>
<rscale>  0 0.91355759E+03</rscale>
<asrwt>0</asrwt>
<pdfrwt beam="1">  1        1 0.14338036E+00 0.91355759E+03</pdfrwt>
<pdfrwt beam="2">  1       -1 0.34442565E-01 0.91355759E+03</pdfrwt>
<totfact> 0.13765384E+02</totfact>
</mgrwt>
</event>
<event>
 6    1  0.1585031E-006  0.6084514E+03  0.7818608E-02  0.9888026E-01
          1   -1    0    0  501    0  0.00000000000E+00  0.00000000000E+00  0.61420545454E+03  0.61420545454E+03  0.00000000000E+00 0. -1.
         -1   -1    0    0    0  501 -0.00000000000E+00 -0.00000000000E+00 -0.15068781153E+03  0.15068781153E+03  0.00000000000E+00 0.  1.
         23    2    1    2    0    0  0.46572355369E+02 -0.65081286381E+02  0.59708790447E+03  0.60918336637E+03  0.90475687770E+02 0.  0.
         11    1    3    3    0    0 -0.12148331061E+02 -0.39141857022E+02  0.10160634400E+03  0.10956055886E+03  0.00000000000E+00 0.  1.
        -11    1    3    3    0    0  0.58720686429E+02 -0.25939429360E+02  0.49548156047E+03  0.49962280750E+03  0.00000000000E+00 0. -1.
         22    1    1    2    0    0 -0.46572355369E+02  0.65081286381E+02 -0.13357026145E+03  0.15570989970E+03  0.00000000000E+00 0.  1.
<mgrwt>
<rscale>  0 0.60845140E+03</rscale>
<asrwt>0</asrwt>
<pdfrwt beam="1">  1        1 0.94493145E-01 0.60845140E+03</pdfrwt>
<pdfrwt beam="2">  1       -1 0.23182741E-01 0.60845140E+03</pdfrwt>
<totfact> 0.53281695E+02</totfact>
</mgrwt>
</event>
<event>
 6    1  0.1585031E-006  0.2582161E+04  0.7818608E-02  0.8374286E-01
          2   -1    0    0  501    0  0.00000000000E+00  0.00000000000E+00  0.10727641195E+04  0.10727641195E+04  0.00000000000E+00 0. -1.
         -2   -1    0    0    0  501 -0.00000000000E+00 -0.00000000000E+00 -0.15538263958E+04  0.15538263958E+04  0.00000000000E+00 0.  1.
         23    2    1    2    0    0  0.65779578201E+03  0.10483931330E+04  0.12689799656E+03  0.12476637059E+04  0.93478176439E+02 0.  0.
         11    1    3    3    0    0  0.60385070552E+03  0.92252176115E+03  0.13306906373E+03  0.11105806815E+04  0.00000000000E+00 0.  1.
        -11    1    3    3    0    0  0.53945076488E+02  0.12587137184E+03 -0.61710671730E+01  0.13708302447E+03  0.00000000000E+00 0. -1.
         22    1    1    2    0    0 -0.65779578201E+03 -0.10483931330E+04 -0.60796027288E+03  0.13789268093E+04  0.00000000000E+00 0.  1.
<mgrwt>
<rscale>  0 0.25821613E+04</rscale>
<asrwt>0</asrwt>
<pdfrwt beam="1">  1        2 0.16504063E+00 0.25821613E+04</pdfrwt>
<pdfrwt beam="2">  1       -2 0.23905021E+00 0.25821613E+04</pdfrwt>
<totfact> 0.15065534E+00</totfact>
</mgrwt>
</event>
<event>
 6    1  0.1585031E-006  0.1842674E+04  0.7818608E-02  0.8683929E-01
          3   -1    0    0  501    0  0.00000000000E+00  0.00000000000E+00  0.13759685462E+04  0.13759685462E+04  0.00000000000E+00 0. -1.
         -3   -1    0    0    0  501 -0.00000000000E+00 -0.00000000000E+00 -0.61691975335E+03  0.61691975335E+03  0.00000000000E+00 0.  1.
         23    2    1    2    0    0 -0.82442976211E+03  0.28703792130E+03  0.69322792996E+02  0.88032497291E+03  0.89951138930E+02 0.  0.
         11    1    3    3    0    0 -0.42348269617E+03  0.19486054136E+03  0.39903323035E+02  0.46786803666E+03  0.00000000000E+00 0.  1.
        -11    1    3    3    0    0 -0.40094706593E+03  0.92177379948E+02  0.29419469961E+02  0.41245693626E+03  0.00000000000E+00 0. -1.
         22    1    1    2    0    0  0.82442976211E+03 -0.28703792130E+03  0.68972599990E+03  0.11125633267E+04  0.00000000000E+00 0.  1.
<mgrwt>
<rscale>  0 0.18426743E+04</rscale>
<asrwt>0</asrwt>
<pdfrwt beam="1">  1        3 0.21168747E+00 0.18426743E+04</pdfrwt>
<pdfrwt beam="2">  1       -3 0.94910731E-01 0.18426743E+04</pdfrwt>
<totfact> 0.30255609E-01</totfact>
</mgrwt>
</event>
<event>
 6    1  0.1585031E-006  0.2575710E+04  0.7818608E-02  0.8376499E-01
         -2   -1    0    0    0  501 -0.00000000000E+00  0.00000000000E+00  0.10400386512E+04  0.10400386512E+04  0.00000000000E+00 0. -1.
          2   -1    0    0  501    0  0.00000000000E+00 -0.00000000000E+00 -0.15947204819E+04  0.15947204819E+04  0.00000000000E+00 0.  1.
         23    2    1    2    0    0 -0.46079926841E+03 -0.11763045210E+04 -0.30659336730E+02  0.12670501486E+04  0.91911871775E+02 0.  0.
         13    1    3    3    0    0 -0.35705087651E+03 -0.79641829520E+03 -0.28029288760E+02  0.87324284730E+03  0.00000000000E+00 0. -1.
        -13    1    3    3    0    0 -0.10374839190E+03 -0.37988622585E+03 -0.26300479698E+01  0.39380730131E+03  0.00000000000E+00 0.  1.
         22    1    1    2    0    0  0.46079926841E+03  0.11763045210E+04 -0.52402249399E+03  0.13677089845E+04  0.00000000000E+00 0.  1.
<mgrwt>
<rscale>  0 0.25757103E+04</rscale>
<asrwt>0</asrwt>
<pdfrwt beam="1">  1        2 0.24534161E+00 0.25757103E+04</pdfrwt>
<pdfrwt beam="2">  1       -2 0.16000595E+00 0.25757103E+04</pdfrwt>
<totfact> 0.25069578E+00</totfact>
</mgrwt>
</event>
<event>
 6    1  0.1819752E-006  0.4323929E+04  0.7818608E-02  0.7942208E-01
          1   -1    0    0  501    0  0.00000000000E+00  0.00000000000E+00  0.30388832475E+04  0.30388832475E+04  0.00000000000E+00 0. -1.
         -1   -1    0    0    0  501 -0.00000000000E+00 -0.00000000000E+00 -0.15380944796E+04  0.15380944796E+04  0.00000000000E+00 0.  1.
         23    2    1    2    0    0 -0.17241352503E+04  0.83166120957E+03  0.18130791834E+04  0.26374344735E+04  0.67095068599E+02 0.  0.
         13    1    3    3    0    0 -0.46088838556E+03  0.24003796695E+03  0.45775228286E+03  0.69251244176E+03  0.00000000000E+00 0. -1.
        -13    1    3    3    0    0 -0.12632468647E+04  0.59162324261E+03  0.13553269006E+04  0.19449220318E+04  0.00000000000E+00 0.  1.
         22    1    1    2    0    0  0.17241352503E+04 -0.83166120957E+03 -0.31229041556E+03  0.19395432535E+04  0.00000000000E+00 0.  1.
<mgrwt>
<rscale>  0 0.43239286E+04</rscale>
<asrwt>0</asrwt>
<pdfrwt beam="1">  1        1 0.46752050E+00 0.43239286E+04</pdfrwt>
<pdfrwt beam="2">  1       -1 0.23662992E+00 0.43239286E+04</pdfrwt>
<totfact> 0.36395384E-02</totfact>
</mgrwt>
</event>
<event>
 6    1  0.1585031E-006  0.2717760E+04  0.7818608E-02  0.8329265E-01
          2   -1    0    0  501    0  0.00000000000E+00  0.00000000000E+00  0.62802006723E+03  0.62802006723E+03  0.00000000000E+00 0. -1.
         -2   -1    0    0    0  501 -0.00000000000E+00 -0.00000000000E+00 -0.29402800688E+04  0.29402800688E+04  0.00000000000E+00 0.  1.
         23    2    1    2    0    0  0.29266322508E+02  0.84713007823E+03  0.23438822847E+03  0.88429136282E+03  0.92452612921E+02 0.  0.
         13    1    3    3    0    0 -0.48474326294E+01  0.43255704151E+03  0.16278674193E+03  0.46219975672E+03  0.00000000000E+00 0. -1.
        -13    1    3    3    0    0  0.34113755138E+02  0.41457303672E+03  0.71601486536E+02  0.42209160610E+03  0.00000000000E+00 0.  1.
         22    1    1    2    0    0 -0.29266322508E+02 -0.84713007823E+03 -0.25466482300E+04  0.26840087732E+04  0.00000000000E+00 0.  1.
<mgrwt>
<rscale>  0 0.27177600E+04</rscale>
<asrwt>0</asrwt>
<pdfrwt beam="1">  1        2 0.96618473E-01 0.27177600E+04</pdfrwt>
<pdfrwt beam="2">  1       -2 0.45235077E+00 0.27177600E+04</pdfrwt>
<totfact> 0.13742856E-01</totfact>
</mgrwt>
</event>
<event>
 6    1  0.1585031E-006  0.2668104E+04  0.7818608E-02  0.8345429E-01
         -1   -1    0    0    0  501 -0.00000000000E+00  0.00000000000E+00  0.99250544514E+03  0.99250544514E+03  0.00000000000E+00 0.  1.
          1   -1    0    0  501    0  0.00000000000E+00 -0.00000000000E+00 -0.17931339425E+04  0.17931339425E+04  0.00000000000E+00 0. -1.
         23    2    1    2    0    0 -0.20856348338E+03 -0.94166140863E+03 -0.13606962401E+04  0.16703363743E+04  0.91128537734E+02 0.  0.
         13    1    3    3    0    0 -0.18576691156E+03 -0.68406944268E+03 -0.10349048549E+04  0.12543876620E+04  0.00000000000E+00 0. -1.
        -13    1    3    3    0    0 -0.22796571822E+02 -0.25759196595E+03 -0.32579138520E+03  0.41594871231E+03  0.00000000000E+00 0.  1.
         22    1    1    2    0    0  0.20856348338E+03  0.94166140863E+03  0.56006774274E+03  0.11153030133E+04  0.00000000000E+00 0.  1.
<mgrwt>
<rscale>  0 0.26681043E+04</rscale>
<asrwt>0</asrwt>
<pdfrwt beam="1">  1        1 0.27586676E+00 0.26681043E+04</pdfrwt>
<pdfrwt beam="2">  1       -1 0.15269315E+00 0.26681043E+04</pdfrwt>
<totfact> 0.11987172E+00</totfact>
</mgrwt>
</event>
<event>
 6    1  0.1585031E-006  0.1907439E+04  0.7818608E-02  0.8651162E-01
          1   -1    0    0  501    0  0.00000000000E+00  0.00000000000E+00  0.10190885097E+04  0.10190885097E+04  0.00000000000E+00 0. -1.
         -1   -1    0    0    0  501 -0.00000000000E+00 -0.00000000000E+00 -0.89254376726E+03  0.89254376726E+03  0.00000000000E+00 0.  1.
         23    2    1    2    0    0 -0.46537459625E+03  0.67948506927E+03 -0.41376828635E+03  0.92663905702E+03  0.95824177558E+02 0.  0.
         13    1    3    3    0    0 -0.97112231939E+02  0.17445305010E+03 -0.14236015946E+03  0.24521636830E+03  0.00000000000E+00 0.  1.
        -13    1    3    3    0    0 -0.36826236431E+03  0.50503201917E+03 -0.27140812689E+03  0.68142268872E+03  0.00000000000E+00 0. -1.
         22    1    1    2    0    0  0.46537459625E+03 -0.67948506927E+03  0.54031302875E+03  0.98499321989E+03  0.00000000000E+00 0. -1.
<mgrwt>
<rscale>  0 0.19074392E+04</rscale>
<asrwt>0</asrwt>
<pdfrwt beam="1">  1        1 0.15678285E+00 0.19074392E+04</pdfrwt>
<pdfrwt beam="2">  1       -1 0.13731443E+00 0.19074392E+04</pdfrwt>
<totfact> 0.60280414E+00</totfact>
</mgrwt>
</event>
<event>
 6    1  0.1585031E-006  0.2457770E+04  0.7818608E-02  0.8418186E-01
          2   -1    0    0  501    0  0.00000000000E+00  0.00000000000E+00  0.73350109039E+03  0.73350109039E+03  0.00000000000E+00 0. -1.
         -2   -1    0    0    0  501 -0.00000000000E+00 -0.00000000000E+00 -0.20588363445E+04  0.20588363445E+04  0.00000000000E+00 0.  1.
         23    2    1    2    0    0  0.44488272635E+03 -0.26325698668E+02  0.63546352399E+03  0.78153025099E+03  0.91443754789E+02 0.  0.
         13    1    3    3    0    0  0.38551543729E+03 -0.51395540052E+02  0.52078592401E+03  0.64998587106E+03  0.00000000000E+00 0.  1.
        -13    1    3    3    0    0  0.59367289057E+02  0.25069841384E+02  0.11467759997E+03  0.13154437993E+03  0.00000000000E+00 0. -1.
         22    1    1    2    0    0 -0.44488272635E+03  0.26325698668E+02 -0.19607987781E+04  0.20108071839E+04  0.00000000000E+00 0.  1.
<mgrwt>
<rscale>  0 0.24577703E+04</rscale>
<asrwt>0</asrwt>
<pdfrwt beam="1">  1        2 0.11284632E+00 0.24577703E+04</pdfrwt>
<pdfrwt beam="2">  1       -2 0.31674405E+00 0.24577703E+04</pdfrwt>
<totfact> 0.86657945E-01</totfact>
</mgrwt>
</event>
<event>
 6    1  0.1585031E-006  0.1649309E+04  0.7818608E-02  0.8790816E-01
         -2   -1    0    0    0  501 -0.00000000000E+00  0.00000000000E+00  0.19473732988E+03  0.19473732988E+03  0.00000000000E+00 0.  1.
          2   -1    0    0  501    0  0.00000000000E+00 -0.00000000000E+00 -0.34921644959E+04  0.34921644959E+04  0.00000000000E+00 0. -1.
         23    2    1    2    0    0 -0.43409444237E+03 -0.69454569116E+03 -0.18118215556E+04  0.19904774297E+04  0.92039918960E+02 0.  0.
         13    1    3    3    0    0 -0.21756925158E+03 -0.29248966298E+03 -0.72059729176E+03  0.80755621419E+03  0.00000000000E+00 0.  1.
        -13    1    3    3    0    0 -0.21652519079E+03 -0.40205602818E+03 -0.10912242638E+04  0.11829212155E+04  0.00000000000E+00 0. -1.
         22    1    1    2    0    0  0.43409444237E+03  0.69454569116E+03 -0.14856056104E+04  0.16964243961E+04  0.00000000000E+00 0.  1.
<mgrwt>
<rscale>  0 0.16493087E+04</rscale>
<asrwt>0</asrwt>
<pdfrwt beam="1">  1        2 0.53725600E+00 0.16493087E+04</pdfrwt>
<pdfrwt beam="2">  1       -2 0.29959593E-01 0.16493087E+04</pdfrwt>
<totfact> 0.81733854E+00</totfact>
</mgrwt>
</event>
<event>
 6    1  0.1585031E-006  0.4509053E+04  0.7818608E-02  0.7909054E-01
          2   -1    0    0  501    0  0.00000000000E+00  0.00000000000E+00  0.44865721586E+04  0.44865721586E+04  0.00000000000E+00 0. -1.
         -2   -1    0    0    0  501 -0.00000000000E+00 -0.00000000000E+00 -0.11329115780E+04  0.11329115780E+04  0.00000000000E+00 0.  1.
         23    2    1    2    0    0  0.33554860011E+03 -0.22284320681E+04  0.16740592153E+04  0.28088675957E+04  0.93597909993E+02 0.  0.
         13    1    3    3    0    0  0.21105000325E+03 -0.11800226033E+04  0.84889888458E+03  0.14688855519E+04  0.00000000000E+00 0. -1.
        -13    1    3    3    0    0  0.12449859686E+03 -0.10484094647E+04  0.82516033074E+03  0.13399820438E+04  0.00000000000E+00 0.  1.
         22    1    1    2    0    0 -0.33554860011E+03  0.22284320681E+04  0.16796013653E+04  0.28106161409E+04  0.00000000000E+00 0.  1.
<mgrwt>
<rscale>  0 0.45090529E+04</rscale>
<asrwt>0</asrwt>
<pdfrwt beam="1">  1        2 0.69024186E+00 0.45090529E+04</pdfrwt>
<pdfrwt beam="2">  1       -2 0.17429409E+00 0.45090529E+04</pdfrwt>
<totfact> 0.18926113E-02</totfact>
</mgrwt>
</event>
<event>
 6    1  0.1585031E-006  0.2906055E+04  0.7818608E-02  0.8271078E-01
         -1   -1    0    0    0  501 -0.00000000000E+00  0.00000000000E+00  0.20640845290E+04  0.20640845290E+04  0.00000000000E+00 0.  1.
          1   -1    0    0  501    0  0.00000000000E+00 -0.00000000000E+00 -0.10228694781E+04  0.10228694781E+04  0.00000000000E+00 0. -1.
         23    2    1    2    0    0  0.13036695181E+04  0.36715315911E+03 -0.33659923959E+02  0.13578756785E+04  0.91311078652E+02 0.  0.
         11    1    3    3    0    0  0.22704902550E+03  0.73601743463E+02 -0.39561054015E+02  0.24193708607E+03  0.00000000000E+00 0.  1.
        -11    1    3    3    0    0  0.10766204926E+04  0.29355141565E+03  0.59011300558E+01  0.11159385925E+04  0.00000000000E+00 0. -1.
         22    1    1    2    0    0 -0.13036695181E+04 -0.36715315911E+03  0.10748749748E+04  0.17290783285E+04  0.00000000000E+00 0.  1.
<mgrwt>
<rscale>  0 0.29060551E+04</rscale>
<asrwt>0</asrwt>
<pdfrwt beam="1">  1        1 0.15736454E+00 0.29060551E+04</pdfrwt>
<pdfrwt beam="2">  1       -1 0.31755146E+00 0.29060551E+04</pdfrwt>
<totfact> 0.31632775E-01</totfact>
</mgrwt>
</event>
<event>
 6    1  0.1585031E-006  0.2871575E+04  0.7818608E-02  0.8281385E-01
         -2   -1    0    0    0  501 -0.00000000000E+00  0.00000000000E+00  0.82341222314E+03  0.82341222314E+03  0.00000000000E+00 0.  1.
          2   -1    0    0  501    0  0.00000000000E+00 -0.00000000000E+00 -0.25035885751E+04  0.25035885751E+04  0.00000000000E+00 0. -1.
         23    2    1    2    0    0 -0.13232347611E+04  0.49306523801E+03 -0.11321740862E+04  0.18122829878E+04  0.92129823672E+02 0.  0.
         11    1    3    3    0    0 -0.95360674834E+03  0.39228832223E+03 -0.79720296943E+03  0.13033758217E+04  0.00000000000E+00 0.  1.
        -11    1    3    3    0    0 -0.36962801277E+03  0.10077691577E+03 -0.33497111676E+03  0.50890716604E+03  0.00000000000E+00 0. -1.
         22    1    1    2    0    0  0.13232347611E+04 -0.49306523801E+03 -0.54800226573E+03  0.15147178104E+04  0.00000000000E+00 0.  1.
<mgrwt>
<rscale>  0 0.28715748E+04</rscale>
<asrwt>0</asrwt>
<pdfrwt beam="1">  1        2 0.38516747E+00 0.28715748E+04</pdfrwt>
<pdfrwt beam="2">  1       -2 0.12667881E+00 0.28715748E+04</pdfrwt>
<totfact> 0.13892672E+00</totfact>
</mgrwt>
</event>
<event>
 6    1  0.1585031E-006  0.1367345E+04  0.7818608E-02  0.8977801E-01
          1   -1    0    0  501    0  0.00000000000E+00  0.00000000000E+00  0.12271552008E+04  0.12271552008E+04  0.00000000000E+00 0. -1.
         -1   -1    0    0    0  501 -0.00000000000E+00 -0.00000000000E+00 -0.38088758651E+03  0.38088758651E+03  0.00000000000E+00 0.  1.
         23    2    1    2    0    0  0.42158266549E+03  0.47850894784E+03  0.70434801844E+03  0.95470984869E+03  0.93069904351E+02 0.  0.
         11    1    3    3    0    0  0.27020773381E+03  0.23677840826E+03  0.39318626834E+03  0.53260836985E+03  0.00000000000E+00 0. -1.
        -11    1    3    3    0    0  0.15137493168E+03  0.24173053958E+03  0.31116175010E+03  0.42210147883E+03  0.00000000000E+00 0.  1.
         22    1    1    2    0    0 -0.42158266549E+03 -0.47850894784E+03  0.14191959585E+03  0.65333293862E+03  0.00000000000E+00 0.  1.
<mgrwt>
<rscale>  0 0.13673451E+04</rscale>
<asrwt>0</asrwt>
<pdfrwt beam="1">  1        1 0.18879311E+00 0.13673451E+04</pdfrwt>
<pdfrwt beam="2">  1       -1 0.58598091E-01 0.13673451E+04</pdfrwt>
<totfact> 0.29451100E+01</totfact>
</mgrwt>
</event>
<event>
 6    1  0.1585031E-006  0.3207805E+04  0.7818608E-02  0.8186759E-01
         -1   -1    0    0    0  501 -0.00000000000E+00  0.00000000000E+00  0.56529531650E+03  0.56529531650E+03  0.00000000000E+00 0.  1.
          1   -1    0    0  501    0  0.00000000000E+00 -0.00000000000E+00 -0.45507248679E+04  0.45507248679E+04  0.00000000000E+00 0. -1.
         23    2    1    2    0    0 -0.15094395519E+04 -0.35130801400E+03 -0.13430864818E+04  0.20527209860E+04  0.89202395355E+02 0.  0.
         13    1    3    3    0    0 -0.60157925144E+03 -0.14691764541E+03 -0.59417290188E+03  0.85820966414E+03  0.00000000000E+00 0.  1.
        -13    1    3    3    0    0 -0.90786030041E+03 -0.20439036859E+03 -0.74891357987E+03  0.11945113218E+04  0.00000000000E+00 0. -1.
         22    1    1    2    0    0  0.15094395519E+04  0.35130801400E+03 -0.26423430696E+04  0.30632991984E+04  0.00000000000E+00 0. -1.
<mgrwt>
<rscale>  0 0.32078051E+04</rscale>
<asrwt>0</asrwt>
<pdfrwt beam="1">  1        1 0.70011153E+00 0.32078051E+04</pdfrwt>
<pdfrwt beam="2">  1       -1 0.86968509E-01 0.32078051E+04</pdfrwt>
<totfact> 0.31008989E-02</totfact>
</mgrwt>
</event>
<event>
 6    1  0.1585031E-006  0.2348918E+04  0.7818608E-02  0.8458879E-01
          1   -1    0    0  501    0  0.00000000000E+00  0.00000000000E+00  0.72028375253E+03  0.72028375253E+03  0.00000000000E+00 0. -1.
         -1   -1    0    0    0  501 -0.00000000000E+00 -0.00000000000E+00 -0.19150154507E+04  0.19150154507E+04  0.00000000000E+00 0.  1.
         23    2    1    2    0    0 -0.79978946066E+03  0.85468067443E+03 -0.51738236998E+03  0.12829145135E+04  0.89682192294E+02 0.  0.
         11    1    3    3    0    0 -0.25917076289E+03  0.26448814612E+03 -0.20882164490E+03  0.42512344461E+03  0.00000000000E+00 0.  1.
        -11    1    3    3    0    0 -0.54061869776E+03  0.59019252831E+03 -0.30856072508E+03  0.85779106892E+03  0.00000000000E+00 0. -1.
         22    1    1    2    0    0  0.79978946066E+03 -0.85468067443E+03 -0.67734932822E+03  0.13523846897E+04  0.00000000000E+00 0.  1.
<mgrwt>
<rscale>  0 0.23489185E+04</rscale>
<asrwt>0</asrwt>
<pdfrwt beam="1">  1        1 0.11081289E+00 0.23489185E+04</pdfrwt>
<pdfrwt beam="2">  1       -1 0.29461776E+00 0.23489185E+04</pdfrwt>
<totfact> 0.84016824E-01</totfact>
</mgrwt>
</event>
<event>
 6    1  0.1585031E-006  0.2768389E+04  0.7818608E-02  0.8313150E-01
         -2   -1    0    0    0  501 -0.00000000000E+00  0.00000000000E+00  0.10649092245E+04  0.10649092245E+04  0.00000000000E+00 0.  1.
          2   -1    0    0  501    0  0.00000000000E+00 -0.00000000000E+00 -0.17992090097E+04  0.17992090097E+04  0.00000000000E+00 0. -1.
         23    2    1    2    0    0 -0.44944034992E+03 -0.71722361235E+03  0.76342416845E+03  0.11437742629E+04  0.94851279154E+02 0.  0.
         11    1    3    3    0    0 -0.20566786912E+03 -0.24447392754E+03  0.27119315406E+03  0.41906145188E+03  0.00000000000E+00 0. -1.
        -11    1    3    3    0    0 -0.24377248080E+03 -0.47274968481E+03  0.49223101439E+03  0.72471281099E+03  0.00000000000E+00 0.  1.
         22    1    1    2    0    0  0.44944034992E+03  0.71722361235E+03 -0.14977239536E+04  0.17203439713E+04  0.00000000000E+00 0. -1.
<mgrwt>
<rscale>  0 0.27683889E+04</rscale>
<asrwt>0</asrwt>
<pdfrwt beam="1">  1        2 0.27680139E+00 0.27683889E+04</pdfrwt>
<pdfrwt beam="2">  1       -2 0.16383219E+00 0.27683889E+04</pdfrwt>
<totfact> 0.17792942E+00</totfact>
</mgrwt>
</event>
<event>
 6    1  0.1585031E-006  0.6041489E+03  0.7818608E-02  0.9896836E-01
         -1   -1    0    0    0  501 -0.00000000000E+00  0.00000000000E+00  0.11153653858E+03  0.11153653858E+03  0.00000000000E+00 0.  1.
          1   -1    0    0  501    0  0.00000000000E+00 -0.00000000000E+00 -0.81810830193E+03  0.81810830193E+03  0.00000000000E+00 0. -1.
         23    2    1    2    0    0  0.22201187007E+03 -0.12836570362E+03 -0.13587750727E+03  0.30397802964E+03  0.90404210079E+02 0.  0.
         11    1    3    3    0    0  0.12366606349E+03 -0.79627225640E+02 -0.27316929047E+02  0.14959948173E+03  0.00000000000E+00 0.  1.
        -11    1    3    3    0    0  0.98345806587E+02 -0.48738477977E+02 -0.10856057823E+03  0.15437854791E+03  0.00000000000E+00 0. -1.
         22    1    1    2    0    0 -0.22201187007E+03  0.12836570362E+03 -0.57069425607E+03  0.62566681087E+03  0.00000000000E+00 0. -1.
<mgrwt>
<rscale>  0 0.60414888E+03</rscale>
<asrwt>0</asrwt>
<pdfrwt beam="1">  1        1 0.12586282E+00 0.60414888E+03</pdfrwt>
<pdfrwt beam="2">  1       -1 0.17159468E-01 0.60414888E+03</pdfrwt>
<totfact> 0.56903449E+02</totfact>
</mgrwt>
</event>
<event>
 6    1  0.1585031E-006  0.2278695E+04  0.7818608E-02  0.8486369E-01
         -1   -1    0    0    0  501 -0.00000000000E+00  0.00000000000E+00  0.89793747230E+03  0.89793747230E+03  0.00000000000E+00 0.  1.
          1   -1    0    0  501    0  0.00000000000E+00 -0.00000000000E+00 -0.14456602470E+04  0.14456602470E+04  0.00000000000E+00 0. -1.
         23    2    1    2    0    0 -0.14129653820E+03  0.19964361589E+03  0.86841902445E+03  0.90648955344E+03  0.88030809371E+02 0.  0.
         13    1    3    3    0    0 -0.50828155581E+02  0.64139776825E+02  0.16166760305E+03  0.18120106580E+03  0.00000000000E+00 0.  1.
        -13    1    3    3    0    0 -0.90468382614E+02  0.13550383907E+03  0.70675142140E+03  0.72528848764E+03  0.00000000000E+00 0. -1.
         22    1    1    2    0    0  0.14129653820E+03 -0.19964361589E+03 -0.14161417992E+04  0.14371081659E+04  0.00000000000E+00 0. -1.
<mgrwt>
<rscale>  0 0.22786948E+04</rscale>
<asrwt>0</asrwt>
<pdfrwt beam="1">  1        1 0.22240927E+00 0.22786948E+04</pdfrwt>
<pdfrwt beam="2">  1       -1 0.13814423E+00 0.22786948E+04</pdfrwt>
<totfact> 0.28052086E+00</totfact>
</mgrwt>
</event>
<event>
 6    1  0.1585031E-006  0.1399399E+04  0.7818608E-02  0.8954254E-01
          2   -1    0    0  501    0  0.00000000000E+00  0.00000000000E+00  0.91116032363E+03  0.91116032363E+03  0.00000000000E+00 0. -1.
         -2   -1    0    0    0  501 -0.00000000000E+00 -0.00000000000E+00 -0.53731404062E+03  0.53731404062E+03  0.00000000000E+00 0.  1.
         23    2    1    2    0    0  0.34126344221E+03 -0.36088274657E+03  0.69362804331E+03  0.85774814343E+03  0.88965843650E+02 0.  0.
         11    1    3    3    0    0  0.10384324946E+03 -0.55575912935E+02  0.15662765880E+03  0.19597021727E+03  0.00000000000E+00 0.  1.
        -11    1    3    3    0    0  0.23742019275E+03 -0.30530683363E+03  0.53700038451E+03  0.66177792616E+03  0.00000000000E+00 0. -1.
         22    1    1    2    0    0 -0.34126344221E+03  0.36088274657E+03 -0.31978176029E+03  0.59072622083E+03  0.00000000000E+00 0.  1.
<mgrwt>
<rscale>  0 0.13993988E+04</rscale>
<asrwt>0</asrwt>
<pdfrwt beam="1">  1        2 0.14017851E+00 0.13993988E+04</pdfrwt>
<pdfrwt beam="2">  1       -2 0.82663698E-01 0.13993988E+04</pdfrwt>
<totfact> 0.36017723E+01</totfact>
</mgrwt>
</event>
<event>
 6    1  0.1585031E-006  0.1133943E+04  0.7818608E-02  0.9172726E-01
          1   -1    0    0  501    0  0.00000000000E+00  0.00000000000E+00  0.89199792015E+03  0.89199792015E+03  0.00000000000E+00 0. -1.
         -1   -1    0    0    0  501 -0.00000000000E+00 -0.00000000000E+00 -0.36037798303E+03  0.36037798303E+03  0.00000000000E+00 0.  1.
         23    2    1    2    0    0 -0.82165391167E+02 -0.33628507656E+03  0.75823189393E+03  0.83862261534E+03  0.92376846472E+02 0.  0.
         11    1    3    3    0    0 -0.63914584290E+02 -0.97967419225E+02  0.20618927614E+03  0.23705844619E+03  0.00000000000E+00 0. -1.
        -11    1    3    3    0    0 -0.18250806877E+02 -0.23831765734E+03  0.55204261779E+03  0.60156416915E+03  0.00000000000E+00 0.  1.
         22    1    1    2    0    0  0.82165391167E+02  0.33628507656E+03 -0.22661195681E+03  0.41375328783E+03  0.00000000000E+00 0.  1.
<mgrwt>
<rscale>  0 0.11339425E+04</rscale>
<asrwt>0</asrwt>
<pdfrwt beam="1">  1        1 0.13723045E+00 0.11339425E+04</pdfrwt>
<pdfrwt beam="2">  1       -1 0.55442767E-01 0.11339425E+04</pdfrwt>
<totfact> 0.60414278E+01</totfact>
</mgrwt>
</event>
<event>
 6    1  0.1585031E-006  0.2707947E+04  0.7818608E-02  0.8332431E-01
         -2   -1    0    0    0  501 -0.00000000000E+00  0.00000000000E+00  0.73577668541E+03  0.73577668541E+03  0.00000000000E+00 0.  1.
          2   -1    0    0  501    0  0.00000000000E+00 -0.00000000000E+00 -0.24915761689E+04  0.24915761689E+04  0.00000000000E+00 0. -1.
         23    2    1    2    0    0  0.90892178972E+03 -0.38319615608E+03 -0.19816231088E+04  0.22154366406E+04  0.91385170344E+02 0.  0.
         13    1    3    3    0    0  0.52448062142E+03 -0.23397955960E+03 -0.12493868419E+04  0.13750613940E+04  0.00000000000E+00 0.  1.
        -13    1    3    3    0    0  0.38444116830E+03 -0.14921659648E+03 -0.73223626688E+03  0.84037524659E+03  0.00000000000E+00 0. -1.
         22    1    1    2    0    0 -0.90892178972E+03  0.38319615608E+03  0.22582362528E+03  0.10119162137E+04  0.00000000000E+00 0.  1.
<mgrwt>
<rscale>  0 0.27079466E+04</rscale>
<asrwt>0</asrwt>
<pdfrwt beam="1">  1        2 0.38331941E+00 0.27079466E+04</pdfrwt>
<pdfrwt beam="2">  1       -2 0.11319641E+00 0.27079466E+04</pdfrwt>
<totfact> 0.18910872E+00</totfact>
</mgrwt>
</event>
<event>
 6    1  0.1585031E-006  0.2024461E+04  0.7818608E-02  0.8595269E-01
         -2   -1    0    0    0  501 -0.00000000000E+00  0.00000000000E+00  0.10043244175E+04  0.10043244175E+04  0.00000000000E+00 0.  1.
          2   -1    0    0  501    0  0.00000000000E+00 -0.00000000000E+00 -0.10201991292E+04  0.10201991292E+04  0.00000000000E+00 0. -1.
         23    2    1    2    0    0 -0.51083866681E+03 -0.80908456511E+03  0.31581207010E+03  0.10118093233E+04  0.91906833771E+02 0.  0.
         13    1    3    3    0    0 -0.11543838360E+03 -0.21862412240E+03  0.11934162636E+03  0.27452677663E+03  0.00000000000E+00 0. -1.
        -13    1    3    3    0    0 -0.39540028321E+03 -0.59046044271E+03  0.19647044374E+03  0.73728254667E+03  0.00000000000E+00 0.  1.
         22    1    1    2    0    0  0.51083866681E+03  0.80908456511E+03 -0.33168678179E+03  0.10127142234E+04  0.00000000000E+00 0. -1.
<mgrwt>
<rscale>  0 0.20244613E+04</rscale>
<asrwt>0</asrwt>
<pdfrwt beam="1">  1        2 0.15695371E+00 0.20244613E+04</pdfrwt>
<pdfrwt beam="2">  1       -2 0.15451145E+00 0.20244613E+04</pdfrwt>
<totfact> 0.62755865E+00</totfact>
</mgrwt>
</event>
<event>
 6    1  0.1585031E-006  0.1790977E+04  0.7818608E-02  0.8711113E-01
          2   -1    0    0  501    0  0.00000000000E+00  0.00000000000E+00  0.56673666925E+03  0.56673666925E+03  0.00000000000E+00 0. -1.
         -2   -1    0    0    0  501 -0.00000000000E+00 -0.00000000000E+00 -0.14149415864E+04  0.14149415864E+04  0.00000000000E+00 0.  1.
         23    2    1    2    0    0  0.86621651804E+03  0.20551515362E+03 -0.34388846460E+03  0.95849566257E+03  0.88809484803E+02 0.  0.
         13    1    3    3    0    0  0.23927180761E+03  0.36783156594E+02 -0.57116936628E+02  0.24872945739E+03  0.00000000000E+00 0. -1.
        -13    1    3    3    0    0  0.62694471043E+03  0.16873199703E+03 -0.28677152797E+03  0.70976620518E+03  0.00000000000E+00 0.  1.
         22    1    1    2    0    0 -0.86621651804E+03 -0.20551515362E+03 -0.50431645255E+03  0.10231825931E+04  0.00000000000E+00 0.  1.
<mgrwt>
<rscale>  0 0.17909766E+04</rscale>
<asrwt>0</asrwt>
<pdfrwt beam="1">  1        2 0.87190257E-01 0.17909766E+04</pdfrwt>
<pdfrwt beam="2">  1       -2 0.21768332E+00 0.17909766E+04</pdfrwt>
<totfact> 0.51273849E+00</totfact>
</mgrwt>
</event>
<event>
 6    1  0.1585031E-006  0.2927653E+04  0.7818608E-02  0.8264697E-01
         -2   -1    0    0    0  501 -0.00000000000E+00  0.00000000000E+00  0.16098122287E+04  0.16098122287E+04  0.00000000000E+00 0.  1.
          2   -1    0    0  501    0  0.00000000000E+00 -0.00000000000E+00 -0.13310793732E+04  0.13310793732E+04  0.00000000000E+00 0. -1.
         23    2    1    2    0    0  0.22507809757E+02 -0.53586530702E+03 -0.12270739657E+04  0.13424197031E+04  0.93391184419E+02 0.  0.
         11    1    3    3    0    0  0.42859647407E+02 -0.11091626488E+03 -0.25969629803E+03  0.28562481405E+03  0.00000000000E+00 0. -1.
        -11    1    3    3    0    0 -0.20351837650E+02 -0.42494904214E+03 -0.96737766765E+03  0.10567948891E+04  0.00000000000E+00 0.  1.
         22    1    1    2    0    0 -0.22507809757E+02  0.53586530702E+03  0.15058068211E+04  0.15984718988E+04  0.00000000000E+00 0.  1.
<mgrwt>
<rscale>  0 0.29276529E+04</rscale>
<asrwt>0</asrwt>
<pdfrwt beam="1">  1        2 0.20478144E+00 0.29276529E+04</pdfrwt>
<pdfrwt beam="2">  1       -2 0.24766342E+00 0.29276529E+04</pdfrwt>
<totfact> 0.90704935E-01</totfact>
</mgrwt>
</event>
<event>
 6    1  0.1585031E-006  0.1550849E+04  0.7818608E-02  0.8851325E-01
          1   -1    0    0  501    0  0.00000000000E+00  0.00000000000E+00  0.89852478495E+03  0.89852478495E+03  0.00000000000E+00 0. -1.
         -1   -1    0    0    0  501 -0.00000000000E+00 -0.00000000000E+00 -0.66918967491E+03  0.66918967491E+03  0.00000000000E+00 0.  1.
         23    2    1    2    0    0  0.46549445388E+03  0.61512165141E+03  0.67951598948E+02  0.77961270864E+03  0.90104511759E+02 0.  0.
         13    1    3    3    0    0  0.25613818806E+02  0.50987038836E+02  0.26877294203E+02  0.63072456641E+02  0.00000000000E+00 0. -1.
        -13    1    3    3    0    0  0.43988063507E+03  0.56413461258E+03  0.41074304745E+02  0.71654025200E+03  0.00000000000E+00 0.  1.
         22    1    1    2    0    0 -0.46549445388E+03 -0.61512165141E+03  0.16138351108E+03  0.78810175122E+03  0.00000000000E+00 0.  1.
<mgrwt>
<rscale>  0 0.15508495E+04</rscale>
<asrwt>0</asrwt>
<pdfrwt beam="1">  1        1 0.13823458E+00 0.15508495E+04</pdfrwt>
<pdfrwt beam="2">  1       -1 0.10295226E+00 0.15508495E+04</pdfrwt>
<totfact> 0.15672397E+01</totfact>
</mgrwt>
</event>
<event>
 6    1  0.1585031E-006  0.2109994E+04  0.7818608E-02  0.8556854E-01
         -2   -1    0    0    0  501 -0.00000000000E+00  0.00000000000E+00  0.36013304431E+03  0.36013304431E+03  0.00000000000E+00 0.  1.
          2   -1    0    0  501    0  0.00000000000E+00 -0.00000000000E+00 -0.30905769596E+04  0.30905769596E+04  0.00000000000E+00 0. -1.
         23    2    1    2    0    0  0.52498927200E+03  0.67066218510E+03 -0.23803968011E+04  0.25298764226E+04  0.92651394672E+02 0.  0.
         11    1    3    3    0    0  0.86822949703E+02  0.13468037303E+03 -0.55271383896E+03  0.57547338362E+03  0.00000000000E+00 0.  1.
        -11    1    3    3    0    0  0.43816632230E+03  0.53598181207E+03 -0.18276829621E+04  0.19544030390E+04  0.00000000000E+00 0. -1.
         22    1    1    2    0    0 -0.52498927200E+03 -0.67066218510E+03 -0.35004711419E+03  0.92083358127E+03  0.00000000000E+00 0.  1.
<mgrwt>
<rscale>  0 0.21099942E+04</rscale>
<asrwt>0</asrwt>
<pdfrwt beam="1">  1        2 0.47547337E+00 0.21099942E+04</pdfrwt>
<pdfrwt beam="2">  1       -2 0.55405085E-01 0.21099942E+04</pdfrwt>
<totfact> 0.43110170E+00</totfact>
</mgrwt>
</event>
<event>
 6    1  0.1585031E-006  0.2910167E+04  0.7818608E-02  0.8269859E-01
         -1   -1    0    0    0  501 -0.00000000000E+00  0.00000000000E+00  0.67914211218E+03  0.67914211218E+03  0.00000000000E+00 0.  1.
          1   -1    0    0  501    0  0.00000000000E+00 -0.00000000000E+00 -0.31175633572E+04  0.31175633572E+04  0.00000000000E+00 0. -1.
         23    2    1    2    0    0 -0.14000663380E+04  0.35342253116E+03 -0.10020752247E+04  0.17599965735E+04  0.91323308351E+02 0.  0.
         13    1    3    3    0    0 -0.26837320363E+03  0.57051954475E+02 -0.23326496878E+03  0.36012726583E+03  0.00000000000E+00 0. -1.
        -13    1    3    3    0    0 -0.11316931344E+04  0.29637057668E+03 -0.76881025592E+03  0.13998693077E+04  0.00000000000E+00 0.  1.
         22    1    1    2    0    0  0.14000663380E+04 -0.35342253116E+03 -0.14363460203E+04  0.20367088958E+04  0.00000000000E+00 0. -1.
<mgrwt>
<rscale>  0 0.29101674E+04</rscale>
<asrwt>0</asrwt>
<pdfrwt beam="1">  1        1 0.47962513E+00 0.29101674E+04</pdfrwt>
<pdfrwt beam="2">  1       -1 0.10448340E+00 0.29101674E+04</pdfrwt>
<totfact> 0.36146931E-01</totfact>
</mgrwt>
</event>
<event>
 6    1  0.1585031E-006  0.3957802E+04  0.7818608E-02  0.8013114E-01
          2   -1    0    0  501    0  0.00000000000E+00  0.00000000000E+00  0.17699983171E+04  0.17699983171E+04  0.00000000000E+00 0. -1.
         -2   -1    0    0    0  501 -0.00000000000E+00 -0.00000000000E+00 -0.22124587425E+04  0.22124587425E+04  0.00000000000E+00 0.  1.
         23    2    1    2    0    0  0.17433148857E+04  0.64185454303E+02  0.71635074645E+03  0.18881529042E+04  0.93254675638E+02 0.  0.
         13    1    3    3    0    0  0.16725758289E+04  0.73871615022E+02  0.70146241208E+03  0.18152180129E+04  0.00000000000E+00 0. -1.
        -13    1    3    3    0    0  0.70739056786E+02 -0.96861607189E+01  0.14888334371E+02  0.72934891271E+02  0.00000000000E+00 0.  1.
         22    1    1    2    0    0 -0.17433148857E+04 -0.64185454303E+02 -0.11588111719E+04  0.20943041554E+04  0.00000000000E+00 0.  1.
<mgrwt>
<rscale>  0 0.39578015E+04</rscale>
<asrwt>0</asrwt>
<pdfrwt beam="1">  1        2 0.27230743E+00 0.39578015E+04</pdfrwt>
<pdfrwt beam="2">  1       -2 0.34037827E+00 0.39578015E+04</pdfrwt>
<totfact> 0.12689729E-01</totfact>
</mgrwt>
</event>
<event>
 6    1  0.1585031E-006  0.3474556E+04  0.7818608E-02  0.8119846E-01
          2   -1    0    0  501    0  0.00000000000E+00  0.00000000000E+00  0.99832131567E+03  0.99832131567E+03  0.00000000000E+00 0. -1.
         -2   -1    0    0    0  501 -0.00000000000E+00 -0.00000000000E+00 -0.30232107062E+04  0.30232107062E+04  0.00000000000E+00 0.  1.
         23    2    1    2    0    0  0.80751169792E+03 -0.15042531329E+04 -0.13778721402E+04  0.21957489153E+04  0.89045124689E+02 0.  0.
         13    1    3    3    0    0  0.43236277956E+03 -0.77908241232E+03 -0.77378455424E+03  0.11801057218E+04  0.00000000000E+00 0. -1.
        -13    1    3    3    0    0  0.37514891836E+03 -0.72517072055E+03 -0.60408758591E+03  0.10156431934E+04  0.00000000000E+00 0.  1.
         22    1    1    2    0    0 -0.80751169792E+03  0.15042531329E+04 -0.64701725033E+03  0.18257831066E+04  0.00000000000E+00 0. -1.
<mgrwt>
<rscale>  0 0.34745565E+04</rscale>
<asrwt>0</asrwt>
<pdfrwt beam="1">  1        2 0.15358790E+00 0.34745565E+04</pdfrwt>
<pdfrwt beam="2">  1       -2 0.46510934E+00 0.34745565E+04</pdfrwt>
<totfact> 0.57319594E-02</totfact>
</mgrwt>
</event>
<event>
 6    1  0.1585031E-006  0.2446486E+04  0.7818608E-02  0.8422302E-01
          1   -1    0    0  501    0  0.00000000000E+00  0.00000000000E+00  0.16817143093E+04  0.16817143093E+04  0.00000000000E+00 0. -1.
         -1   -1    0    0    0  501 -0.00000000000E+00 -0.00000000000E+00 -0.88976049397E+03  0.88976049397E+03  0.00000000000E+00 0.  1.
         23    2    1    2    0    0  0.91892330831E+03  0.70795871170E+03 -0.58332587653E+01  0.11636076932E+04  0.91231862732E+02 0.  0.
         13    1    3    3    0    0  0.73552596022E+03  0.52172158065E+03  0.88788460564E+01  0.90181521376E+03  0.00000000000E+00 0. -1.
        -13    1    3    3    0    0  0.18339734809E+03  0.18623713105E+03 -0.14712104822E+02  0.26179247945E+03  0.00000000000E+00 0.  1.
         22    1    1    2    0    0 -0.91892330831E+03 -0.70795871170E+03  0.79778707412E+03  0.14078671101E+04  0.00000000000E+00 0. -1.
<mgrwt>
<rscale>  0 0.24464856E+04</rscale>
<asrwt>0</asrwt>
<pdfrwt beam="1">  1        1 0.25872528E+00 0.24464856E+04</pdfrwt>
<pdfrwt beam="2">  1       -1 0.13688623E+00 0.24464856E+04</pdfrwt>
<totfact> 0.19457949E+00</totfact>
</mgrwt>
</event>
<event>
 6    1  0.1585031E-006  0.2190025E+04  0.7818608E-02  0.8522591E-01
         -2   -1    0    0    0  501 -0.00000000000E+00  0.00000000000E+00  0.54016170715E+03  0.54016170715E+03  0.00000000000E+00 0.  1.
          2   -1    0    0  501    0  0.00000000000E+00 -0.00000000000E+00 -0.22198022590E+04  0.22198022590E+04  0.00000000000E+00 0. -1.
         23    2    1    2    0    0 -0.62742038368E+03  0.74586350826E+03 -0.14649019073E+04  0.17619251912E+04  0.92054715021E+02 0.  0.
         13    1    3    3    0    0 -0.38030347278E+03  0.39057148428E+03 -0.77530823006E+03  0.94777616943E+03  0.00000000000E+00 0.  1.
        -13    1    3    3    0    0 -0.24711691091E+03  0.35529202398E+03 -0.68959367728E+03  0.81414902181E+03  0.00000000000E+00 0. -1.
         22    1    1    2    0    0  0.62742038368E+03 -0.74586350826E+03 -0.21473864454E+03  0.99803877494E+03  0.00000000000E+00 0. -1.
<mgrwt>
<rscale>  0 0.21900248E+04</rscale>
<asrwt>0</asrwt>
<pdfrwt beam="1">  1        2 0.34150803E+00 0.21900248E+04</pdfrwt>
<pdfrwt beam="2">  1       -2 0.83101802E-01 0.21900248E+04</pdfrwt>
<totfact> 0.58391003E+00</totfact>
</mgrwt>
</event>
<event>
 6    1  0.1585031E-006  0.7029531E+03  0.7818608E-02  0.9712195E-01
         -2   -1    0    0    0  501 -0.00000000000E+00  0.00000000000E+00  0.33911087859E+03  0.33911087859E+03  0.00000000000E+00 0.  1.
          2   -1    0    0  501    0  0.00000000000E+00 -0.00000000000E+00 -0.36429311920E+03  0.36429311920E+03  0.00000000000E+00 0. -1.
         23    2    1    2    0    0 -0.18886283137E+03 -0.10584475985E+03 -0.28234412769E+03  0.36724255081E+03  0.90975834295E+02 0.  0.
         11    1    3    3    0    0 -0.76445986356E+02 -0.39043737014E+01 -0.13797924549E+03  0.15778943294E+03  0.00000000000E+00 0. -1.
        -11    1    3    3    0    0 -0.11241684502E+03 -0.10194038615E+03 -0.14436488220E+03  0.20945311787E+03  0.00000000000E+00 0.  1.
         22    1    1    2    0    0  0.18886283137E+03  0.10584475985E+03  0.25716188708E+03  0.33616144697E+03  0.00000000000E+00 0.  1.
<mgrwt>
<rscale>  0 0.70295308E+03</rscale>
<asrwt>0</asrwt>
<pdfrwt beam="1">  1        2 0.56045095E-01 0.70295308E+03</pdfrwt>
<pdfrwt beam="2">  1       -2 0.52170905E-01 0.70295308E+03</pdfrwt>
<totfact> 0.30927726E+02</totfact>
</mgrwt>
</event>
<event>
 6    1  0.1585031E-006  0.3570294E+04  0.7818608E-02  0.8097330E-01
          1   -1    0    0  501    0  0.00000000000E+00  0.00000000000E+00  0.23088828288E+04  0.23088828288E+04  0.00000000000E+00 0. -1.
         -1   -1    0    0    0  501 -0.00000000000E+00 -0.00000000000E+00 -0.13802128770E+04  0.13802128770E+04  0.00000000000E+00 0.  1.
         23    2    1    2    0    0 -0.12476268497E+04  0.11869871083E+04 -0.16127542794E+02  0.17248774243E+04  0.97112717546E+02 0.  0.
         13    1    3    3    0    0 -0.70841653335E+03  0.73705146327E+03 -0.23293363275E+02  0.10225660981E+04  0.00000000000E+00 0.  1.
        -13    1    3    3    0    0 -0.53921031639E+03  0.44993564502E+03  0.71658204815E+01  0.70231132622E+03  0.00000000000E+00 0. -1.
         22    1    1    2    0    0  0.12476268497E+04 -0.11869871083E+04  0.94479749458E+03  0.19642182815E+04  0.00000000000E+00 0. -1.
<mgrwt>
<rscale>  0 0.35702940E+04</rscale>
<asrwt>0</asrwt>
<pdfrwt beam="1">  1        1 0.35521274E+00 0.35702940E+04</pdfrwt>
<pdfrwt beam="2">  1       -1 0.21234044E+00 0.35702940E+04</pdfrwt>
<totfact> 0.18448897E-01</totfact>
</mgrwt>
</event>
<event>
 6    1  0.1585031E-006  0.7357800E+03  0.7818608E-02  0.9657927E-01
         -2   -1    0    0    0  501 -0.00000000000E+00  0.00000000000E+00  0.25834824293E+03  0.25834824293E+03  0.00000000000E+00 0.  1.
          2   -1    0    0  501    0  0.00000000000E+00 -0.00000000000E+00 -0.52387833183E+03  0.52387833183E+03  0.00000000000E+00 0. -1.
         23    2    1    2    0    0  0.24320357304E+03  0.78043292943E+02 -0.40780742932E+03  0.48985425201E+03  0.91714531537E+02 0.  0.
         13    1    3    3    0    0  0.13746732919E+03  0.24558136488E+02 -0.14365748939E+03  0.20034431092E+03  0.00000000000E+00 0.  1.
        -13    1    3    3    0    0  0.10573624385E+03  0.53485156456E+02 -0.26414993993E+03  0.28950994109E+03  0.00000000000E+00 0. -1.
         22    1    1    2    0    0 -0.24320357304E+03 -0.78043292943E+02  0.14227734042E+03  0.29237232274E+03  0.00000000000E+00 0.  1.
<mgrwt>
<rscale>  0 0.73577998E+03</rscale>
<asrwt>0</asrwt>
<pdfrwt beam="1">  1        2 0.80596665E-01 0.73577998E+03</pdfrwt>
<pdfrwt beam="2">  1       -2 0.39745884E-01 0.73577998E+03</pdfrwt>
<totfact> 0.35177790E+02</totfact>
</mgrwt>
</event>
<event>
 6    1  0.1585031E-006  0.3021670E+04  0.7818608E-02  0.8237570E-01
         -1   -1    0    0    0  501 -0.00000000000E+00  0.00000000000E+00  0.20035235495E+04  0.20035235495E+04  0.00000000000E+00 0.  1.
          1   -1    0    0  501    0  0.00000000000E+00 -0.00000000000E+00 -0.11393041231E+04  0.11393041231E+04  0.00000000000E+00 0. -1.
         23    2    1    2    0    0  0.70839928698E+03  0.11164795481E+04 -0.32628257414E+03  0.13635999906E+04  0.67738356780E+02 0.  0.
         11    1    3    3    0    0  0.34404405885E+03  0.48420356897E+03 -0.15978368913E+03  0.61510181104E+03  0.00000000000E+00 0. -1.
        -11    1    3    3    0    0  0.36435522813E+03  0.63227597915E+03 -0.16649888501E+03  0.74849817954E+03  0.00000000000E+00 0.  1.
         22    1    1    2    0    0 -0.70839928698E+03 -0.11164795481E+04  0.11905020005E+04  0.17792276820E+04  0.00000000000E+00 0.  1.
<mgrwt>
<rscale>  0 0.30216702E+04</rscale>
<asrwt>0</asrwt>
<pdfrwt beam="1">  1        1 0.17527756E+00 0.30216702E+04</pdfrwt>
<pdfrwt beam="2">  1       -1 0.30823439E+00 0.30216702E+04</pdfrwt>
<totfact> 0.29381620E-01</totfact>
</mgrwt>
</event>
<event>
 6    1  0.1585031E-006  0.1673601E+04  0.7818608E-02  0.8776565E-01
          2   -1    0    0  501    0  0.00000000000E+00  0.00000000000E+00  0.10159342734E+04  0.10159342734E+04  0.00000000000E+00 0. -1.
         -2   -1    0    0    0  501 -0.00000000000E+00 -0.00000000000E+00 -0.68925260352E+03  0.68925260352E+03  0.00000000000E+00 0.  1.
         23    2    1    2    0    0  0.60832515651E+03 -0.49538225599E+03  0.45125822701E+03  0.91084287446E+03  0.10265319730E+03 0.  0.
         11    1    3    3    0    0  0.17138424195E+03 -0.16921062066E+03  0.91711543956E+02  0.25771263032E+03  0.00000000000E+00 0.  1.
        -11    1    3    3    0    0  0.43694091456E+03 -0.32617163533E+03  0.35954668305E+03  0.65313024414E+03  0.00000000000E+00 0. -1.
         22    1    1    2    0    0 -0.60832515651E+03  0.49538225599E+03 -0.12457655717E+03  0.79434400242E+03  0.00000000000E+00 0. -1.
<mgrwt>
<rscale>  0 0.16736013E+04</rscale>
<asrwt>0</asrwt>
<pdfrwt beam="1">  1        2 0.15629758E+00 0.16736013E+04</pdfrwt>
<pdfrwt beam="2">  1       -2 0.10603886E+00 0.16736013E+04</pdfrwt>
<totfact> 0.16843439E+01</totfact>
</mgrwt>
</event>
<event>
 6    1  0.1585031E-006  0.1959550E+04  0.7818608E-02  0.8625769E-01
          1   -1    0    0  501    0  0.00000000000E+00  0.00000000000E+00  0.43386790930E+03  0.43386790930E+03  0.00000000000E+00 0. -1.
         -1   -1    0    0    0  501 -0.00000000000E+00 -0.00000000000E+00 -0.22125601790E+04  0.22125601790E+04  0.00000000000E+00 0.  1.
         23    2    1    2    0    0  0.24982060139E+03  0.81239178958E+03 -0.23802914551E+03  0.88687314033E+03  0.86575633164E+02 0.  0.
         13    1    3    3    0    0  0.12219962086E+03  0.26702686692E+03 -0.97387031292E+02  0.30938702115E+03  0.00000000000E+00 0. -1.
        -13    1    3    3    0    0  0.12762098053E+03  0.54536492267E+03 -0.14064211421E+03  0.57748611917E+03  0.00000000000E+00 0.  1.
         22    1    1    2    0    0 -0.24982060139E+03 -0.81239178958E+03 -0.15406631242E+04  0.17595549480E+04  0.00000000000E+00 0.  1.
<mgrwt>
<rscale>  0 0.19595498E+04</rscale>
<asrwt>0</asrwt>
<pdfrwt beam="1">  1        1 0.66748909E-01 0.19595498E+04</pdfrwt>
<pdfrwt beam="2">  1       -1 0.34039387E+00 0.19595498E+04</pdfrwt>
<totfact> 0.90210707E-01</totfact>
</mgrwt>
</event>
<event>
 6    1  0.1585031E-006  0.2429848E+04  0.7818608E-02  0.8428413E-01
          1   -1    0    0  501    0  0.00000000000E+00  0.00000000000E+00  0.10945638509E+04  0.10945638509E+04  0.00000000000E+00 0. -1.
         -1   -1    0    0    0  501 -0.00000000000E+00 -0.00000000000E+00 -0.13485194724E+04  0.13485194724E+04  0.00000000000E+00 0.  1.
         23    2    1    2    0    0 -0.16479394226E+03 -0.39729031354E+03 -0.12676994919E+04  0.13418688704E+04  0.92484738574E+02 0.  0.
         11    1    3    3    0    0 -0.13298551825E+03 -0.27799528900E+03 -0.77710880857E+03  0.83598123731E+03  0.00000000000E+00 0. -1.
        -11    1    3    3    0    0 -0.31808424003E+02 -0.11929502455E+03 -0.49059068333E+03  0.50588763306E+03  0.00000000000E+00 0.  1.
         22    1    1    2    0    0  0.16479394226E+03  0.39729031354E+03  0.10137438704E+04  0.11012144529E+04  0.00000000000E+00 0. -1.
<mgrwt>
<rscale>  0 0.24298483E+04</rscale>
<asrwt>0</asrwt>
<pdfrwt beam="1">  1        1 0.16839444E+00 0.24298483E+04</pdfrwt>
<pdfrwt beam="2">  1       -1 0.20746453E+00 0.24298483E+04</pdfrwt>
<totfact> 0.15302827E+00</totfact>
</mgrwt>
</event>
<event>
 6    1  0.1585031E-006  0.1623378E+04  0.7818608E-02  0.8806313E-01
         -1   -1    0    0    0  501 -0.00000000000E+00  0.00000000000E+00  0.30621325744E+03  0.30621325744E+03  0.00000000000E+00 0.  1.
          1   -1    0    0  501    0  0.00000000000E+00 -0.00000000000E+00 -0.21515704426E+04  0.21515704426E+04  0.00000000000E+00 0. -1.
         23    2    1    2    0    0 -0.14153396071E+02 -0.77318148078E+03 -0.12853356885E+04  0.15029884353E+04  0.94215092599E+02 0.  0.
         13    1    3    3    0    0  0.25695901777E+02 -0.61881434357E+03 -0.10374432863E+04  0.12082549580E+04  0.00000000000E+00 0.  1.
        -13    1    3    3    0    0 -0.39849297848E+02 -0.15436713721E+03 -0.24789240220E+03  0.29473347733E+03  0.00000000000E+00 0. -1.
         22    1    1    2    0    0  0.14153396071E+02  0.77318148078E+03 -0.56002149664E+03  0.95479526472E+03  0.00000000000E+00 0.  1.
<mgrwt>
<rscale>  0 0.16233784E+04</rscale>
<asrwt>0</asrwt>
<pdfrwt beam="1">  1        1 0.33101084E+00 0.16233784E+04</pdfrwt>
<pdfrwt beam="2">  1       -1 0.47109732E-01 0.16233784E+04</pdfrwt>
<totfact> 0.10123232E+01</totfact>
</mgrwt>
</event>
<event>
 6    1  0.1585031E-006  0.2774782E+04  0.7818608E-02  0.8311141E-01
         -2   -1    0    0    0  501 -0.00000000000E+00  0.00000000000E+00  0.79587625446E+03  0.79587625446E+03  0.00000000000E+00 0.  1.
          2   -1    0    0  501    0  0.00000000000E+00 -0.00000000000E+00 -0.24185339132E+04  0.24185339132E+04  0.00000000000E+00 0. -1.
         23    2    1    2    0    0  0.97168755716E+03 -0.46828081811E+03  0.19581755292E+03  0.11000980505E+04  0.91692820540E+02 0.  0.
         13    1    3    3    0    0  0.55577410659E+03 -0.21878194153E+03  0.11946474193E+03  0.60911593318E+03  0.00000000000E+00 0. -1.
        -13    1    3    3    0    0  0.41591345057E+03 -0.24949887658E+03  0.76352810993E+02  0.49098211732E+03  0.00000000000E+00 0.  1.
         22    1    1    2    0    0 -0.97168755716E+03  0.46828081811E+03 -0.18184752117E+04  0.21143121172E+04  0.00000000000E+00 0. -1.
<mgrwt>
<rscale>  0 0.27747819E+04</rscale>
<asrwt>0</asrwt>
<pdfrwt beam="1">  1        2 0.37208214E+00 0.27747819E+04</pdfrwt>
<pdfrwt beam="2">  1       -2 0.12244250E+00 0.27747819E+04</pdfrwt>
<totfact> 0.17077902E+00</totfact>
</mgrwt>
</event>
<event>
 6    1  0.1585031E-006  0.4373904E+04  0.7818608E-02  0.7933092E-01
          1   -1    0    0  501    0  0.00000000000E+00  0.00000000000E+00  0.30714748043E+04  0.30714748043E+04  0.00000000000E+00 0. -1.
         -1   -1    0    0    0  501 -0.00000000000E+00 -0.00000000000E+00 -0.15571539714E+04  0.15571539714E+04  0.00000000000E+00 0.  1.
         23    2    1    2    0    0 -0.15043378522E+01  0.57347093452E+03  0.29898908565E+04  0.30455374738E+04  0.83546363186E+02 0.  0.
         11    1    3    3    0    0 -0.70051435056E+01  0.98684175139E+02  0.37175195722E+03  0.38469098788E+03  0.00000000000E+00 0.  1.
        -11    1    3    3    0    0  0.55008056534E+01  0.47478675938E+03  0.26181388993E+04  0.26608464859E+04  0.00000000000E+00 0. -1.
         22    1    1    2    0    0  0.15043378522E+01 -0.57347093452E+03 -0.14755700235E+04  0.15830913019E+04  0.00000000000E+00 0.  1.
<mgrwt>
<rscale>  0 0.43739041E+04</rscale>
<asrwt>0</asrwt>
<pdfrwt beam="1">  1        1 0.47253458E+00 0.43739041E+04</pdfrwt>
<pdfrwt beam="2">  1       -1 0.23956215E+00 0.43739041E+04</pdfrwt>
<totfact> 0.32808071E-02</totfact>
</mgrwt>
</event>
<event>
 6    1  0.1585031E-006  0.1322823E+04  0.7818608E-02  0.9011660E-01
          1   -1    0    0  501    0  0.00000000000E+00  0.00000000000E+00  0.67258537057E+03  0.67258537057E+03  0.00000000000E+00 0.  1.
         -1   -1    0    0    0  501 -0.00000000000E+00 -0.00000000000E+00 -0.65042301076E+03  0.65042301076E+03  0.00000000000E+00 0. -1.
         23    2    1    2    0    0  0.10194695003E+03  0.62112714858E+03 -0.18144390490E+03  0.66145896793E+03  0.91727641980E+02 0.  0.
         11    1    3    3    0    0  0.35384191759E+02  0.20690084348E+03 -0.10613969289E+03  0.23521401843E+03  0.00000000000E+00 0. -1.
        -11    1    3    3    0    0  0.66562758276E+02  0.41422630511E+03 -0.75304212009E+02  0.42624494950E+03  0.00000000000E+00 0.  1.
         22    1    1    2    0    0 -0.10194695003E+03 -0.62112714858E+03  0.20360626471E+03  0.66154941339E+03  0.00000000000E+00 0.  1.
<mgrwt>
<rscale>  0 0.13228227E+04</rscale>
<asrwt>0</asrwt>
<pdfrwt beam="1">  1        1 0.10347467E+00 0.13228227E+04</pdfrwt>
<pdfrwt beam="2">  1       -1 0.10006508E+00 0.13228227E+04</pdfrwt>
<totfact> 0.27029617E+01</totfact>
</mgrwt>
</event>
<event>
 6    1  0.1585031E-006  0.2035822E+04  0.7818608E-02  0.8590053E-01
         -1   -1    0    0    0  501 -0.00000000000E+00  0.00000000000E+00  0.32811898889E+03  0.32811898889E+03  0.00000000000E+00 0.  1.
          1   -1    0    0  501    0  0.00000000000E+00 -0.00000000000E+00 -0.31578269582E+04  0.31578269582E+04  0.00000000000E+00 0. -1.
         23    2    1    2    0    0  0.98156065672E+03 -0.17357946211E+03 -0.17523832542E+04  0.20182199187E+04  0.93666527547E+02 0.  0.
         13    1    3    3    0    0  0.75940387977E+02 -0.36983101092E+02 -0.12603607697E+03  0.15172272404E+03  0.00000000000E+00 0. -1.
        -13    1    3    3    0    0  0.90562026874E+03 -0.13659636102E+03 -0.16263471772E+04  0.18664971947E+04  0.00000000000E+00 0.  1.
         22    1    1    2    0    0 -0.98156065672E+03  0.17357946211E+03 -0.10773247152E+04  0.14677260284E+04  0.00000000000E+00 0.  1.
<mgrwt>
<rscale>  0 0.20358222E+04</rscale>
<asrwt>0</asrwt>
<pdfrwt beam="1">  1        1 0.48581951E+00 0.20358222E+04</pdfrwt>
<pdfrwt beam="2">  1       -1 0.50479847E-01 0.20358222E+04</pdfrwt>
<totfact> 0.16700836E+00</totfact>
</mgrwt>
</event>
<event>
 6    1  0.1585031E-006  0.3184161E+04  0.7818608E-02  0.8193013E-01
          2   -1    0    0  501    0  0.00000000000E+00  0.00000000000E+00  0.13988516974E+04  0.13988516974E+04  0.00000000000E+00 0.  1.
         -2   -1    0    0    0  501 -0.00000000000E+00 -0.00000000000E+00 -0.18120003896E+04  0.18120003896E+04  0.00000000000E+00 0. -1.
         23    2    1    2    0    0 -0.14603009376E+04  0.61266786133E+03 -0.56045524685E+02  0.15874718453E+04  0.95315381776E+02 0.  0.
         11    1    3    3    0    0 -0.61051974999E+03  0.30591988394E+03 -0.35102840290E+02  0.68377887501E+03  0.00000000000E+00 0.  1.
        -11    1    3    3    0    0 -0.84978118763E+03  0.30674797739E+03 -0.20942684394E+02  0.90369297027E+03  0.00000000000E+00 0. -1.
         22    1    1    2    0    0  0.14603009376E+04 -0.61266786133E+03 -0.35710316751E+03  0.16233802416E+04  0.00000000000E+00 0. -1.
<mgrwt>
<rscale>  0 0.31841607E+04</rscale>
<asrwt>0</asrwt>
<pdfrwt beam="1">  1        2 0.21520796E+00 0.31841607E+04</pdfrwt>
<pdfrwt beam="2">  1       -2 0.27876929E+00 0.31841607E+04</pdfrwt>
<totfact> 0.52354801E-01</totfact>
</mgrwt>
</event>
<event>
 6    1  0.1585031E-006  0.1347995E+04  0.7818608E-02  0.8992347E-01
          2   -1    0    0  501    0  0.00000000000E+00  0.00000000000E+00  0.88318103536E+03  0.88318103536E+03  0.00000000000E+00 0. -1.
         -2   -1    0    0    0  501 -0.00000000000E+00 -0.00000000000E+00 -0.51435977785E+03  0.51435977785E+03  0.00000000000E+00 0.  1.
         23    2    1    2    0    0  0.41430463143E+03 -0.46862143756E+03 -0.66874420203E+02  0.63525143052E+03  0.88418394756E+02 0.  0.
         11    1    3    3    0    0  0.22447615593E+03 -0.22707892064E+03 -0.74770421502E+02  0.32794053838E+03  0.00000000000E+00 0. -1.
        -11    1    3    3    0    0  0.18982847550E+03 -0.24154251693E+03  0.78960012986E+01  0.30731089215E+03  0.00000000000E+00 0.  1.
         22    1    1    2    0    0 -0.41430463143E+03  0.46862143756E+03  0.43569567771E+03  0.76228938268E+03  0.00000000000E+00 0. -1.
<mgrwt>
<rscale>  0 0.13479953E+04</rscale>
<asrwt>0</asrwt>
<pdfrwt beam="1">  1        2 0.13587400E+00 0.13479953E+04</pdfrwt>
<pdfrwt beam="2">  1       -2 0.79132274E-01 0.13479953E+04</pdfrwt>
<totfact> 0.41677501E+01</totfact>
</mgrwt>
</event>
<event>
 6    1  0.1789718E-006  0.3853693E+04  0.7818608E-02  0.8034730E-01
         -1   -1    0    0    0  501 -0.00000000000E+00  0.00000000000E+00  0.19238852699E+04  0.19238852699E+04  0.00000000000E+00 0. -1.
          1   -1    0    0  501    0  0.00000000000E+00 -0.00000000000E+00 -0.19298118431E+04  0.19298118431E+04  0.00000000000E+00 0.  1.
         23    2    1    2    0    0  0.13592191627E+04 -0.12316965414E+04 -0.59066034331E+03  0.19284785061E+04  0.74810460704E+02 0.  0.
         13    1    3    3    0    0  0.50224439568E+03 -0.48061314063E+03 -0.19133062296E+03  0.72100335035E+03  0.00000000000E+00 0.  1.
        -13    1    3    3    0    0  0.85697476702E+03 -0.75108340076E+03 -0.39932972035E+03  0.12074751558E+04  0.00000000000E+00 0. -1.
         22    1    1    2    0    0 -0.13592191627E+04  0.12316965414E+04  0.58473377008E+03  0.19252186069E+04  0.00000000000E+00 0. -1.
<mgrwt>
<rscale>  0 0.38536926E+04</rscale>
<asrwt>0</asrwt>
<pdfrwt beam="1">  1        1 0.29689413E+00 0.38536926E+04</pdfrwt>
<pdfrwt beam="2">  1       -1 0.29598235E+00 0.38536926E+04</pdfrwt>
<totfact> 0.92368632E-02</totfact>
</mgrwt>
</event>
<event>
 6    1  0.1585031E-006  0.2268006E+04  0.7818608E-02  0.8490644E-01
          2   -1    0    0  501    0  0.00000000000E+00  0.00000000000E+00  0.36947549038E+04  0.36947549038E+04  0.00000000000E+00 0. -1.
         -2   -1    0    0    0  501 -0.00000000000E+00 -0.00000000000E+00 -0.34805099355E+03  0.34805099355E+03  0.00000000000E+00 0.  1.
         23    2    1    2    0    0 -0.57063909809E+03 -0.15445659340E+03 -0.44925146896E+02  0.60004051457E+03  0.92436631200E+02 0.  0.
         13    1    3    3    0    0 -0.29970096645E+03 -0.34266691540E+02 -0.32199637363E+02  0.30336725612E+03  0.00000000000E+00 0. -1.
        -13    1    3    3    0    0 -0.27093813164E+03 -0.12018990186E+03 -0.12725509533E+02  0.29667325845E+03  0.00000000000E+00 0.  1.
         22    1    1    2    0    0  0.57063909809E+03  0.15445659340E+03  0.33916290571E+04  0.34427653828E+04  0.00000000000E+00 0. -1.
<mgrwt>
<rscale>  0 0.22680063E+04</rscale>
<asrwt>0</asrwt>
<pdfrwt beam="1">  1        2 0.56842380E+00 0.22680063E+04</pdfrwt>
<pdfrwt beam="2">  1       -2 0.53546309E-01 0.22680063E+04</pdfrwt>
<totfact> 0.17666528E+00</totfact>
</mgrwt>
</event>
<event>
 6    1  0.1585031E-006  0.3800987E+03  0.7818608E-02  0.1050897E+00
         -2   -1    0    0    0  501 -0.00000000000E+00  0.00000000000E+00  0.35054525281E+02  0.35054525281E+02  0.00000000000E+00 0.  1.
          2   -1    0    0  501    0  0.00000000000E+00 -0.00000000000E+00 -0.10303591326E+04  0.10303591326E+04  0.00000000000E+00 0. -1.
         23    2    1    2    0    0 -0.91201554838E+02  0.28365339399E+02 -0.95013695011E+03  0.95976124029E+03  0.96224208549E+02 0.  0.
         13    1    3    3    0    0 -0.51952145406E+02 -0.94319138076E+01 -0.76373782143E+03  0.76556087040E+03  0.00000000000E+00 0. -1.
        -13    1    3    3    0    0 -0.39249409432E+02  0.37797253206E+02 -0.18639912869E+03  0.19420036989E+03  0.00000000000E+00 0.  1.
         22    1    1    2    0    0  0.91201554838E+02 -0.28365339399E+02 -0.45167657196E+02  0.10565241758E+03  0.00000000000E+00 0. -1.
<mgrwt>
<rscale>  0 0.38009867E+03</rscale>
<asrwt>0</asrwt>
<pdfrwt beam="1">  1        2 0.15851679E+00 0.38009867E+03</pdfrwt>
<pdfrwt beam="2">  1       -2 0.53930040E-02 0.38009867E+03</pdfrwt>
<totfact> 0.44056007E+03</totfact>
</mgrwt>
</event>
<event>
 6    1  0.1585031E-006  0.1304099E+04  0.7818608E-02  0.9026321E-01
          2   -1    0    0  501    0  0.00000000000E+00  0.00000000000E+00  0.22072315931E+04  0.22072315931E+04  0.00000000000E+00 0. -1.
         -2   -1    0    0    0  501 -0.00000000000E+00 -0.00000000000E+00 -0.19262534628E+03  0.19262534628E+03  0.00000000000E+00 0.  1.
         23    2    1    2    0    0  0.50421761308E+03 -0.40749229591E+03  0.10608779551E+04  0.12466513952E+04  0.91609459721E+02 0.  0.
         13    1    3    3    0    0  0.46004660500E+03 -0.39465395034E+03  0.10111912627E+04  0.11789412153E+04  0.00000000000E+00 0. -1.
        -13    1    3    3    0    0  0.44171008079E+02 -0.12838345563E+02  0.49686692352E+02  0.67710179947E+02  0.00000000000E+00 0.  1.
         22    1    1    2    0    0 -0.50421761308E+03  0.40749229591E+03  0.95372829170E+03  0.11532055441E+04  0.00000000000E+00 0. -1.
<mgrwt>
<rscale>  0 0.13040993E+04</rscale>
<asrwt>0</asrwt>
<pdfrwt beam="1">  1        2 0.33957407E+00 0.13040993E+04</pdfrwt>
<pdfrwt beam="2">  1       -2 0.29634670E-01 0.13040993E+04</pdfrwt>
<totfact> 0.52705155E+01</totfact>
</mgrwt>
</event>
<event>
 6    1  0.1585031E-006  0.1214302E+04  0.7818608E-02  0.9100429E-01
          1   -1    0    0  501    0  0.00000000000E+00  0.00000000000E+00  0.78009097408E+03  0.78009097408E+03  0.00000000000E+00 0. -1.
         -1   -1    0    0    0  501 -0.00000000000E+00 -0.00000000000E+00 -0.47255034092E+03  0.47255034092E+03  0.00000000000E+00 0.  1.
         23    2    1    2    0    0  0.21821377340E+03 -0.65728226740E+02  0.73132995224E+03  0.77146064450E+03  0.91490853432E+02 0.  0.
         13    1    3    3    0    0  0.11225915579E+03 -0.59569611542E+02  0.27490983688E+03  0.30286312930E+03  0.00000000000E+00 0.  1.
        -13    1    3    3    0    0  0.10595461761E+03 -0.61586151984E+01  0.45642011537E+03  0.46859751519E+03  0.00000000000E+00 0. -1.
         22    1    1    2    0    0 -0.21821377340E+03  0.65728226740E+02 -0.42378931909E+03  0.48118067051E+03  0.00000000000E+00 0.  1.
<mgrwt>
<rscale>  0 0.12143019E+04</rscale>
<asrwt>0</asrwt>
<pdfrwt beam="1">  1        1 0.12001400E+00 0.12143019E+04</pdfrwt>
<pdfrwt beam="2">  1       -1 0.72700052E-01 0.12143019E+04</pdfrwt>
<totfact> 0.43439156E+01</totfact>
</mgrwt>
</event>
<event>
 6    1  0.2649407E-006  0.2561934E+04  0.7818608E-02  0.8381248E-01
         -1   -1    0    0    0  501 -0.00000000000E+00  0.00000000000E+00  0.10140198001E+04  0.10140198001E+04  0.00000000000E+00 0.  1.
          1   -1    0    0  501    0  0.00000000000E+00 -0.00000000000E+00 -0.16181892621E+04  0.16181892621E+04  0.00000000000E+00 0. -1.
         23    2    1    2    0    0 -0.22125720431E+03  0.21024390447E+03  0.97407560716E+03  0.10247219711E+04  0.89858665612E+02 0.  0.
         11    1    3    3    0    0 -0.13886813198E+03  0.17383241632E+03  0.59911890927E+03  0.63909743739E+03  0.00000000000E+00 0. -1.
        -11    1    3    3    0    0 -0.82389072329E+02  0.36411488152E+02  0.37495669789E+03  0.38562453372E+03  0.00000000000E+00 0.  1.
         22    1    1    2    0    0  0.22125720431E+03 -0.21024390447E+03 -0.15782450691E+04  0.16074870911E+04  0.00000000000E+00 0. -1.
<mgrwt>
<rscale>  0 0.25619336E+04</rscale>
<asrwt>0</asrwt>
<pdfrwt beam="1">  1        1 0.24895219E+00 0.25619336E+04</pdfrwt>
<pdfrwt beam="2">  1       -1 0.15600305E+00 0.25619336E+04</pdfrwt>
<totfact> 0.15020676E+00</totfact>
</mgrwt>
</event>
<event>
 6    1  0.1585031E-006  0.4330908E+04  0.7818608E-02  0.7940928E-01
         -1   -1    0    0    0  501 -0.00000000000E+00  0.00000000000E+00  0.25521125693E+04  0.25521125693E+04  0.00000000000E+00 0.  1.
          1   -1    0    0  501    0  0.00000000000E+00 -0.00000000000E+00 -0.18373758580E+04  0.18373758580E+04  0.00000000000E+00 0. -1.
         23    2    1    2    0    0 -0.66330420880E+03  0.11247706187E+04  0.21071138816E+04  0.24806155655E+04  0.91887188847E+02 0.  0.
         11    1    3    3    0    0 -0.16898821286E+03  0.22102922612E+03  0.48177145097E+03  0.55634042263E+03  0.00000000000E+00 0. -1.
        -11    1    3    3    0    0 -0.49431599595E+03  0.90374139259E+03  0.16253424307E+04  0.19242751429E+04  0.00000000000E+00 0.  1.
         22    1    1    2    0    0  0.66330420880E+03 -0.11247706187E+04 -0.13923771704E+04  0.19088728618E+04  0.00000000000E+00 0. -1.
<mgrwt>
<rscale>  0 0.43309075E+04</rscale>
<asrwt>0</asrwt>
<pdfrwt beam="1">  1        1 0.28267321E+00 0.43309075E+04</pdfrwt>
<pdfrwt beam="2">  1       -1 0.39263270E+00 0.43309075E+04</pdfrwt>
<totfact> 0.23503271E-02</totfact>
</mgrwt>
</event>
<event>
 6    1  0.1585031E-006  0.1241264E+04  0.7818608E-02  0.9077485E-01
          2   -1    0    0  501    0  0.00000000000E+00  0.00000000000E+00  0.15121548020E+04  0.15121548020E+04  0.00000000000E+00 0. -1.
         -2   -1    0    0    0  501 -0.00000000000E+00 -0.00000000000E+00 -0.25472541457E+03  0.25472541457E+03  0.00000000000E+00 0.  1.
         23    2    1    2    0    0  0.18382572007E+03  0.58818360892E+03  0.68830135133E+03  0.92803662289E+03  0.87985055705E+02 0.  0.
         11    1    3    3    0    0  0.81815382294E+02  0.33551890783E+03  0.32786015216E+03  0.47619216044E+03  0.00000000000E+00 0. -1.
        -11    1    3    3    0    0  0.10201033778E+03  0.25266470110E+03  0.36044119917E+03  0.45184446246E+03  0.00000000000E+00 0.  1.
         22    1    1    2    0    0 -0.18382572007E+03 -0.58818360892E+03  0.56912803607E+03  0.83884359365E+03  0.00000000000E+00 0.  1.
<mgrwt>
<rscale>  0 0.12412643E+04</rscale>
<asrwt>0</asrwt>
<pdfrwt beam="1">  1        2 0.23263919E+00 0.12412643E+04</pdfrwt>
<pdfrwt beam="2">  1       -2 0.39188526E-01 0.12412643E+04</pdfrwt>
<totfact> 0.75659897E+01</totfact>
</mgrwt>
</event>
<event>
 6    1  0.1585031E-006  0.2533942E+04  0.7818608E-02  0.8390993E-01
          2   -1    0    0  501    0  0.00000000000E+00  0.00000000000E+00  0.13327836049E+04  0.13327836049E+04  0.00000000000E+00 0. -1.
         -2   -1    0    0    0  501 -0.00000000000E+00 -0.00000000000E+00 -0.12044077952E+04  0.12044077952E+04  0.00000000000E+00 0.  1.
         23    2    1    2    0    0  0.89685900323E+03 -0.16724853652E+03  0.94205745751E+03  0.13147324157E+04  0.93385903752E+02 0.  0.
         13    1    3    3    0    0  0.35499666853E+03 -0.20838701579E+02  0.37830149889E+03  0.51920026022E+03  0.00000000000E+00 0. -1.
        -13    1    3    3    0    0  0.54186233470E+03 -0.14640983494E+03  0.56375595862E+03  0.79553215549E+03  0.00000000000E+00 0.  1.
         22    1    1    2    0    0 -0.89685900323E+03  0.16724853652E+03 -0.81368164775E+03  0.12224589844E+04  0.00000000000E+00 0.  1.
<mgrwt>
<rscale>  0 0.25339416E+04</rscale>
<asrwt>0</asrwt>
<pdfrwt beam="1">  1        2 0.20504363E+00 0.25339416E+04</pdfrwt>
<pdfrwt beam="2">  1       -2 0.18529351E+00 0.25339416E+04</pdfrwt>
<totfact> 0.23469765E+00</totfact>
</mgrwt>
</event>
<event>
 6    1  0.1585031E-006  0.1050984E+04  0.7818608E-02  0.9254329E-01
         -2   -1    0    0    0  501 -0.00000000000E+00  0.00000000000E+00  0.30250208906E+03  0.30250208906E+03  0.00000000000E+00 0.  1.
          2   -1    0    0  501    0  0.00000000000E+00 -0.00000000000E+00 -0.91285864433E+03  0.91285864433E+03  0.00000000000E+00 0. -1.
         23    2    1    2    0    0 -0.31425648001E+03  0.29231031995E+03  0.28706194448E+02  0.44555318832E+03  0.11615136522E+03 0.  0.
         13    1    3    3    0    0 -0.96223666094E+02  0.16736167034E+03  0.46610866202E+01  0.19310786712E+03  0.00000000000E+00 0.  1.
        -13    1    3    3    0    0 -0.21803281392E+03  0.12494864961E+03  0.24045107828E+02  0.25244532120E+03  0.00000000000E+00 0. -1.
         22    1    1    2    0    0  0.31425648001E+03 -0.29231031995E+03 -0.63906274972E+03  0.76980754508E+03  0.00000000000E+00 0. -1.
<mgrwt>
<rscale>  0 0.10509836E+04</rscale>
<asrwt>0</asrwt>
<pdfrwt beam="1">  1        2 0.14043979E+00 0.10509836E+04</pdfrwt>
<pdfrwt beam="2">  1       -2 0.46538784E-01 0.10509836E+04</pdfrwt>
<totfact> 0.12522036E+02</totfact>
</mgrwt>
</event>
<event>
 6    1  0.1585031E-006  0.1697882E+04  0.7818608E-02  0.8762573E-01
         -1   -1    0    0    0  501 -0.00000000000E+00  0.00000000000E+00  0.45501761825E+03  0.45501761825E+03  0.00000000000E+00 0.  1.
          1   -1    0    0  501    0  0.00000000000E+00 -0.00000000000E+00 -0.15838958092E+04  0.15838958092E+04  0.00000000000E+00 0. -1.
         23    2    1    2    0    0  0.14737926071E+03 -0.83082478692E+03 -0.65234736023E+03  0.10698560991E+04  0.83931646209E+02 0.  0.
         11    1    3    3    0    0  0.10424061128E+03 -0.47973075624E+03 -0.42526353686E+03  0.64950502639E+03  0.00000000000E+00 0. -1.
        -11    1    3    3    0    0  0.43138649434E+02 -0.35109403068E+03 -0.22708382337E+03  0.42035107267E+03  0.00000000000E+00 0.  1.
         22    1    1    2    0    0 -0.14737926071E+03  0.83082478692E+03 -0.47653083068E+03  0.96905732835E+03  0.00000000000E+00 0.  1.
<mgrwt>
<rscale>  0 0.16978816E+04</rscale>
<asrwt>0</asrwt>
<pdfrwt beam="1">  1        1 0.24367628E+00 0.16978816E+04</pdfrwt>
<pdfrwt beam="2">  1       -1 0.70002709E-01 0.16978816E+04</pdfrwt>
<totfact> 0.11239552E+01</totfact>
</mgrwt>
</event>
<event>
 6    1  0.2067004E-006  0.3736330E+04  0.7818608E-02  0.8059958E-01
         -1   -1    0    0    0  501 -0.00000000000E+00  0.00000000000E+00  0.10776108631E+04  0.10776108631E+04  0.00000000000E+00 0.  1.
          1   -1    0    0  501    0  0.00000000000E+00 -0.00000000000E+00 -0.32386838730E+04  0.32386838730E+04  0.00000000000E+00 0. -1.
         23    2    1    2    0    0 -0.14543673241E+04  0.10045291737E+04 -0.38534141610E+03  0.18108035931E+04  0.79110502835E+02 0.  0.
         11    1    3    3    0    0 -0.33970082946E+03  0.21505930556E+03 -0.58115354345E+02  0.40623214158E+03  0.00000000000E+00 0. -1.
        -11    1    3    3    0    0 -0.11146664946E+04  0.78946986813E+03 -0.32722606176E+03  0.14045714515E+04  0.00000000000E+00 0.  1.
         22    1    1    2    0    0  0.14543673241E+04 -0.10045291737E+04 -0.17757315938E+04  0.25054911429E+04  0.00000000000E+00 0. -1.
<mgrwt>
<rscale>  0 0.37363302E+04</rscale>
<asrwt>0</asrwt>
<pdfrwt beam="1">  1        1 0.49825905E+00 0.37363302E+04</pdfrwt>
<pdfrwt beam="2">  1       -1 0.16578629E+00 0.37363302E+04</pdfrwt>
<totfact> 0.83977627E-02</totfact>
</mgrwt>
</event>
<event>
 6    1  0.1585031E-006  0.3836315E+04  0.7818608E-02  0.8038406E-01
         -2   -1    0    0    0  501 -0.00000000000E+00  0.00000000000E+00  0.11839822927E+04  0.11839822927E+04  0.00000000000E+00 0.  1.
          2   -1    0    0  501    0  0.00000000000E+00 -0.00000000000E+00 -0.31075877605E+04  0.31075877605E+04  0.00000000000E+00 0. -1.
         23    2    1    2    0    0 -0.61831160407E+03  0.18065132471E+03 -0.29822308645E+04  0.30523639076E+04  0.90996450853E+02 0.  0.
         11    1    3    3    0    0 -0.36315796287E+03  0.86891647542E+02 -0.19143031035E+04  0.19503820744E+04  0.00000000000E+00 0.  1.
        -11    1    3    3    0    0 -0.25515364121E+03  0.93759677170E+02 -0.10679277611E+04  0.11019818331E+04  0.00000000000E+00 0. -1.
         22    1    1    2    0    0  0.61831160407E+03 -0.18065132471E+03  0.10586253967E+04  0.12392061457E+04  0.00000000000E+00 0.  1.
<mgrwt>
<rscale>  0 0.38363154E+04</rscale>
<asrwt>0</asrwt>
<pdfrwt beam="1">  1        2 0.47809043E+00 0.38363154E+04</pdfrwt>
<pdfrwt beam="2">  1       -2 0.18215112E+00 0.38363154E+04</pdfrwt>
<totfact> 0.20830029E-01</totfact>
</mgrwt>
</event>
<event>
 6    1  0.1585031E-006  0.1441434E+04  0.7818608E-02  0.8924361E-01
         -2   -1    0    0    0  501 -0.00000000000E+00  0.00000000000E+00  0.60374878028E+03  0.60374878028E+03  0.00000000000E+00 0.  1.
          2   -1    0    0  501    0  0.00000000000E+00 -0.00000000000E+00 -0.86034603383E+03  0.86034603383E+03  0.00000000000E+00 0. -1.
         23    2    1    2    0    0 -0.16506630444E+03 -0.39259282153E+03  0.45813753125E+03  0.63209612361E+03  0.90991777431E+02 0.  0.
         11    1    3    3    0    0  0.50123119363E+00 -0.93344609221E+02  0.91483675579E+02  0.13070091890E+03  0.00000000000E+00 0. -1.
        -11    1    3    3    0    0 -0.16556753564E+03 -0.29924821231E+03  0.36665385567E+03  0.50139520471E+03  0.00000000000E+00 0.  1.
         22    1    1    2    0    0  0.16506630444E+03  0.39259282153E+03 -0.71473478480E+03  0.83199869050E+03  0.00000000000E+00 0. -1.
<mgrwt>
<rscale>  0 0.14414338E+04</rscale>
<asrwt>0</asrwt>
<pdfrwt beam="1">  1        2 0.13236093E+00 0.14414338E+04</pdfrwt>
<pdfrwt beam="2">  1       -2 0.92884428E-01 0.14414338E+04</pdfrwt>
<totfact> 0.29763677E+01</totfact>
</mgrwt>
</event>
<event>
 6    1  0.1585031E-006  0.1127376E+04  0.7818608E-02  0.9178912E-01
         -2   -1    0    0    0  501 -0.00000000000E+00  0.00000000000E+00  0.23832686843E+03  0.23832686843E+03  0.00000000000E+00 0.  1.
          2   -1    0    0  501    0  0.00000000000E+00 -0.00000000000E+00 -0.13332291068E+04  0.13332291068E+04  0.00000000000E+00 0. -1.
         23    2    1    2    0    0 -0.49131357470E+03 -0.21262484181E+03 -0.77947082938E+03  0.95019028111E+03  0.93211825585E+02 0.  0.
         11    1    3    3    0    0 -0.21666678668E+03 -0.92777810779E+02 -0.42545371849E+03  0.48637751304E+03  0.00000000000E+00 0. -1.
        -11    1    3    3    0    0 -0.27464678802E+03 -0.11984703103E+03 -0.35401711089E+03  0.46381276807E+03  0.00000000000E+00 0.  1.
         22    1    1    2    0    0  0.49131357470E+03  0.21262484181E+03 -0.31543140895E+03  0.62136569409E+03  0.00000000000E+00 0.  1.
<mgrwt>
<rscale>  0 0.11273763E+04</rscale>
<asrwt>0</asrwt>
<pdfrwt beam="1">  1        2 0.20511217E+00 0.11273763E+04</pdfrwt>
<pdfrwt beam="2">  1       -2 0.36665673E-01 0.11273763E+04</pdfrwt>
<totfact> 0.10970546E+02</totfact>
</mgrwt>
</event>
<event>
 6    1  0.1585031E-006  0.1653439E+04  0.7818608E-02  0.8788374E-01
         -2   -1    0    0    0  501 -0.00000000000E+00  0.00000000000E+00  0.40595581453E+03  0.40595581453E+03  0.00000000000E+00 0.  1.
          2   -1    0    0  501    0  0.00000000000E+00 -0.00000000000E+00 -0.16835956729E+04  0.16835956729E+04  0.00000000000E+00 0. -1.
         23    2    1    2    0    0 -0.55432798447E+03  0.56868434448E+03 -0.91945980948E+03  0.12183601506E+04  0.91179587570E+02 0.  0.
         11    1    3    3    0    0 -0.12044771469E+03  0.84883597859E+02 -0.13670139953E+03  0.20099788505E+03  0.00000000000E+00 0.  1.
        -11    1    3    3    0    0 -0.43388026978E+03  0.48380074662E+03 -0.78275840994E+03  0.10173622655E+04  0.00000000000E+00 0. -1.
         22    1    1    2    0    0  0.55432798447E+03 -0.56868434448E+03 -0.35818004888E+03  0.87119133687E+03  0.00000000000E+00 0.  1.
<mgrwt>
<rscale>  0 0.16534394E+04</rscale>
<asrwt>0</asrwt>
<pdfrwt beam="1">  1        2 0.25901472E+00 0.16534394E+04</pdfrwt>
<pdfrwt beam="2">  1       -2 0.62454740E-01 0.16534394E+04</pdfrwt>
<totfact> 0.22745305E+01</totfact>
</mgrwt>
</event>
<event>
 6    1  0.1585031E-006  0.2021976E+04  0.7818608E-02  0.8596415E-01
         -2   -1    0    0    0  501 -0.00000000000E+00  0.00000000000E+00  0.74123145801E+03  0.74123145801E+03  0.00000000000E+00 0. -1.
          2   -1    0    0  501    0  0.00000000000E+00 -0.00000000000E+00 -0.13789167070E+04  0.13789167070E+04  0.00000000000E+00 0.  1.
         23    2    1    2    0    0 -0.94822891692E+03 -0.11398995586E+03  0.21877912389E+02  0.95947794795E+03  0.89372818283E+02 0.  0.
         13    1    3    3    0    0 -0.69629143600E+03 -0.96540991686E+02  0.53398021968E+02  0.70497750012E+03  0.00000000000E+00 0.  1.
        -13    1    3    3    0    0 -0.25193748092E+03 -0.17448964175E+02 -0.31520109580E+02  0.25450044784E+03  0.00000000000E+00 0. -1.
         22    1    1    2    0    0  0.94822891692E+03  0.11398995586E+03 -0.65956316140E+03  0.11606702171E+04  0.00000000000E+00 0.  1.
<mgrwt>
<rscale>  0 0.20219757E+04</rscale>
<asrwt>0</asrwt>
<pdfrwt beam="1">  1        2 0.21214103E+00 0.20219757E+04</pdfrwt>
<pdfrwt beam="2">  1       -2 0.11403561E+00 0.20219757E+04</pdfrwt>
<totfact> 0.83073525E+00</totfact>
</mgrwt>
</event>
<event>
 6    1  0.1585031E-006  0.2130191E+04  0.7818608E-02  0.8548059E-01
         -2   -1    0    0    0  501 -0.00000000000E+00  0.00000000000E+00  0.14801351847E+04  0.14801351847E+04  0.00000000000E+00 0.  1.
          2   -1    0    0  501    0  0.00000000000E+00 -0.00000000000E+00 -0.76643564426E+03  0.76643564426E+03  0.00000000000E+00 0. -1.
         23    2    1    2    0    0  0.61223809337E+03 -0.81305965426E+03  0.68162928663E+03  0.12282732372E+04  0.90195212705E+02 0.  0.
         11    1    3    3    0    0  0.29289750883E+03 -0.35488802031E+03  0.26011469677E+03  0.52857744288E+03  0.00000000000E+00 0. -1.
        -11    1    3    3    0    0  0.31934058453E+03 -0.45817163395E+03  0.42151458985E+03  0.69969579429E+03  0.00000000000E+00 0.  1.
         22    1    1    2    0    0 -0.61223809337E+03  0.81305965426E+03  0.32070253857E+02  0.10182975918E+04  0.00000000000E+00 0. -1.
<mgrwt>
<rscale>  0 0.21301909E+04</rscale>
<asrwt>0</asrwt>
<pdfrwt beam="1">  1        2 0.11791318E+00 0.21301909E+04</pdfrwt>
<pdfrwt beam="2">  1       -2 0.22771311E+00 0.21301909E+04</pdfrwt>
<totfact> 0.29601696E+00</totfact>
</mgrwt>
</event>
<event>
 6    1  0.1585031E-006  0.1095139E+04  0.7818608E-02  0.9209942E-01
         -1   -1    0    0    0  501 -0.00000000000E+00  0.00000000000E+00  0.81943460176E+03  0.81943460176E+03  0.00000000000E+00 0. -1.
          1   -1    0    0  501    0  0.00000000000E+00 -0.00000000000E+00 -0.36590165399E+03  0.36590165399E+03  0.00000000000E+00 0.  1.
         23    2    1    2    0    0 -0.24203178473E+03 -0.14091916723E+03  0.73110258226E+03  0.79102356446E+03  0.11300308505E+03 0.  0.
         11    1    3    3    0    0 -0.68946895065E+02 -0.10412115671E+03  0.31572785720E+03  0.33952756799E+03  0.00000000000E+00 0. -1.
        -11    1    3    3    0    0 -0.17308488966E+03 -0.36798010522E+02  0.41537472506E+03  0.45149599647E+03  0.00000000000E+00 0.  1.
         22    1    1    2    0    0  0.24203178473E+03  0.14091916723E+03 -0.27756963450E+03  0.39431269128E+03  0.00000000000E+00 0.  1.
<mgrwt>
<rscale>  0 0.10951392E+04</rscale>
<asrwt>0</asrwt>
<pdfrwt beam="1">  1        1 0.56292562E-01 0.10951392E+04</pdfrwt>
<pdfrwt beam="2">  1       -1 0.12606686E+00 0.10951392E+04</pdfrwt>
<totfact> 0.36895154E+01</totfact>
</mgrwt>
</event>
<event>
 6    1  0.1585031E-006  0.2844254E+04  0.7818608E-02  0.8289659E-01
         -2   -1    0    0    0  501 -0.00000000000E+00  0.00000000000E+00  0.66381003509E+03  0.66381003509E+03  0.00000000000E+00 0.  1.
          2   -1    0    0  501    0  0.00000000000E+00 -0.00000000000E+00 -0.30467226210E+04  0.30467226210E+04  0.00000000000E+00 0. -1.
         23    2    1    2    0    0 -0.74428085751E+03 -0.26340629347E+03 -0.27335122875E+04  0.28466709652E+04  0.90051582836E+02 0.  0.
         13    1    3    3    0    0 -0.44964728998E+03 -0.11384650586E+03 -0.16395337139E+04  0.17038821882E+04  0.00000000000E+00 0. -1.
        -13    1    3    3    0    0 -0.29463356754E+03 -0.14955978762E+03 -0.10939785736E+04  0.11427887769E+04  0.00000000000E+00 0.  1.
         22    1    1    2    0    0  0.74428085751E+03  0.26340629347E+03  0.35059970160E+03  0.86386169093E+03  0.00000000000E+00 0.  1.
<mgrwt>
<rscale>  0 0.28442539E+04</rscale>
<asrwt>0</asrwt>
<pdfrwt beam="1">  1        2 0.46872656E+00 0.28442539E+04</pdfrwt>
<pdfrwt beam="2">  1       -2 0.10212462E+00 0.28442539E+04</pdfrwt>
<totfact> 0.11077567E+00</totfact>
</mgrwt>
</event>
<event>
 6    1  0.1585031E-006  0.3697479E+04  0.7818608E-02  0.8068521E-01
          1   -1    0    0  501    0  0.00000000000E+00  0.00000000000E+00  0.22785423699E+04  0.22785423699E+04  0.00000000000E+00 0. -1.
         -1   -1    0    0    0  501 -0.00000000000E+00 -0.00000000000E+00 -0.15000105348E+04  0.15000105348E+04  0.00000000000E+00 0.  1.
         23    2    1    2    0    0  0.30045426044E+03 -0.40341530013E+03 -0.14273724728E+04  0.15160254502E+04  0.89018664170E+02 0.  0.
         11    1    3    3    0    0  0.61866040507E+01  0.46287546126E+01 -0.20286035213E+02  0.21707663707E+02  0.00000000000E+00 0. -1.
        -11    1    3    3    0    0  0.29426765639E+03 -0.40804405475E+03 -0.14070864375E+04  0.14943177865E+04  0.00000000000E+00 0.  1.
         22    1    1    2    0    0 -0.30045426044E+03  0.40341530013E+03  0.22059043079E+04  0.22625274546E+04  0.00000000000E+00 0. -1.
<mgrwt>
<rscale>  0 0.36974789E+04</rscale>
<asrwt>0</asrwt>
<pdfrwt beam="1">  1        1 0.35054498E+00 0.36974789E+04</pdfrwt>
<pdfrwt beam="2">  1       -1 0.23077085E+00 0.36974789E+04</pdfrwt>
<totfact> 0.14413596E-01</totfact>
</mgrwt>
</event>
<event>
 6    1  0.1585031E-006  0.2428654E+04  0.7818608E-02  0.8428853E-01
          2   -1    0    0  501    0  0.00000000000E+00  0.00000000000E+00  0.11951465675E+04  0.11951465675E+04  0.00000000000E+00 0. -1.
         -2   -1    0    0    0  501 -0.00000000000E+00 -0.00000000000E+00 -0.12338147550E+04  0.12338147550E+04  0.00000000000E+00 0.  1.
         23    2    1    2    0    0 -0.22261048084E+03 -0.10827987405E+04 -0.51788004590E+03  0.12241158786E+04  0.90837237396E+02 0.  0.
         13    1    3    3    0    0 -0.14492221950E+03 -0.48876072553E+03 -0.25182252828E+03  0.56859834881E+03  0.00000000000E+00 0. -1.
        -13    1    3    3    0    0 -0.77688261346E+02 -0.59403801492E+03 -0.26605751762E+03  0.65551752974E+03  0.00000000000E+00 0.  1.
         22    1    1    2    0    0  0.22261048084E+03  0.10827987405E+04  0.47921185837E+03  0.12048454439E+04  0.00000000000E+00 0.  1.
<mgrwt>
<rscale>  0 0.24286535E+04</rscale>
<asrwt>0</asrwt>
<pdfrwt beam="1">  1        2 0.18386870E+00 0.24286535E+04</pdfrwt>
<pdfrwt beam="2">  1       -2 0.18981765E+00 0.24286535E+04</pdfrwt>
<totfact> 0.26589294E+00</totfact>
</mgrwt>
</event>
<event>
 6    1  0.1585031E-006  0.2221787E+04  0.7818608E-02  0.8509414E-01
         -3   -1    0    0    0  501 -0.00000000000E+00  0.00000000000E+00  0.88077475459E+03  0.88077475459E+03  0.00000000000E+00 0.  1.
          3   -1    0    0  501    0  0.00000000000E+00 -0.00000000000E+00 -0.14011355792E+04  0.14011355792E+04  0.00000000000E+00 0. -1.
         23    2    1    2    0    0 -0.31468205365E+03 -0.98368439752E+02 -0.13480624470E+04  0.13909607727E+04  0.93799602257E+02 0.  0.
         13    1    3    3    0    0 -0.18554163192E+03 -0.10360102961E+03 -0.88950530999E+03  0.91453735135E+03  0.00000000000E+00 0. -1.
        -13    1    3    3    0    0 -0.12914042172E+03  0.52325898561E+01 -0.45855713699E+03  0.47642342134E+03  0.00000000000E+00 0.  1.
         22    1    1    2    0    0  0.31468205365E+03  0.98368439752E+02  0.82770162235E+03  0.89094956113E+03  0.00000000000E+00 0.  1.
<mgrwt>
<rscale>  0 0.22217874E+04</rscale>
<asrwt>0</asrwt>
<pdfrwt beam="1">  1        3 0.21555932E+00 0.22217874E+04</pdfrwt>
<pdfrwt beam="2">  1       -3 0.13550381E+00 0.22217874E+04</pdfrwt>
<totfact> 0.11753340E-01</totfact>
</mgrwt>
</event>
<event>
 6    1  0.1585031E-006  0.3970234E+04  0.7818608E-02  0.8010578E-01
          2   -1    0    0  501    0  0.00000000000E+00  0.00000000000E+00  0.92939406510E+03  0.92939406510E+03  0.00000000000E+00 0. -1.
         -2   -1    0    0    0  501 -0.00000000000E+00 -0.00000000000E+00 -0.42400634588E+04  0.42400634588E+04  0.00000000000E+00 0.  1.
         23    2    1    2    0    0  0.10107135147E+04  0.37221509275E+03  0.51333719498E+03  0.11966609932E+04  0.91632815504E+02 0.  0.
         11    1    3    3    0    0  0.21164729053E+03  0.11714607541E+03  0.10382510752E+03  0.26324405316E+03  0.00000000000E+00 0. -1.
        -11    1    3    3    0    0  0.79906622416E+03  0.25506901734E+03  0.40951208746E+03  0.93341694005E+03  0.00000000000E+00 0.  1.
         22    1    1    2    0    0 -0.10107135147E+04 -0.37221509275E+03 -0.38240065887E+04  0.39727965307E+04  0.00000000000E+00 0.  1.
<mgrwt>
<rscale>  0 0.39702342E+04</rscale>
<asrwt>0</asrwt>
<pdfrwt beam="1">  1        2 0.14298370E+00 0.39702342E+04</pdfrwt>
<pdfrwt beam="2">  1       -2 0.65231746E+00 0.39702342E+04</pdfrwt>
<totfact> 0.73005946E-03</totfact>
</mgrwt>
</event>
<event>
 6    1  0.1585031E-006  0.2007763E+03  0.7818608E-02  0.1149086E+00
          2   -1    0    0  501    0  0.00000000000E+00  0.00000000000E+00  0.25589014236E+04  0.25589014236E+04  0.00000000000E+00 0. -1.
         -2   -1    0    0    0  501 -0.00000000000E+00 -0.00000000000E+00 -0.39383245492E+01  0.39383245492E+01  0.00000000000E+00 0.  1.
         23    2    1    2    0    0  0.19315591464E+02 -0.56395494666E+02  0.22180184626E+04  0.22206625544E+04  0.90458477595E+02 0.  0.
         13    1    3    3    0    0 -0.20164960200E+02 -0.41857924713E+02  0.50636470953E+03  0.50849181954E+03  0.00000000000E+00 0.  1.
        -13    1    3    3    0    0  0.39480551664E+02 -0.14537569952E+02  0.17116537531E+04  0.17121707348E+04  0.00000000000E+00 0. -1.
         22    1    1    2    0    0 -0.19315591464E+02  0.56395494666E+02  0.33694463646E+03  0.34217719377E+03  0.00000000000E+00 0. -1.
<mgrwt>
<rscale>  0 0.20077634E+03</rscale>
<asrwt>0</asrwt>
<pdfrwt beam="1">  1        2 0.39367581E+00 0.20077634E+03</pdfrwt>
<pdfrwt beam="2">  1       -2 0.60589813E-03 0.20077634E+03</pdfrwt>
<totfact> 0.16290914E+04</totfact>
</mgrwt>
</event>
<event>
 6    1  0.1585031E-006  0.3257097E+04  0.7818608E-02  0.8173899E-01
         -1   -1    0    0    0  501 -0.00000000000E+00  0.00000000000E+00  0.14437058306E+04  0.14437058306E+04  0.00000000000E+00 0.  1.
          1   -1    0    0  501    0  0.00000000000E+00 -0.00000000000E+00 -0.18370571418E+04  0.18370571418E+04  0.00000000000E+00 0. -1.
         23    2    1    2    0    0 -0.65241642253E+03  0.85118404186E+01  0.13047074709E+04  0.14616633964E+04  0.92079639546E+02 0.  0.
         11    1    3    3    0    0 -0.44019426641E+03  0.25797882360E-01  0.78072241458E+03  0.89626920145E+03  0.00000000000E+00 0. -1.
        -11    1    3    3    0    0 -0.21222215613E+03  0.84860425363E+01  0.52398505629E+03  0.56539419495E+03  0.00000000000E+00 0.  1.
         22    1    1    2    0    0  0.65241642253E+03 -0.85118404186E+01 -0.16980587821E+04  0.18190995760E+04  0.00000000000E+00 0. -1.
<mgrwt>
<rscale>  0 0.32570969E+04</rscale>
<asrwt>0</asrwt>
<pdfrwt beam="1">  1        1 0.28262418E+00 0.32570969E+04</pdfrwt>
<pdfrwt beam="2">  1       -1 0.22210859E+00 0.32570969E+04</pdfrwt>
<totfact> 0.34101937E-01</totfact>
</mgrwt>
</event>
<event>
 6    1  0.1585031E-006  0.3346154E+04  0.7818608E-02  0.8151250E-01
         -2   -1    0    0    0  501 -0.00000000000E+00  0.00000000000E+00  0.14155024650E+04  0.14155024650E+04  0.00000000000E+00 0.  1.
          2   -1    0    0  501    0  0.00000000000E+00 -0.00000000000E+00 -0.19775210687E+04  0.19775210687E+04  0.00000000000E+00 0. -1.
         23    2    1    2    0    0 -0.77778043201E+03  0.29731375886E+03 -0.17512808667E+04  0.19412375295E+04  0.89892157511E+02 0.  0.
         11    1    3    3    0    0 -0.48010110416E+03  0.13821408771E+03 -0.10736391643E+04  0.11841880169E+04  0.00000000000E+00 0. -1.
        -11    1    3    3    0    0 -0.29767932785E+03  0.15909967116E+03 -0.67764170242E+03  0.75704951255E+03  0.00000000000E+00 0.  1.
         22    1    1    2    0    0  0.77778043201E+03 -0.29731375886E+03  0.11892622631E+04  0.14517860042E+04  0.00000000000E+00 0.  1.
<mgrwt>
<rscale>  0 0.33461536E+04</rscale>
<asrwt>0</asrwt>
<pdfrwt beam="1">  1        2 0.30423401E+00 0.33461536E+04</pdfrwt>
<pdfrwt beam="2">  1       -2 0.21776961E+00 0.33461536E+04</pdfrwt>
<totfact> 0.58429951E-01</totfact>
</mgrwt>
</event>
<event>
 6    1  0.1585031E-006  0.1627022E+04  0.7818608E-02  0.8804117E-01
         -1   -1    0    0    0  501 -0.00000000000E+00  0.00000000000E+00  0.96726445265E+03  0.96726445265E+03  0.00000000000E+00 0.  1.
          1   -1    0    0  501    0  0.00000000000E+00 -0.00000000000E+00 -0.68419735934E+03  0.68419735934E+03  0.00000000000E+00 0. -1.
         23    2    1    2    0    0 -0.37359431351E+03  0.10668683394E+03 -0.58079248908E+03  0.70425108057E+03  0.87720450771E+02 0.  0.
         11    1    3    3    0    0 -0.23631504172E+03  0.87179383900E+02 -0.43768086658E+03  0.50498473728E+03  0.00000000000E+00 0. -1.
        -11    1    3    3    0    0 -0.13727927179E+03  0.19507450040E+02 -0.14311162250E+03  0.19926634328E+03  0.00000000000E+00 0.  1.
         22    1    1    2    0    0  0.37359431351E+03 -0.10668683394E+03  0.86385958239E+03  0.94721073142E+03  0.00000000000E+00 0.  1.
<mgrwt>
<rscale>  0 0.16270216E+04</rscale>
<asrwt>0</asrwt>
<pdfrwt beam="1">  1        1 0.10526113E+00 0.16270216E+04</pdfrwt>
<pdfrwt beam="2">  1       -1 0.14880992E+00 0.16270216E+04</pdfrwt>
<totfact> 0.96266594E+00</totfact>
</mgrwt>
</event>
<event>
 6    1  0.1585031E-006  0.1592581E+04  0.7818608E-02  0.8825119E-01
         -1   -1    0    0    0  501 -0.00000000000E+00  0.00000000000E+00  0.17588640752E+03  0.17588640752E+03  0.00000000000E+00 0.  1.
          1   -1    0    0  501    0  0.00000000000E+00 -0.00000000000E+00 -0.36050464492E+04  0.36050464492E+04  0.00000000000E+00 0. -1.
         23    2    1    2    0    0  0.27229940783E+03  0.66304973722E+03 -0.25295017058E+04  0.26306428746E+04  0.90117327721E+02 0.  0.
         11    1    3    3    0    0  0.34800770909E+02  0.11171685892E+03 -0.54064632009E+03  0.55316380363E+03  0.00000000000E+00 0. -1.
        -11    1    3    3    0    0  0.23749863692E+03  0.55133287831E+03 -0.19888553857E+04  0.20774790710E+04  0.00000000000E+00 0.  1.
         22    1    1    2    0    0 -0.27229940783E+03 -0.66304973722E+03 -0.89965833591E+03  0.11502899821E+04  0.00000000000E+00 0. -1.
<mgrwt>
<rscale>  0 0.15925811E+04</rscale>
<asrwt>0</asrwt>
<pdfrwt beam="1">  1        1 0.55462251E+00 0.15925811E+04</pdfrwt>
<pdfrwt beam="2">  1       -1 0.27059448E-01 0.15925811E+04</pdfrwt>
<totfact> 0.24444238E+00</totfact>
</mgrwt>
</event>
<event>
 6    1  0.1585031E-006  0.5537169E+04  0.7818608E-02  0.7750595E-01
          2   -1    0    0  501    0  0.00000000000E+00  0.00000000000E+00  0.37419228952E+04  0.37419228952E+04  0.00000000000E+00 0. -1.
         -2   -1    0    0    0  501 -0.00000000000E+00 -0.00000000000E+00 -0.20484278179E+04  0.20484278179E+04  0.00000000000E+00 0.  1.
         23    2    1    2    0    0  0.82444670450E+03  0.22728462823E+04 -0.56195332440E+03  0.24839039671E+04  0.91895524052E+02 0.  0.
         11    1    3    3    0    0  0.28287814427E+03  0.66047063477E+03 -0.17745230642E+03  0.74008838996E+03  0.00000000000E+00 0. -1.
        -11    1    3    3    0    0  0.54156856023E+03  0.16123756475E+04 -0.38450101798E+03  0.17438155771E+04  0.00000000000E+00 0.  1.
         22    1    1    2    0    0 -0.82444670450E+03 -0.22728462823E+04  0.22554484016E+04  0.33064467460E+04  0.00000000000E+00 0. -1.
<mgrwt>
<rscale>  0 0.55371686E+04</rscale>
<asrwt>0</asrwt>
<pdfrwt beam="1">  1        2 0.57568045E+00 0.55371686E+04</pdfrwt>
<pdfrwt beam="2">  1       -2 0.31514274E+00 0.55371686E+04</pdfrwt>
<totfact> 0.96925764E-03</totfact>
</mgrwt>
</event>
<event>
 6    1  0.1585031E-006  0.3175479E+04  0.7818608E-02  0.8195323E-01
         -1   -1    0    0    0  501 -0.00000000000E+00  0.00000000000E+00  0.18629397087E+04  0.18629397087E+04  0.00000000000E+00 0.  1.
          1   -1    0    0  501    0  0.00000000000E+00 -0.00000000000E+00 -0.13531926652E+04  0.13531926652E+04  0.00000000000E+00 0. -1.
         23    2    1    2    0    0 -0.58446874269E+03 -0.90333771964E+03  0.14358815652E+04  0.17965028803E+04  0.89688253365E+02 0.  0.
         11    1    3    3    0    0 -0.23488169077E+03 -0.43159792672E+03  0.61330158850E+03  0.78586577573E+03  0.00000000000E+00 0.  1.
        -11    1    3    3    0    0 -0.34958705192E+03 -0.47173979292E+03  0.82257997671E+03  0.10106371046E+04  0.00000000000E+00 0. -1.
         22    1    1    2    0    0  0.58446874269E+03  0.90333771964E+03 -0.92613452167E+03  0.14196294936E+04  0.00000000000E+00 0. -1.
<mgrwt>
<rscale>  0 0.31754788E+04</rscale>
<asrwt>0</asrwt>
<pdfrwt beam="1">  1        1 0.20818349E+00 0.31754788E+04</pdfrwt>
<pdfrwt beam="2">  1       -1 0.28660611E+00 0.31754788E+04</pdfrwt>
<totfact> 0.28029728E-01</totfact>
</mgrwt>
</event>
<event>
 6    1  0.1585031E-006  0.2122084E+04  0.7818608E-02  0.8551577E-01
         -2   -1    0    0    0  501 -0.00000000000E+00  0.00000000000E+00  0.96549348433E+03  0.96549348433E+03  0.00000000000E+00 0. -1.
          2   -1    0    0  501    0  0.00000000000E+00 -0.00000000000E+00 -0.11660459218E+04  0.11660459218E+04  0.00000000000E+00 0.  1.
         23    2    1    2    0    0 -0.85150966250E+03 -0.41809217107E+03  0.37254865141E+03  0.10232458408E+04  0.91486524714E+02 0.  0.
         11    1    3    3    0    0 -0.20103971008E+03 -0.66392799302E+02  0.10974747237E+03  0.23847321971E+03  0.00000000000E+00 0.  1.
        -11    1    3    3    0    0 -0.65046995242E+03 -0.35169937177E+03  0.26280117904E+03  0.78477262109E+03  0.00000000000E+00 0. -1.
         22    1    1    2    0    0  0.85150966250E+03  0.41809217107E+03 -0.57310108887E+03  0.11082935653E+04  0.00000000000E+00 0.  1.
<mgrwt>
<rscale>  0 0.21220836E+04</rscale>
<asrwt>0</asrwt>
<pdfrwt beam="1">  1        2 0.17939168E+00 0.21220836E+04</pdfrwt>
<pdfrwt beam="2">  1       -2 0.14853746E+00 0.21220836E+04</pdfrwt>
<totfact> 0.56160414E+00</totfact>
</mgrwt>
</event>
<event>
 6    1  0.1585031E-006  0.7661924E+03  0.7818608E-02  0.9610284E-01
          1   -1    0    0  501    0  0.00000000000E+00  0.00000000000E+00  0.11635480653E+03  0.11635480653E+03  0.00000000000E+00 0. -1.
         -1   -1    0    0    0  501 -0.00000000000E+00 -0.00000000000E+00 -0.12613376199E+04  0.12613376199E+04  0.00000000000E+00 0.  1.
         23    2    1    2    0    0 -0.22270933178E+02  0.29341224150E+03 -0.15646024535E+03  0.34630326351E+03  0.94124407123E+02 0.  0.
         11    1    3    3    0    0 -0.47782808687E+02  0.16684224602E+03 -0.12362189419E+03  0.21307722681E+03  0.00000000000E+00 0.  1.
        -11    1    3    3    0    0  0.25511875508E+02  0.12656999548E+03 -0.32838351167E+02  0.13322603670E+03  0.00000000000E+00 0. -1.
         22    1    1    2    0    0  0.22270933178E+02 -0.29341224150E+03 -0.98852256805E+03  0.10313891630E+04  0.00000000000E+00 0.  1.
<mgrwt>
<rscale>  0 0.76619239E+03</rscale>
<asrwt>0</asrwt>
<pdfrwt beam="1">  1        1 0.17900740E-01 0.76619239E+03</pdfrwt>
<pdfrwt beam="2">  1       -1 0.19405194E+00 0.76619239E+03</pdfrwt>
<totfact> 0.51387559E+01</totfact>
</mgrwt>
</event>
<event>
 6    1  0.1585031E-006  0.3117640E+04  0.7818608E-02  0.8210913E-01
          2   -1    0    0  501    0  0.00000000000E+00  0.00000000000E+00  0.19931889750E+04  0.19931889750E+04  0.00000000000E+00 0.  1.
         -2   -1    0    0    0  501 -0.00000000000E+00 -0.00000000000E+00 -0.12191117532E+04  0.12191117532E+04  0.00000000000E+00 0. -1.
         23    2    1    2    0    0  0.29864913019E+03  0.58009991531E+03 -0.10698230387E+04  0.12563673486E+04  0.90721363264E+02 0.  0.
         11    1    3    3    0    0  0.28754579419E+03  0.51540983152E+03 -0.99465281219E+03  0.11565742929E+04  0.00000000000E+00 0. -1.
        -11    1    3    3    0    0  0.11103335995E+02  0.64690083789E+02 -0.75170226529E+02  0.99793055706E+02  0.00000000000E+00 0.  1.
         22    1    1    2    0    0 -0.29864913019E+03 -0.58009991531E+03  0.18439002605E+04  0.19559333796E+04  0.00000000000E+00 0.  1.
<mgrwt>
<rscale>  0 0.31176402E+04</rscale>
<asrwt>0</asrwt>
<pdfrwt beam="1">  1        2 0.30664446E+00 0.31176402E+04</pdfrwt>
<pdfrwt beam="2">  1       -2 0.18755565E+00 0.31176402E+04</pdfrwt>
<totfact> 0.91997184E-01</totfact>
</mgrwt>
</event>
<event>
 6    1  0.1585031E-006  0.1202962E+04  0.7818608E-02  0.9110268E-01
          1   -1    0    0  501    0  0.00000000000E+00  0.00000000000E+00  0.21670643037E+04  0.21670643037E+04  0.00000000000E+00 0. -1.
         -1   -1    0    0    0  501 -0.00000000000E+00 -0.00000000000E+00 -0.16694438777E+03  0.16694438777E+03  0.00000000000E+00 0.  1.
         23    2    1    2    0    0 -0.29686946127E+01 -0.35159864746E+03  0.79596195277E+02  0.38156361321E+03  0.12499925831E+03 0.  0.
         11    1    3    3    0    0 -0.21264218014E+02 -0.25686311814E+03  0.11024068551E+03  0.28032808845E+03  0.00000000000E+00 0.  1.
        -11    1    3    3    0    0  0.18295523401E+02 -0.94735529316E+02 -0.30644490237E+02  0.10123552476E+03  0.00000000000E+00 0. -1.
         22    1    1    2    0    0  0.29686946127E+01  0.35159864746E+03  0.19205237207E+04  0.19524450783E+04  0.00000000000E+00 0. -1.
<mgrwt>
<rscale>  0 0.12029617E+04</rscale>
<asrwt>0</asrwt>
<pdfrwt beam="1">  1        1 0.33339449E+00 0.12029617E+04</pdfrwt>
<pdfrwt beam="2">  1       -1 0.25683753E-01 0.12029617E+04</pdfrwt>
<totfact> 0.30449218E+01</totfact>
</mgrwt>
</event>
<event>
 6    1  0.1585031E-006  0.3000157E+04  0.7818608E-02  0.8243686E-01
          2   -1    0    0  501    0  0.00000000000E+00  0.00000000000E+00  0.23211239868E+04  0.23211239868E+04  0.00000000000E+00 0. -1.
         -2   -1    0    0    0  501 -0.00000000000E+00 -0.00000000000E+00 -0.96945970545E+03  0.96945970545E+03  0.00000000000E+00 0.  1.
         23    2    1    2    0    0 -0.14029034586E+04  0.17595638472E+03  0.13008377818E+03  0.14220661812E+04  0.79067508172E+02 0.  0.
         11    1    3    3    0    0 -0.59273887341E+03  0.72076301004E+02  0.94121521635E+02  0.60447764728E+03  0.00000000000E+00 0. -1.
        -11    1    3    3    0    0 -0.81016458518E+03  0.10388008371E+03  0.35962256550E+02  0.81758853390E+03  0.00000000000E+00 0.  1.
         22    1    1    2    0    0  0.14029034586E+04 -0.17595638472E+03  0.12215805032E+04  0.18685175111E+04  0.00000000000E+00 0. -1.
<mgrwt>
<rscale>  0 0.30001574E+04</rscale>
<asrwt>0</asrwt>
<pdfrwt beam="1">  1        2 0.35709600E+00 0.30001574E+04</pdfrwt>
<pdfrwt beam="2">  1       -2 0.14914765E+00 0.30001574E+04</pdfrwt>
<totfact> 0.11481677E+00</totfact>
</mgrwt>
</event>
<event>
 6    1  0.1585031E-006  0.5386153E+03  0.7818608E-02  0.1004164E+00
         -1   -1    0    0    0  501 -0.00000000000E+00  0.00000000000E+00  0.18326947455E+03  0.18326947455E+03  0.00000000000E+00 0.  1.
          1   -1    0    0  501    0  0.00000000000E+00 -0.00000000000E+00 -0.39573748637E+03  0.39573748637E+03  0.00000000000E+00 0. -1.
         23    2    1    2    0    0 -0.19023735645E+03 -0.74835116012E+02  0.65907724168E+02  0.23363238634E+03  0.91922344745E+02 0.  0.
         13    1    3    3    0    0 -0.14357447740E+03 -0.12802390970E+02  0.58827238371E+02  0.15568614502E+03  0.00000000000E+00 0.  1.
        -13    1    3    3    0    0 -0.46662879050E+02 -0.62032725041E+02  0.70804857972E+01  0.77946241323E+02  0.00000000000E+00 0. -1.
         22    1    1    2    0    0  0.19023735645E+03  0.74835116012E+02 -0.27837573599E+03  0.34537457458E+03  0.00000000000E+00 0. -1.
<mgrwt>
<rscale>  0 0.53861527E+03</rscale>
<asrwt>0</asrwt>
<pdfrwt beam="1">  1        1 0.60882690E-01 0.53861527E+03</pdfrwt>
<pdfrwt beam="2">  1       -1 0.28195304E-01 0.53861527E+03</pdfrwt>
<totfact> 0.69744623E+02</totfact>
</mgrwt>
</event>
<event>
 6    1  0.1585031E-006  0.2643369E+04  0.7818608E-02  0.8353617E-01
         -2   -1    0    0    0  501 -0.00000000000E+00  0.00000000000E+00  0.52440798788E+03  0.52440798788E+03  0.00000000000E+00 0.  1.
          2   -1    0    0  501    0  0.00000000000E+00 -0.00000000000E+00 -0.33310896994E+04  0.33310896994E+04  0.00000000000E+00 0. -1.
         23    2    1    2    0    0  0.98072933808E+02 -0.12998852498E+04 -0.11004035404E+04  0.17082424252E+04  0.88793403783E+02 0.  0.
         11    1    3    3    0    0  0.51804508739E+01 -0.45459644336E+03 -0.42398549230E+03  0.62164978973E+03  0.00000000000E+00 0.  1.
        -11    1    3    3    0    0  0.92892482934E+02 -0.84528880647E+03 -0.67641804805E+03  0.10865926355E+04  0.00000000000E+00 0. -1.
         22    1    1    2    0    0 -0.98072933808E+02  0.12998852498E+04 -0.17062781711E+04  0.21472552621E+04  0.00000000000E+00 0. -1.
<mgrwt>
<rscale>  0 0.26433691E+04</rscale>
<asrwt>0</asrwt>
<pdfrwt beam="1">  1        2 0.51247534E+00 0.26433691E+04</pdfrwt>
<pdfrwt beam="2">  1       -2 0.80678152E-01 0.26433691E+04</pdfrwt>
<totfact> 0.12693616E+00</totfact>
</mgrwt>
</event>
<event>
 6    1  0.1585031E-006  0.6440236E+04  0.7818608E-02  0.7638092E-01
          1   -1    0    0  501    0  0.00000000000E+00  0.00000000000E+00  0.31327837816E+04  0.31327837816E+04  0.00000000000E+00 0. -1.
         -1   -1    0    0    0  501 -0.00000000000E+00 -0.00000000000E+00 -0.33098865986E+04  0.33098865986E+04  0.00000000000E+00 0.  1.
         23    2    1    2    0    0 -0.11328397652E+04  0.61025168111E+03  0.28637263631E+04  0.31407958897E+04  0.89090345491E+02 0.  0.
         11    1    3    3    0    0 -0.85887474293E+03  0.47927487279E+03  0.22700928781E+04  0.24740032140E+04  0.00000000000E+00 0. -1.
        -11    1    3    3    0    0 -0.27396502226E+03  0.13097680832E+03  0.59363348509E+03  0.66679267569E+03  0.00000000000E+00 0.  1.
         22    1    1    2    0    0  0.11328397652E+04 -0.61025168111E+03 -0.30408291801E+04  0.33018744905E+04  0.00000000000E+00 0.  1.
<mgrwt>
<rscale>  0 0.64402357E+04</rscale>
<asrwt>0</asrwt>
<pdfrwt beam="1">  1        1 0.48196674E+00 0.64402357E+04</pdfrwt>
<pdfrwt beam="2">  1       -1 0.50921332E+00 0.64402357E+04</pdfrwt>
<totfact> 0.40647877E-04</totfact>
</mgrwt>
</event>
<event>
 6    1  0.1585031E-006  0.1706406E+04  0.7818608E-02  0.8757719E-01
         -2   -1    0    0    0  501 -0.00000000000E+00  0.00000000000E+00  0.13038982101E+04  0.13038982101E+04  0.00000000000E+00 0.  1.
          2   -1    0    0  501    0  0.00000000000E+00 -0.00000000000E+00 -0.55829167765E+03  0.55829167765E+03  0.00000000000E+00 0. -1.
         23    2    1    2    0    0 -0.63022454480E+02  0.35789029298E+03  0.12135486187E+04  0.12697144978E+04  0.86124122890E+02 0.  0.
         13    1    3    3    0    0 -0.18010880157E+02  0.28981400123E+03  0.89781680749E+03  0.94360562044E+03  0.00000000000E+00 0.  1.
        -13    1    3    3    0    0 -0.45011574323E+02  0.68076291748E+02  0.31573181117E+03  0.32610887738E+03  0.00000000000E+00 0. -1.
         22    1    1    2    0    0  0.63022454480E+02 -0.35789029298E+03 -0.46794208623E+03  0.59247538991E+03  0.00000000000E+00 0. -1.
<mgrwt>
<rscale>  0 0.17064062E+04</rscale>
<asrwt>0</asrwt>
<pdfrwt beam="1">  1        2 0.85891028E-01 0.17064062E+04</pdfrwt>
<pdfrwt beam="2">  1       -2 0.20059972E+00 0.17064062E+04</pdfrwt>
<totfact> 0.67729086E+00</totfact>
</mgrwt>
</event>
<event>
 6    1  0.1585031E-006  0.2154339E+04  0.7818608E-02  0.8537677E-01
         -1   -1    0    0    0  501 -0.00000000000E+00  0.00000000000E+00  0.94892880118E+03  0.94892880118E+03  0.00000000000E+00 0.  1.
          1   -1    0    0  501    0  0.00000000000E+00 -0.00000000000E+00 -0.12227411193E+04  0.12227411193E+04  0.00000000000E+00 0. -1.
         23    2    1    2    0    0  0.22959983403E+03 -0.10108958624E+04 -0.42481185474E+03  0.11240882347E+04  0.92101677092E+02 0.  0.
         13    1    3    3    0    0  0.75020377571E+02 -0.28122331297E+03 -0.76753823740E+02  0.30100790400E+03  0.00000000000E+00 0.  1.
        -13    1    3    3    0    0  0.15457945646E+03 -0.72967254947E+03 -0.34805803100E+03  0.82308033068E+03  0.00000000000E+00 0. -1.
         22    1    1    2    0    0 -0.22959983403E+03  0.10108958624E+04  0.15099953659E+03  0.10475816859E+04  0.00000000000E+00 0.  1.
<mgrwt>
<rscale>  0 0.21543391E+04</rscale>
<asrwt>0</asrwt>
<pdfrwt beam="1">  1        1 0.18811402E+00 0.21543391E+04</pdfrwt>
<pdfrwt beam="2">  1       -1 0.14598905E+00 0.21543391E+04</pdfrwt>
<totfact> 0.35327410E+00</totfact>
</mgrwt>
</event>
<event>
 6    1  0.1585031E-006  0.3081108E+04  0.7818608E-02  0.8220942E-01
          2   -1    0    0  501    0  0.00000000000E+00  0.00000000000E+00  0.17598594540E+04  0.17598594540E+04  0.00000000000E+00 0. -1.
         -2   -1    0    0    0  501 -0.00000000000E+00 -0.00000000000E+00 -0.13485775669E+04  0.13485775669E+04  0.00000000000E+00 0.  1.
         23    2    1    2    0    0 -0.83261501772E+03 -0.49577342184E+03 -0.10005697101E+04  0.13960223556E+04  0.93271747622E+02 0.  0.
         11    1    3    3    0    0 -0.43201585151E+03 -0.29970156759E+03 -0.49992116227E+03  0.72552042980E+03  0.00000000000E+00 0. -1.
        -11    1    3    3    0    0 -0.40059916622E+03 -0.19607185425E+03 -0.50064854782E+03  0.67050192575E+03  0.00000000000E+00 0.  1.
         22    1    1    2    0    0  0.83261501772E+03  0.49577342184E+03  0.14118515972E+04  0.17124146653E+04  0.00000000000E+00 0. -1.
<mgrwt>
<rscale>  0 0.30811082E+04</rscale>
<asrwt>0</asrwt>
<pdfrwt beam="1">  1        2 0.27074761E+00 0.30811082E+04</pdfrwt>
<pdfrwt beam="2">  1       -2 0.20747347E+00 0.30811082E+04</pdfrwt>
<totfact> 0.91836966E-01</totfact>
</mgrwt>
</event>
<event>
 6    1  0.1585031E-006  0.2770345E+04  0.7818608E-02  0.8312535E-01
          2   -1    0    0  501    0  0.00000000000E+00  0.00000000000E+00  0.11077681583E+04  0.11077681583E+04  0.00000000000E+00 0. -1.
         -2   -1    0    0    0  501 -0.00000000000E+00 -0.00000000000E+00 -0.17320434498E+04  0.17320434498E+04  0.00000000000E+00 0.  1.
         23    2    1    2    0    0 -0.42905571443E+03 -0.11916253839E+04 -0.88151025105E+03  0.15474379445E+04  0.11594829778E+03 0.  0.
         11    1    3    3    0    0 -0.52114211531E+02 -0.24836407969E+03 -0.21396969919E+03  0.33193921024E+03  0.00000000000E+00 0. -1.
        -11    1    3    3    0    0 -0.37694150290E+03 -0.94326130425E+03 -0.66754055186E+03  0.12154987343E+04  0.00000000000E+00 0.  1.
         22    1    1    2    0    0  0.42905571443E+03  0.11916253839E+04  0.25723495962E+03  0.12923736635E+04  0.00000000000E+00 0. -1.
<mgrwt>
<rscale>  0 0.27703448E+04</rscale>
<asrwt>0</asrwt>
<pdfrwt beam="1">  1        2 0.17042587E+00 0.27703448E+04</pdfrwt>
<pdfrwt beam="2">  1       -2 0.26646822E+00 0.27703448E+04</pdfrwt>
<totfact> 0.95730714E-01</totfact>
</mgrwt>
</event>
<event>
 6    1  0.2382856E-006  0.3455404E+04  0.7818608E-02  0.8124441E-01
          1   -1    0    0  501    0  0.00000000000E+00  0.00000000000E+00  0.13635245749E+04  0.13635245749E+04  0.00000000000E+00 0. -1.
         -1   -1    0    0    0  501 -0.00000000000E+00 -0.00000000000E+00 -0.21891464533E+04  0.21891464533E+04  0.00000000000E+00 0.  1.
         23    2    1    2    0    0  0.95558085764E+03 -0.60707475900E+03 -0.17532638507E+04  0.20890473857E+04  0.92251347103E+02 0.  0.
         13    1    3    3    0    0  0.49335835532E+03 -0.33665921708E+03 -0.10008188403E+04  0.11654957084E+04  0.00000000000E+00 0.  1.
        -13    1    3    3    0    0  0.46222250232E+03 -0.27041554192E+03 -0.75244501033E+03  0.92355167724E+03  0.00000000000E+00 0. -1.
         22    1    1    2    0    0 -0.95558085764E+03  0.60707475900E+03  0.92764197222E+03  0.14636236426E+04  0.00000000000E+00 0. -1.
<mgrwt>
<rscale>  0 0.34554045E+04</rscale>
<asrwt>0</asrwt>
<pdfrwt beam="1">  1        1 0.20977301E+00 0.34554045E+04</pdfrwt>
<pdfrwt beam="2">  1       -1 0.33679176E+00 0.34554045E+04</pdfrwt>
<totfact> 0.12676037E-01</totfact>
</mgrwt>
</event>
<event>
 6    1  0.1585031E-006  0.1014025E+04  0.7818608E-02  0.9293295E-01
         -2   -1    0    0    0  501 -0.00000000000E+00  0.00000000000E+00  0.25064952970E+03  0.25064952970E+03  0.00000000000E+00 0.  1.
          2   -1    0    0  501    0  0.00000000000E+00 -0.00000000000E+00 -0.10255822163E+04  0.10255822163E+04  0.00000000000E+00 0. -1.
         23    2    1    2    0    0 -0.32443849171E+03  0.33165333038E+03 -0.14760963684E+03  0.49598276317E+03  0.94636303900E+02 0.  0.
         11    1    3    3    0    0 -0.93449158841E+02  0.13307971966E+03 -0.13547682093E+02  0.16317627513E+03  0.00000000000E+00 0. -1.
        -11    1    3    3    0    0 -0.23098933287E+03  0.19857361072E+03 -0.13406195475E+03  0.33280648804E+03  0.00000000000E+00 0.  1.
         22    1    1    2    0    0  0.32443849171E+03 -0.33165333038E+03 -0.62732304980E+03  0.78024898286E+03  0.00000000000E+00 0. -1.
<mgrwt>
<rscale>  0 0.10140250E+04</rscale>
<asrwt>0</asrwt>
<pdfrwt beam="1">  1        2 0.15778188E+00 0.10140250E+04</pdfrwt>
<pdfrwt beam="2">  1       -2 0.38561465E-01 0.10140250E+04</pdfrwt>
<totfact> 0.15359168E+02</totfact>
</mgrwt>
</event>
<event>
 6    1  0.1585031E-006  0.2475064E+04  0.7818608E-02  0.8411923E-01
          2   -1    0    0  501    0  0.00000000000E+00  0.00000000000E+00  0.13800663956E+04  0.13800663956E+04  0.00000000000E+00 0. -1.
         -2   -1    0    0    0  501 -0.00000000000E+00 -0.00000000000E+00 -0.11097188081E+04  0.11097188081E+04  0.00000000000E+00 0.  1.
         23    2    1    2    0    0  0.42934835583E+03  0.11265328035E+04  0.40847934036E+03  0.12763205157E+04  0.93394428144E+02 0.  0.
         11    1    3    3    0    0  0.37588791499E+03  0.91277162242E+03  0.35976953532E+03  0.10506559274E+04  0.00000000000E+00 0.  1.
        -11    1    3    3    0    0  0.53460440834E+02  0.21376118111E+03  0.48709805040E+02  0.22566458825E+03  0.00000000000E+00 0. -1.
         22    1    1    2    0    0 -0.42934835583E+03 -0.11265328035E+04 -0.13813175288E+03  0.12134646881E+04  0.00000000000E+00 0.  1.
<mgrwt>
<rscale>  0 0.24750641E+04</rscale>
<asrwt>0</asrwt>
<pdfrwt beam="1">  1        2 0.21231791E+00 0.24750641E+04</pdfrwt>
<pdfrwt beam="2">  1       -2 0.17072597E+00 0.24750641E+04</pdfrwt>
<totfact> 0.27968290E+00</totfact>
</mgrwt>
</event>
<event>
 6    1  0.1585031E-006  0.3500308E+04  0.7818608E-02  0.8113717E-01
          2   -1    0    0  501    0  0.00000000000E+00  0.00000000000E+00  0.19558170664E+04  0.19558170664E+04  0.00000000000E+00 0. -1.
         -2   -1    0    0    0  501 -0.00000000000E+00 -0.00000000000E+00 -0.15661169359E+04  0.15661169359E+04  0.00000000000E+00 0.  1.
         23    2    1    2    0    0 -0.12749185199E+03 -0.71347546958E+03  0.17964605224E+04  0.19394434910E+04  0.94176580307E+02 0.  0.
         11    1    3    3    0    0 -0.12252577199E+03 -0.42562244892E+03  0.11014994745E+04  0.11872102282E+04  0.00000000000E+00 0.  1.
        -11    1    3    3    0    0 -0.49660799967E+01 -0.28785302066E+03  0.69496104797E+03  0.75223326279E+03  0.00000000000E+00 0. -1.
         22    1    1    2    0    0  0.12749185199E+03  0.71347546958E+03 -0.14067603919E+04  0.15824905113E+04  0.00000000000E+00 0.  1.
<mgrwt>
<rscale>  0 0.35003075E+04</rscale>
<asrwt>0</asrwt>
<pdfrwt beam="1">  1        2 0.30089493E+00 0.35003075E+04</pdfrwt>
<pdfrwt beam="2">  1       -2 0.24094107E+00 0.35003075E+04</pdfrwt>
<totfact> 0.42463370E-01</totfact>
</mgrwt>
</event>
<event>
 6    1  0.1585031E-006  0.2562253E+04  0.7818608E-02  0.8381137E-01
         -1   -1    0    0    0  501 -0.00000000000E+00  0.00000000000E+00  0.87748539956E+03  0.87748539956E+03  0.00000000000E+00 0.  1.
          1   -1    0    0  501    0  0.00000000000E+00 -0.00000000000E+00 -0.18704409781E+04  0.18704409781E+04  0.00000000000E+00 0. -1.
         23    2    1    2    0    0 -0.52097226567E+03  0.10279846748E+04  0.98976602118E+02  0.11603242612E+04  0.91604749479E+02 0.  0.
         11    1    3    3    0    0 -0.34133812574E+03  0.57445064336E+03  0.63590079602E+02  0.67122943615E+03  0.00000000000E+00 0.  1.
        -11    1    3    3    0    0 -0.17963413993E+03  0.45353403142E+03  0.35386522517E+02  0.48909482502E+03  0.00000000000E+00 0. -1.
         22    1    1    2    0    0  0.52097226567E+03 -0.10279846748E+04 -0.10919321807E+04  0.15876021165E+04  0.00000000000E+00 0. -1.
<mgrwt>
<rscale>  0 0.25622526E+04</rscale>
<asrwt>0</asrwt>
<pdfrwt beam="1">  1        1 0.28776015E+00 0.25622526E+04</pdfrwt>
<pdfrwt beam="2">  1       -1 0.13499776E+00 0.25622526E+04</pdfrwt>
<totfact> 0.14851487E+00</totfact>
</mgrwt>
</event>
<event>
 6    1  0.1585031E-006  0.4949897E+04  0.7818608E-02  0.7836283E-01
         -1   -1    0    0    0  501 -0.00000000000E+00  0.00000000000E+00  0.20730854334E+04  0.20730854334E+04  0.00000000000E+00 0.  1.
          1   -1    0    0  501    0  0.00000000000E+00 -0.00000000000E+00 -0.29547115448E+04  0.29547115448E+04  0.00000000000E+00 0. -1.
         23    2    1    2    0    0 -0.79717270531E+03 -0.73014848183E+03  0.18195845094E+04  0.21183056230E+04  0.87919270517E+02 0.  0.
         13    1    3    3    0    0 -0.34787000466E+03 -0.29426086496E+03  0.69008623821E+03  0.82693531365E+03  0.00000000000E+00 0. -1.
        -13    1    3    3    0    0 -0.44930270065E+03 -0.43588761687E+03  0.11294982712E+04  0.12913703094E+04  0.00000000000E+00 0.  1.
         22    1    1    2    0    0  0.79717270531E+03  0.73014848183E+03 -0.27012106209E+04  0.29094913552E+04  0.00000000000E+00 0. -1.
<mgrwt>
<rscale>  0 0.49498968E+04</rscale>
<asrwt>0</asrwt>
<pdfrwt beam="1">  1        1 0.45457101E+00 0.49498968E+04</pdfrwt>
<pdfrwt beam="2">  1       -1 0.31893622E+00 0.49498968E+04</pdfrwt>
<totfact> 0.11624541E-02</totfact>
</mgrwt>
</event>
<event>
 6    1  0.1585031E-006  0.1687808E+04  0.7818608E-02  0.8768348E-01
          1   -1    0    0  501    0  0.00000000000E+00  0.00000000000E+00  0.14311871841E+04  0.14311871841E+04  0.00000000000E+00 0.  1.
         -1   -1    0    0    0  501 -0.00000000000E+00 -0.00000000000E+00 -0.49761085683E+03  0.49761085683E+03  0.00000000000E+00 0. -1.
         23    2    1    2    0    0 -0.69402388312E+03  0.34182941499E+03  0.88341945496E+02  0.78296312289E+03  0.81917355781E+02 0.  0.
         13    1    3    3    0    0 -0.21839753840E+03  0.70219586808E+02  0.42705709666E+02  0.23334963635E+03  0.00000000000E+00 0. -1.
        -13    1    3    3    0    0 -0.47562634473E+03  0.27160982818E+03  0.45636235830E+02  0.54961348654E+03  0.00000000000E+00 0.  1.
         22    1    1    2    0    0  0.69402388312E+03 -0.34182941499E+03  0.84523438182E+03  0.11458349181E+04  0.00000000000E+00 0. -1.
<mgrwt>
<rscale>  0 0.16878084E+04</rscale>
<asrwt>0</asrwt>
<pdfrwt beam="1">  1        1 0.22018264E+00 0.16878084E+04</pdfrwt>
<pdfrwt beam="2">  1       -1 0.76555517E-01 0.16878084E+04</pdfrwt>
<totfact> 0.11916530E+01</totfact>
</mgrwt>
</event>
<event>
 6    1  0.1585031E-006  0.9082815E+03  0.7818608E-02  0.9415288E-01
          2   -1    0    0  501    0  0.00000000000E+00  0.00000000000E+00  0.29579907682E+04  0.29579907682E+04  0.00000000000E+00 0.  1.
         -2   -1    0    0    0  501 -0.00000000000E+00 -0.00000000000E+00 -0.69724295210E+02  0.69724295210E+02  0.00000000000E+00 0. -1.
         23    2    1    2    0    0 -0.16472590396E+03  0.65305261371E+02  0.28353527112E+04  0.28427846257E+04  0.10392319699E+03 0.  0.
         13    1    3    3    0    0 -0.92292887148E+02 -0.11682862998E+02  0.97394210341E+03  0.97837502376E+03  0.00000000000E+00 0.  1.
        -13    1    3    3    0    0 -0.72433016813E+02  0.76988124369E+02  0.18614106078E+04  0.18644096020E+04  0.00000000000E+00 0. -1.
         22    1    1    2    0    0  0.16472590396E+03 -0.65305261371E+02  0.52913761830E+02  0.18493043770E+03  0.00000000000E+00 0. -1.
<mgrwt>
<rscale>  0 0.90828150E+03</rscale>
<asrwt>0</asrwt>
<pdfrwt beam="1">  1        2 0.45507540E+00 0.90828150E+03</pdfrwt>
<pdfrwt beam="2">  1       -2 0.10726817E-01 0.90828150E+03</pdfrwt>
<totfact> 0.11718262E+02</totfact>
</mgrwt>
</event>
<event>
 6    1  0.1585031E-006  0.9311210E+03  0.7818608E-02  0.9387494E-01
         -2   -1    0    0    0  501 -0.00000000000E+00  0.00000000000E+00  0.79601059593E+02  0.79601059593E+02  0.00000000000E+00 0. -1.
          2   -1    0    0  501    0  0.00000000000E+00 -0.00000000000E+00 -0.27229109369E+04  0.27229109369E+04  0.00000000000E+00 0.  1.
         23    2    1    2    0    0  0.17835269342E+03  0.35623073144E+03 -0.20325920093E+04  0.20733437501E+04  0.92811704146E+02 0.  0.
         13    1    3    3    0    0  0.55676676926E+01  0.70952614452E+02 -0.48721031201E+03  0.49238111311E+03  0.00000000000E+00 0.  1.
        -13    1    3    3    0    0  0.17278502573E+03  0.28527811699E+03 -0.15453816973E+04  0.15809626370E+04  0.00000000000E+00 0. -1.
         22    1    1    2    0    0 -0.17835269342E+03 -0.35623073144E+03 -0.61071786797E+03  0.72916824638E+03  0.00000000000E+00 0. -1.
<mgrwt>
<rscale>  0 0.93112104E+03</rscale>
<asrwt>0</asrwt>
<pdfrwt beam="1">  1        2 0.41890928E+00 0.93112104E+03</pdfrwt>
<pdfrwt beam="2">  1       -2 0.12246320E-01 0.93112104E+03</pdfrwt>
<totfact> 0.12987414E+02</totfact>
</mgrwt>
</event>
<event>
 6    1  0.1585031E-006  0.2194070E+04  0.7818608E-02  0.8520900E-01
         -2   -1    0    0    0  501 -0.00000000000E+00  0.00000000000E+00  0.93842865635E+03  0.93842865635E+03  0.00000000000E+00 0.  1.
          2   -1    0    0  501    0  0.00000000000E+00 -0.00000000000E+00 -0.12824483713E+04  0.12824483713E+04  0.00000000000E+00 0. -1.
         23    2    1    2    0    0  0.58282078232E+02  0.10920672156E+04 -0.11528562102E+03  0.11035915271E+04  0.92821765724E+02 0.  0.
         11    1    3    3    0    0  0.32336739392E+01  0.42669388372E+03 -0.39430326548E+01  0.42672435431E+03  0.00000000000E+00 0.  1.
        -11    1    3    3    0    0  0.55048404292E+02  0.66537333188E+03 -0.11134258836E+03  0.67686717277E+03  0.00000000000E+00 0. -1.
         22    1    1    2    0    0 -0.58282078232E+02 -0.10920672156E+04 -0.22873409392E+03  0.11172855006E+04  0.00000000000E+00 0. -1.
<mgrwt>
<rscale>  0 0.21940705E+04</rscale>
<asrwt>0</asrwt>
<pdfrwt beam="1">  1        2 0.19729975E+00 0.21940705E+04</pdfrwt>
<pdfrwt beam="2">  1       -2 0.14437364E+00 0.21940705E+04</pdfrwt>
<totfact> 0.51309761E+00</totfact>
</mgrwt>
</event>
<event>
 6    1  0.1585031E-006  0.1856894E+04  0.7818608E-02  0.8676616E-01
         -1   -1    0    0    0  501 -0.00000000000E+00  0.00000000000E+00  0.37297435382E+03  0.37297435382E+03  0.00000000000E+00 0.  1.
          1   -1    0    0  501    0  0.00000000000E+00 -0.00000000000E+00 -0.23111877035E+04  0.23111877035E+04  0.00000000000E+00 0. -1.
         23    2    1    2    0    0  0.69627593931E+02 -0.92290866561E+03 -0.91707450714E+03  0.13059991705E+04  0.89441459844E+02 0.  0.
         11    1    3    3    0    0 -0.13838724229E+01 -0.92235684182E+02 -0.58404331583E+02  0.10918059574E+03  0.00000000000E+00 0. -1.
        -11    1    3    3    0    0  0.71011466354E+02 -0.83067298143E+03 -0.85867017556E+03  0.11968185747E+04  0.00000000000E+00 0.  1.
         22    1    1    2    0    0 -0.69627593931E+02  0.92290866561E+03 -0.10211388425E+04  0.13781628868E+04  0.00000000000E+00 0.  1.
<mgrwt>
<rscale>  0 0.18568939E+04</rscale>
<asrwt>0</asrwt>
<pdfrwt beam="1">  1        1 0.35556735E+00 0.18568939E+04</pdfrwt>
<pdfrwt beam="2">  1       -1 0.57380669E-01 0.18568939E+04</pdfrwt>
<totfact> 0.52839166E+00</totfact>
</mgrwt>
</event>
<event>
 6    1  0.1585031E-006  0.3429535E+04  0.7818608E-02  0.8130695E-01
          1   -1    0    0  501    0  0.00000000000E+00  0.00000000000E+00  0.26705609964E+04  0.26705609964E+04  0.00000000000E+00 0. -1.
         -1   -1    0    0    0  501 -0.00000000000E+00 -0.00000000000E+00 -0.11010523004E+04  0.11010523004E+04  0.00000000000E+00 0.  1.
         23    2    1    2    0    0 -0.13327517002E+04  0.10753740657E+04  0.85190066683E+03  0.19148371231E+04  0.90608974672E+02 0.  0.
         11    1    3    3    0    0 -0.71965857164E+03  0.56395306514E+03  0.50303571154E+03  0.10435499253E+04  0.00000000000E+00 0. -1.
        -11    1    3    3    0    0 -0.61309312859E+03  0.51142100053E+03  0.34886495530E+03  0.87128719785E+03  0.00000000000E+00 0.  1.
         22    1    1    2    0    0  0.13327517002E+04 -0.10753740657E+04  0.71760802915E+03  0.18567761737E+04  0.00000000000E+00 0. -1.
<mgrwt>
<rscale>  0 0.34295349E+04</rscale>
<asrwt>0</asrwt>
<pdfrwt beam="1">  1        1 0.41085554E+00 0.34295349E+04</pdfrwt>
<pdfrwt beam="2">  1       -1 0.16939266E+00 0.34295349E+04</pdfrwt>
<totfact> 0.20995511E-01</totfact>
</mgrwt>
</event>
<event>
 6    1  0.1585031E-006  0.2076513E+04  0.7818608E-02  0.8571661E-01
         -4   -1    0    0    0  501 -0.00000000000E+00  0.00000000000E+00  0.87003924576E+03  0.87003924576E+03  0.00000000000E+00 0.  1.
          4   -1    0    0  501    0  0.00000000000E+00 -0.00000000000E+00 -0.12389975666E+04  0.12389975666E+04  0.00000000000E+00 0. -1.
         23    2    1    2    0    0 -0.82850043687E+03  0.18819037898E+03  0.41764552210E+03  0.95120513272E+03  0.92384142313E+02 0.  0.
         13    1    3    3    0    0 -0.57774462944E+03  0.10783019553E+03  0.24755940383E+03  0.63773181381E+03  0.00000000000E+00 0.  1.
        -13    1    3    3    0    0 -0.25075580743E+03  0.80360183452E+02  0.17008611827E+03  0.31347331891E+03  0.00000000000E+00 0. -1.
         22    1    1    2    0    0  0.82850043687E+03 -0.18819037898E+03 -0.78660384289E+03  0.11578316796E+04  0.00000000000E+00 0. -1.
<mgrwt>
<rscale>  0 0.20765130E+04</rscale>
<asrwt>0</asrwt>
<pdfrwt beam="1">  1        4 0.19061501E+00 0.20765130E+04</pdfrwt>
<pdfrwt beam="2">  1       -4 0.13385219E+00 0.20765130E+04</pdfrwt>
<totfact> 0.11270031E-01</totfact>
</mgrwt>
</event>
<event>
 6    1  0.1585031E-006  0.2442108E+04  0.7818608E-02  0.8423905E-01
          2   -1    0    0  501    0  0.00000000000E+00  0.00000000000E+00  0.17916771058E+04  0.17916771058E+04  0.00000000000E+00 0.  1.
         -2   -1    0    0    0  501 -0.00000000000E+00 -0.00000000000E+00 -0.83216612198E+03  0.83216612198E+03  0.00000000000E+00 0. -1.
         23    2    1    2    0    0  0.18723434128E+03 -0.59563381587E+01  0.17753220173E+04  0.17868009236E+04  0.76138683121E+02 0.  0.
         11    1    3    3    0    0  0.10441580432E+03  0.23876311839E+02  0.73533563162E+03  0.74309570688E+03  0.00000000000E+00 0. -1.
        -11    1    3    3    0    0  0.82818536957E+02 -0.29832649998E+02  0.10399863857E+04  0.10437052167E+04  0.00000000000E+00 0.  1.
         22    1    1    2    0    0 -0.18723434128E+03  0.59563381587E+01 -0.81581103350E+03  0.83704230412E+03  0.00000000000E+00 0. -1.
<mgrwt>
<rscale>  0 0.24421081E+04</rscale>
<asrwt>0</asrwt>
<pdfrwt beam="1">  1        2 0.27564263E+00 0.24421081E+04</pdfrwt>
<pdfrwt beam="2">  1       -2 0.12802556E+00 0.24421081E+04</pdfrwt>
<totfact> 0.35285535E+00</totfact>
</mgrwt>
</event>
<event>
 6    1  0.1585031E-006  0.6793466E+03  0.7818608E-02  0.9753219E-01
         -2   -1    0    0    0  501 -0.00000000000E+00  0.00000000000E+00  0.98108846669E+02  0.98108846669E+02  0.00000000000E+00 0.  1.
          2   -1    0    0  501    0  0.00000000000E+00 -0.00000000000E+00 -0.11760198212E+04  0.11760198212E+04  0.00000000000E+00 0. -1.
         23    2    1    2    0    0 -0.23304474727E+02 -0.21793190491E+03 -0.76732764157E+02  0.24924076051E+03  0.90529696142E+02 0.  0.
         11    1    3    3    0    0  0.41102154182E+01 -0.48408065986E+02 -0.59258591539E+02  0.76627771692E+02  0.00000000000E+00 0. -1.
        -11    1    3    3    0    0 -0.27414690146E+02 -0.16952383893E+03 -0.17474172618E+02  0.17261298882E+03  0.00000000000E+00 0.  1.
         22    1    1    2    0    0  0.23304474727E+02  0.21793190491E+03 -0.10011782104E+04  0.10248879074E+04  0.00000000000E+00 0.  1.
<mgrwt>
<rscale>  0 0.67934659E+03</rscale>
<asrwt>0</asrwt>
<pdfrwt beam="1">  1        2 0.18092614E+00 0.67934659E+03</pdfrwt>
<pdfrwt beam="2">  1       -2 0.15093667E-01 0.67934659E+03</pdfrwt>
<totfact> 0.68534874E+02</totfact>
</mgrwt>
</event>
<event>
 6    1  0.1585031E-006  0.1257218E+04  0.7818608E-02  0.9064197E-01
         -2   -1    0    0    0  501 -0.00000000000E+00  0.00000000000E+00  0.35339783694E+03  0.35339783694E+03  0.00000000000E+00 0.  1.
          2   -1    0    0  501    0  0.00000000000E+00 -0.00000000000E+00 -0.11181432491E+04  0.11181432491E+04  0.00000000000E+00 0. -1.
         23    2    1    2    0    0  0.77814288310E+02  0.49108752251E+03 -0.82858288696E+03  0.97024552313E+03  0.87205254176E+02 0.  0.
         11    1    3    3    0    0  0.85551968060E+02  0.48192370774E+03 -0.78542703852E+03  0.92545406810E+03  0.00000000000E+00 0.  1.
        -11    1    3    3    0    0 -0.77376797502E+01  0.91638147696E+01 -0.43155848442E+02  0.44791455031E+02  0.00000000000E+00 0. -1.
         22    1    1    2    0    0 -0.77814288310E+02 -0.49108752251E+03  0.63837474769E+02  0.50129556294E+03  0.00000000000E+00 0.  1.
<mgrwt>
<rscale>  0 0.12572182E+04</rscale>
<asrwt>0</asrwt>
<pdfrwt beam="1">  1        2 0.17202203E+00 0.12572182E+04</pdfrwt>
<pdfrwt beam="2">  1       -2 0.54368900E-01 0.12572182E+04</pdfrwt>
<totfact> 0.66460910E+01</totfact>
</mgrwt>
</event>
<event>
 6    1  0.1585031E-006  0.1927649E+04  0.7818608E-02  0.8641215E-01
         -2   -1    0    0    0  501 -0.00000000000E+00  0.00000000000E+00  0.28090440218E+03  0.28090440218E+03  0.00000000000E+00 0. -1.
          2   -1    0    0  501    0  0.00000000000E+00 -0.00000000000E+00 -0.33070225359E+04  0.33070225359E+04  0.00000000000E+00 0.  1.
         23    2    1    2    0    0 -0.19704186170E+03 -0.82793483736E+03 -0.68407895180E+03  0.10960503120E+04  0.95187624591E+02 0.  0.
         13    1    3    3    0    0 -0.15926265571E+03 -0.56102779731E+03 -0.51350661668E+03  0.77704943744E+03  0.00000000000E+00 0. -1.
        -13    1    3    3    0    0 -0.37779205991E+02 -0.26690704005E+03 -0.17057233512E+03  0.31900087452E+03  0.00000000000E+00 0.  1.
         22    1    1    2    0    0  0.19704186170E+03  0.82793483736E+03 -0.23420391819E+04  0.24918766261E+04  0.00000000000E+00 0.  1.
<mgrwt>
<rscale>  0 0.19276485E+04</rscale>
<asrwt>0</asrwt>
<pdfrwt beam="1">  1        2 0.50877268E+00 0.19276485E+04</pdfrwt>
<pdfrwt beam="2">  1       -2 0.43216064E-01 0.19276485E+04</pdfrwt>
<totfact> 0.52533641E+00</totfact>
</mgrwt>
</event>
<event>
 6    1  0.1585031E-006  0.1191550E+04  0.7818608E-02  0.9120285E-01
         -1   -1    0    0    0  501 -0.00000000000E+00  0.00000000000E+00  0.38401019567E+03  0.38401019567E+03  0.00000000000E+00 0.  1.
          1   -1    0    0  501    0  0.00000000000E+00 -0.00000000000E+00 -0.92431901660E+03  0.92431901660E+03  0.00000000000E+00 0. -1.
         23    2    1    2    0    0  0.26622407446E+03 -0.75275610131E+02 -0.84713717819E+03  0.89518841772E+03  0.84730332480E+02 0.  0.
         13    1    3    3    0    0  0.22183136701E+03 -0.34605498702E+02 -0.59464051756E+03  0.63561312215E+03  0.00000000000E+00 0. -1.
        -13    1    3    3    0    0  0.44392707452E+02 -0.40670111428E+02 -0.25249666063E+03  0.25957529556E+03  0.00000000000E+00 0.  1.
         22    1    1    2    0    0 -0.26622407446E+03  0.75275610131E+02  0.30682835726E+03  0.41314079455E+03  0.00000000000E+00 0.  1.
<mgrwt>
<rscale>  0 0.11915501E+04</rscale>
<asrwt>0</asrwt>
<pdfrwt beam="1">  1        1 0.14220292E+00 0.11915501E+04</pdfrwt>
<pdfrwt beam="2">  1       -1 0.59078492E-01 0.11915501E+04</pdfrwt>
<totfact> 0.49995757E+01</totfact>
</mgrwt>
</event>
<event>
 6    1  0.1585031E-006  0.1192212E+04  0.7818608E-02  0.9119701E-01
          2   -1    0    0  501    0  0.00000000000E+00  0.00000000000E+00  0.13270699803E+04  0.13270699803E+04  0.00000000000E+00 0.  1.
         -2   -1    0    0    0  501 -0.00000000000E+00 -0.00000000000E+00 -0.26776459807E+03  0.26776459807E+03  0.00000000000E+00 0. -1.
         23    2    1    2    0    0  0.12544190139E+03 -0.57750644282E+03  0.59234846439E+03  0.84164262061E+03  0.90753707534E+02 0.  0.
         11    1    3    3    0    0  0.72564320834E+02 -0.30675768759E+03  0.37866113120E+03  0.49269677474E+03  0.00000000000E+00 0.  1.
        -11    1    3    3    0    0  0.52877580560E+02 -0.27074875523E+03  0.21368733320E+03  0.34894584587E+03  0.00000000000E+00 0. -1.
         22    1    1    2    0    0 -0.12544190139E+03  0.57750644282E+03  0.46695691786E+03  0.75319195778E+03  0.00000000000E+00 0. -1.
<mgrwt>
<rscale>  0 0.11922120E+04</rscale>
<asrwt>0</asrwt>
<pdfrwt beam="1">  1        2 0.20416461E+00 0.11922120E+04</pdfrwt>
<pdfrwt beam="2">  1       -2 0.41194554E-01 0.11922120E+04</pdfrwt>
<totfact> 0.87798274E+01</totfact>
</mgrwt>
</event>
<event>
 6    1  0.1585031E-006  0.1209297E+04  0.7818608E-02  0.9104758E-01
          1   -1    0    0  501    0  0.00000000000E+00  0.00000000000E+00  0.12487495925E+04  0.12487495925E+04  0.00000000000E+00 0. -1.
         -1   -1    0    0    0  501 -0.00000000000E+00 -0.00000000000E+00 -0.29277253285E+03  0.29277253285E+03  0.00000000000E+00 0.  1.
         23    2    1    2    0    0 -0.52127594027E+02  0.59254851429E+03  0.59094902165E+03  0.84361346631E+03  0.92908053982E+02 0.  0.
         11    1    3    3    0    0 -0.70915333713E+02  0.49677430964E+03  0.52222098067E+03  0.72424336513E+03  0.00000000000E+00 0.  1.
        -11    1    3    3    0    0  0.18787739686E+02  0.95774204650E+02  0.68728040977E+02  0.11937010118E+03  0.00000000000E+00 0. -1.
         22    1    1    2    0    0  0.52127594027E+02 -0.59254851429E+03  0.36502803802E+03  0.69790865906E+03  0.00000000000E+00 0. -1.
<mgrwt>
<rscale>  0 0.12092966E+04</rscale>
<asrwt>0</asrwt>
<pdfrwt beam="1">  1        1 0.19211532E+00 0.12092966E+04</pdfrwt>
<pdfrwt beam="2">  1       -1 0.45041929E-01 0.12092966E+04</pdfrwt>
<totfact> 0.47597891E+01</totfact>
</mgrwt>
</event>
<event>
 6    1  0.1585031E-006  0.1978992E+04  0.7818608E-02  0.8616506E-01
          2   -1    0    0  501    0  0.00000000000E+00  0.00000000000E+00  0.31334291843E+04  0.31334291843E+04  0.00000000000E+00 0. -1.
         -2   -1    0    0    0  501 -0.00000000000E+00 -0.00000000000E+00 -0.31246980658E+03  0.31246980658E+03  0.00000000000E+00 0.  1.
         23    2    1    2    0    0 -0.14862183534E+03  0.57131402661E+03  0.35118496336E+02  0.59819858822E+03  0.90111459954E+02 0.  0.
         13    1    3    3    0    0 -0.16890425654E+02  0.23950131752E+03  0.18459755091E+02  0.24080475520E+03  0.00000000000E+00 0.  1.
        -13    1    3    3    0    0 -0.13173140968E+03  0.33181270910E+03  0.16658741245E+02  0.35739383301E+03  0.00000000000E+00 0. -1.
         22    1    1    2    0    0  0.14862183534E+03 -0.57131402661E+03  0.27858408813E+04  0.28477004026E+04  0.00000000000E+00 0. -1.
<mgrwt>
<rscale>  0 0.19789917E+04</rscale>
<asrwt>0</asrwt>
<pdfrwt beam="1">  1        2 0.48206601E+00 0.19789917E+04</pdfrwt>
<pdfrwt beam="2">  1       -2 0.48072280E-01 0.19789917E+04</pdfrwt>
<totfact> 0.54824887E+00</totfact>
</mgrwt>
</event>
<event>
 6    1  0.1585031E-006  0.2049226E+04  0.7818608E-02  0.8583946E-01
          2   -1    0    0  501    0  0.00000000000E+00  0.00000000000E+00  0.12108802799E+04  0.12108802799E+04  0.00000000000E+00 0. -1.
         -2   -1    0    0    0  501 -0.00000000000E+00 -0.00000000000E+00 -0.86699851485E+03  0.86699851485E+03  0.00000000000E+00 0.  1.
         23    2    1    2    0    0 -0.78471794980E+03 -0.49499618486E+03 -0.26118226396E+03  0.97022092206E+03  0.11094583743E+03 0.  0.
         11    1    3    3    0    0 -0.23868786477E+03 -0.21037871363E+03 -0.74282674429E+02  0.32672467868E+03  0.00000000000E+00 0.  1.
        -11    1    3    3    0    0 -0.54603008503E+03 -0.28461747123E+03 -0.18689958953E+03  0.64349624338E+03  0.00000000000E+00 0. -1.
         22    1    1    2    0    0  0.78471794980E+03  0.49499618486E+03  0.60506402905E+03  0.11076578727E+04  0.00000000000E+00 0. -1.
<mgrwt>
<rscale>  0 0.20492256E+04</rscale>
<asrwt>0</asrwt>
<pdfrwt beam="1">  1        2 0.18628927E+00 0.20492256E+04</pdfrwt>
<pdfrwt beam="2">  1       -2 0.13338439E+00 0.20492256E+04</pdfrwt>
<totfact> 0.70255915E+00</totfact>
</mgrwt>
</event>
<event>
 6    1  0.1585031E-006  0.1423354E+04  0.7818608E-02  0.8937085E-01
         -1   -1    0    0    0  501 -0.00000000000E+00  0.00000000000E+00  0.36683651214E+03  0.36683651214E+03  0.00000000000E+00 0.  1.
          1   -1    0    0  501    0  0.00000000000E+00 -0.00000000000E+00 -0.13806816796E+04  0.13806816796E+04  0.00000000000E+00 0. -1.
         23    2    1    2    0    0  0.50089665758E+03  0.39218624360E+03 -0.89160235428E+03  0.10997135788E+04  0.98527589679E+02 0.  0.
         13    1    3    3    0    0  0.26642007160E+03  0.17236432272E+03 -0.37438533879E+03  0.49076827138E+03  0.00000000000E+00 0.  1.
        -13    1    3    3    0    0  0.23447658598E+03  0.21982192088E+03 -0.51721701549E+03  0.60894530739E+03  0.00000000000E+00 0. -1.
         22    1    1    2    0    0 -0.50089665758E+03 -0.39218624360E+03 -0.12224281320E+03  0.64780461300E+03  0.00000000000E+00 0.  1.
<mgrwt>
<rscale>  0 0.14233544E+04</rscale>
<asrwt>0</asrwt>
<pdfrwt beam="1">  1        1 0.21241257E+00 0.14233544E+04</pdfrwt>
<pdfrwt beam="2">  1       -1 0.56436387E-01 0.14233544E+04</pdfrwt>
<totfact> 0.24512937E+01</totfact>
</mgrwt>
</event>
<event>
 6    1  0.2689159E-006  0.2288973E+04  0.7818608E-02  0.8482282E-01
         -1   -1    0    0    0  501 -0.00000000000E+00  0.00000000000E+00  0.10809289120E+04  0.10809289120E+04  0.00000000000E+00 0.  1.
          1   -1    0    0  501    0  0.00000000000E+00 -0.00000000000E+00 -0.12117809926E+04  0.12117809926E+04  0.00000000000E+00 0. -1.
         23    2    1    2    0    0 -0.45076684787E+03  0.29937982404E+03  0.94318956370E+03  0.10900526452E+04  0.76086700524E+02 0.  0.
         11    1    3    3    0    0 -0.21217722373E+03  0.10285311215E+03  0.44915794439E+03  0.50728768560E+03  0.00000000000E+00 0.  1.
        -11    1    3    3    0    0 -0.23858962414E+03  0.19652671189E+03  0.49403161931E+03  0.58276495957E+03  0.00000000000E+00 0. -1.
         22    1    1    2    0    0  0.45076684787E+03 -0.29937982404E+03 -0.10740416442E+04  0.12026572595E+04  0.00000000000E+00 0. -1.
<mgrwt>
<rscale>  0 0.22889728E+04</rscale>
<asrwt>0</asrwt>
<pdfrwt beam="1">  1        1 0.18642785E+00 0.22889728E+04</pdfrwt>
<pdfrwt beam="2">  1       -1 0.16629676E+00 0.22889728E+04</pdfrwt>
<totfact> 0.24842225E+00</totfact>
</mgrwt>
</event>
<event>
 6    1  0.1585031E-006  0.2283886E+04  0.7818608E-02  0.8484302E-01
         -2   -1    0    0    0  501 -0.00000000000E+00  0.00000000000E+00  0.48316734136E+03  0.48316734136E+03  0.00000000000E+00 0.  1.
          2   -1    0    0  501    0  0.00000000000E+00 -0.00000000000E+00 -0.26989272869E+04  0.26989272869E+04  0.00000000000E+00 0. -1.
         23    2    1    2    0    0 -0.86183808515E+03  0.71154200212E+03 -0.79590833838E+03  0.13751537072E+04  0.92307798105E+02 0.  0.
         11    1    3    3    0    0 -0.55472931612E+03  0.50981211636E+03 -0.55535214172E+03  0.93597489788E+03  0.00000000000E+00 0. -1.
        -11    1    3    3    0    0 -0.30710876903E+03  0.20172988576E+03 -0.24055619666E+03  0.43917880934E+03  0.00000000000E+00 0.  1.
         22    1    1    2    0    0  0.86183808515E+03 -0.71154200212E+03 -0.14198516072E+04  0.18069409211E+04  0.00000000000E+00 0. -1.
<mgrwt>
<rscale>  0 0.22838857E+04</rscale>
<asrwt>0</asrwt>
<pdfrwt beam="1">  1        2 0.41521958E+00 0.22838857E+04</pdfrwt>
<pdfrwt beam="2">  1       -2 0.74333437E-01 0.22838857E+04</pdfrwt>
<totfact> 0.39330502E+00</totfact>
</mgrwt>
</event>
<event>
 6    1  0.1585031E-006  0.2259019E+04  0.7818608E-02  0.8494257E-01
         -2   -1    0    0    0  501 -0.00000000000E+00  0.00000000000E+00  0.77161204724E+03  0.77161204724E+03  0.00000000000E+00 0.  1.
          2   -1    0    0  501    0  0.00000000000E+00 -0.00000000000E+00 -0.16534104191E+04  0.16534104191E+04  0.00000000000E+00 0. -1.
         23    2    1    2    0    0  0.35925694925E+03  0.74069097289E+03 -0.12689688011E+04  0.15153029413E+04  0.90401951556E+02 0.  0.
         11    1    3    3    0    0  0.71281143358E+02  0.19016975190E+03 -0.37800641635E+03  0.42910882855E+03  0.00000000000E+00 0. -1.
        -11    1    3    3    0    0  0.28797580589E+03  0.55052122100E+03 -0.89096238475E+03  0.10861941128E+04  0.00000000000E+00 0.  1.
         22    1    1    2    0    0 -0.35925694925E+03 -0.74069097289E+03  0.38717042925E+03  0.90971952502E+03  0.00000000000E+00 0.  1.
<mgrwt>
<rscale>  0 0.22590187E+04</rscale>
<asrwt>0</asrwt>
<pdfrwt beam="1">  1        2 0.25437083E+00 0.22590187E+04</pdfrwt>
<pdfrwt beam="2">  1       -2 0.11870955E+00 0.22590187E+04</pdfrwt>
<totfact> 0.51663974E+00</totfact>
</mgrwt>
</event>
<event>
 6    1  0.1585031E-006  0.1435317E+04  0.7818608E-02  0.8928644E-01
         -1   -1    0    0    0  501 -0.00000000000E+00  0.00000000000E+00  0.24634042338E+03  0.24634042338E+03  0.00000000000E+00 0.  1.
          1   -1    0    0  501    0  0.00000000000E+00 -0.00000000000E+00 -0.20907393773E+04  0.20907393773E+04  0.00000000000E+00 0. -1.
         23    2    1    2    0    0  0.61213933518E+03  0.16937356201E+03 -0.39279341516E+03  0.75260493204E+03  0.93410639370E+02 0.  0.
         13    1    3    3    0    0  0.43964032514E+03  0.16420698651E+03 -0.28157945111E+03  0.54729748510E+03  0.00000000000E+00 0. -1.
        -13    1    3    3    0    0  0.17249901004E+03  0.51665754943E+01 -0.11121396405E+03  0.20530744694E+03  0.00000000000E+00 0.  1.
         22    1    1    2    0    0 -0.61213933518E+03 -0.16937356201E+03 -0.14516055387E+04  0.15844748686E+04  0.00000000000E+00 0. -1.
<mgrwt>
<rscale>  0 0.14353169E+04</rscale>
<asrwt>0</asrwt>
<pdfrwt beam="1">  1        1 0.32165221E+00 0.14353169E+04</pdfrwt>
<pdfrwt beam="2">  1       -1 0.37898527E-01 0.14353169E+04</pdfrwt>
<totfact> 0.16917707E+01</totfact>
</mgrwt>
</event>
<event>
 6    1  0.1585031E-006  0.1225037E+04  0.7818608E-02  0.9091220E-01
         -1   -1    0    0    0  501 -0.00000000000E+00  0.00000000000E+00  0.11905935173E+03  0.11905935173E+03  0.00000000000E+00 0.  1.
          1   -1    0    0  501    0  0.00000000000E+00 -0.00000000000E+00 -0.31511931295E+04  0.31511931295E+04  0.00000000000E+00 0. -1.
         23    2    1    2    0    0  0.14583359524E+03 -0.38312382020E+03 -0.27273435804E+04  0.27594214294E+04  0.89175783484E+02 0.  0.
         11    1    3    3    0    0  0.13659621452E+02 -0.14465780690E+03 -0.10652928654E+04  0.10751564330E+04  0.00000000000E+00 0. -1.
        -11    1    3    3    0    0  0.13217397378E+03 -0.23846601330E+03 -0.16620507150E+04  0.16842649964E+04  0.00000000000E+00 0.  1.
         22    1    1    2    0    0 -0.14583359524E+03  0.38312382020E+03 -0.30479019738E+03  0.51083105184E+03  0.00000000000E+00 0.  1.
<mgrwt>
<rscale>  0 0.12250372E+04</rscale>
<asrwt>0</asrwt>
<pdfrwt beam="1">  1        1 0.48479895E+00 0.12250372E+04</pdfrwt>
<pdfrwt beam="2">  1       -1 0.18316823E-01 0.12250372E+04</pdfrwt>
<totfact> 0.10980202E+01</totfact>
</mgrwt>
</event>
<event>
 6    1  0.1585031E-006  0.1567192E+04  0.7818608E-02  0.8840961E-01
         -1   -1    0    0    0  501 -0.00000000000E+00  0.00000000000E+00  0.57587157943E+03  0.57587157943E+03  0.00000000000E+00 0.  1.
          1   -1    0    0  501    0  0.00000000000E+00 -0.00000000000E+00 -0.10662494362E+04  0.10662494362E+04  0.00000000000E+00 0. -1.
         23    2    1    2    0    0  0.14120129319E+03  0.51368790883E+03  0.35215770569E+03  0.64528640203E+03  0.92554946322E+02 0.  0.
         13    1    3    3    0    0  0.28257591855E+02  0.22795564278E+03  0.18867560276E+03  0.29725536101E+03  0.00000000000E+00 0.  1.
        -13    1    3    3    0    0  0.11294370133E+03  0.28573226606E+03  0.16348210293E+03  0.34803104102E+03  0.00000000000E+00 0. -1.
         22    1    1    2    0    0 -0.14120129319E+03 -0.51368790883E+03 -0.84253556245E+03  0.99683461360E+03  0.00000000000E+00 0. -1.
<mgrwt>
<rscale>  0 0.15671921E+04</rscale>
<asrwt>0</asrwt>
<pdfrwt beam="1">  1        1 0.16403837E+00 0.15671921E+04</pdfrwt>
<pdfrwt beam="2">  1       -1 0.88595628E-01 0.15671921E+04</pdfrwt>
<totfact> 0.16184127E+01</totfact>
</mgrwt>
</event>
<event>
 6    1  0.1585031E-006  0.2291317E+04  0.7818608E-02  0.8481352E-01
          1   -1    0    0  501    0  0.00000000000E+00  0.00000000000E+00  0.24211466438E+04  0.24211466438E+04  0.00000000000E+00 0.  1.
         -1   -1    0    0    0  501 -0.00000000000E+00 -0.00000000000E+00 -0.54211240265E+03  0.54211240265E+03  0.00000000000E+00 0. -1.
         23    2    1    2    0    0  0.62853623730E+03 -0.34524572297E+03  0.20934621096E+04  0.22147727596E+04  0.91555237333E+02 0.  0.
         11    1    3    3    0    0  0.66895196223E+02 -0.66464051267E+02  0.22718088867E+03  0.24597478237E+03  0.00000000000E+00 0.  1.
        -11    1    3    3    0    0  0.56164104107E+03 -0.27878167170E+03  0.18662812210E+04  0.19687979772E+04  0.00000000000E+00 0. -1.
         22    1    1    2    0    0 -0.62853623730E+03  0.34524572297E+03 -0.21442786846E+03  0.74848628684E+03  0.00000000000E+00 0. -1.
<mgrwt>
<rscale>  0 0.22913172E+04</rscale>
<asrwt>0</asrwt>
<pdfrwt beam="1">  1        1 0.37248409E+00 0.22913172E+04</pdfrwt>
<pdfrwt beam="2">  1       -1 0.83401909E-01 0.22913172E+04</pdfrwt>
<totfact> 0.19820219E+00</totfact>
</mgrwt>
</event>
<event>
 6    1  0.1585031E-006  0.4694141E+04  0.7818608E-02  0.7877503E-01
         -2   -1    0    0    0  501 -0.00000000000E+00  0.00000000000E+00  0.25851944131E+04  0.25851944131E+04  0.00000000000E+00 0.  1.
          2   -1    0    0  501    0  0.00000000000E+00 -0.00000000000E+00 -0.21308804633E+04  0.21308804633E+04  0.00000000000E+00 0. -1.
         23    2    1    2    0    0  0.21125622204E+04  0.10208719562E+04  0.21682680601E+03  0.23577918507E+04  0.84082468718E+02 0.  0.
         13    1    3    3    0    0  0.74750135674E+03  0.36071342951E+03  0.11711472050E+03  0.83820541296E+03  0.00000000000E+00 0. -1.
        -13    1    3    3    0    0  0.13650608636E+04  0.66015852668E+03  0.99712085505E+02  0.15195864377E+04  0.00000000000E+00 0.  1.
         22    1    1    2    0    0 -0.21125622204E+04 -0.10208719562E+04  0.23748714384E+03  0.23582830257E+04  0.00000000000E+00 0. -1.
<mgrwt>
<rscale>  0 0.46941411E+04</rscale>
<asrwt>0</asrwt>
<pdfrwt beam="1">  1        2 0.32782776E+00 0.46941411E+04</pdfrwt>
<pdfrwt beam="2">  1       -2 0.39772222E+00 0.46941411E+04</pdfrwt>
<totfact> 0.32364295E-02</totfact>
</mgrwt>
</event>
<event>
 6    1  0.1585031E-006  0.2685603E+04  0.7818608E-02  0.8339691E-01
          2   -1    0    0  501    0  0.00000000000E+00  0.00000000000E+00  0.28040829422E+04  0.28040829422E+04  0.00000000000E+00 0. -1.
         -2   -1    0    0    0  501 -0.00000000000E+00 -0.00000000000E+00 -0.64303235462E+03  0.64303235462E+03  0.00000000000E+00 0.  1.
         23    2    1    2    0    0 -0.12572007744E+04  0.43400819439E+03  0.85796566715E+03  0.15851412879E+04  0.87469518624E+02 0.  0.
         11    1    3    3    0    0 -0.72130041102E+02  0.46309837902E+01  0.41373709431E+02  0.83282487189E+02  0.00000000000E+00 0. -1.
        -11    1    3    3    0    0 -0.11850707333E+04  0.42937721060E+03  0.81659195772E+03  0.15018588007E+04  0.00000000000E+00 0.  1.
         22    1    1    2    0    0  0.12572007744E+04 -0.43400819439E+03  0.13030849205E+04  0.18619740089E+04  0.00000000000E+00 0.  1.
<mgrwt>
<rscale>  0 0.26856031E+04</rscale>
<asrwt>0</asrwt>
<pdfrwt beam="1">  1        2 0.43139737E+00 0.26856031E+04</pdfrwt>
<pdfrwt beam="2">  1       -2 0.98928056E-01 0.26856031E+04</pdfrwt>
<totfact> 0.17107136E+00</totfact>
</mgrwt>
</event>
<event>
 6    1  0.1585031E-006  0.1859118E+04  0.7818608E-02  0.8675478E-01
          1   -1    0    0  501    0  0.00000000000E+00  0.00000000000E+00  0.11371448836E+04  0.11371448836E+04  0.00000000000E+00 0. -1.
         -1   -1    0    0    0  501 -0.00000000000E+00 -0.00000000000E+00 -0.75986778150E+03  0.75986778150E+03  0.00000000000E+00 0.  1.
         23    2    1    2    0    0  0.46335148420E+03 -0.48468040576E+03  0.84269854216E+03  0.10807854844E+04  0.91360476803E+02 0.  0.
         11    1    3    3    0    0  0.35059973039E+03 -0.30589288946E+03  0.58651270148E+03  0.74865731798E+03  0.00000000000E+00 0. -1.
        -11    1    3    3    0    0  0.11275175381E+03 -0.17878751630E+03  0.25618584068E+03  0.33212816643E+03  0.00000000000E+00 0.  1.
         22    1    1    2    0    0 -0.46335148420E+03  0.48468040576E+03 -0.46542144006E+03  0.81622718069E+03  0.00000000000E+00 0.  1.
<mgrwt>
<rscale>  0 0.18591178E+04</rscale>
<asrwt>0</asrwt>
<pdfrwt beam="1">  1        1 0.17494537E+00 0.18591178E+04</pdfrwt>
<pdfrwt beam="2">  1       -1 0.11690274E+00 0.18591178E+04</pdfrwt>
<totfact> 0.73671053E+00</totfact>
</mgrwt>
</event>
<event>
 6    1  0.1585031E-006  0.7477898E+03  0.7818608E-02  0.9638824E-01
          2   -1    0    0  501    0  0.00000000000E+00  0.00000000000E+00  0.38597832189E+03  0.38597832189E+03  0.00000000000E+00 0. -1.
         -2   -1    0    0    0  501 -0.00000000000E+00 -0.00000000000E+00 -0.36218976046E+03  0.36218976046E+03  0.00000000000E+00 0.  1.
         23    2    1    2    0    0  0.77882784535E+02  0.27239434351E+03 -0.22395304755E+03  0.37181676865E+03  0.88477881080E+02 0.  0.
         11    1    3    3    0    0 -0.14948990940E+02  0.95033932630E+02 -0.82013390738E+02  0.12641644253E+03  0.00000000000E+00 0. -1.
        -11    1    3    3    0    0  0.92831775475E+02  0.17736041088E+03 -0.14193965681E+03  0.24540032612E+03  0.00000000000E+00 0.  1.
         22    1    1    2    0    0 -0.77882784535E+02 -0.27239434351E+03  0.24774160898E+03  0.37635131370E+03  0.00000000000E+00 0. -1.
<mgrwt>
<rscale>  0 0.74778980E+03</rscale>
<asrwt>0</asrwt>
<pdfrwt beam="1">  1        2 0.59381280E-01 0.74778980E+03</pdfrwt>
<pdfrwt beam="2">  1       -2 0.55721502E-01 0.74778980E+03</pdfrwt>
<totfact> 0.25268975E+02</totfact>
</mgrwt>
</event>
<event>
 6    1  0.1585031E-006  0.1886863E+04  0.7818608E-02  0.8661423E-01
         -1   -1    0    0    0  501 -0.00000000000E+00  0.00000000000E+00  0.43341654358E+03  0.43341654358E+03  0.00000000000E+00 0.  1.
          1   -1    0    0  501    0  0.00000000000E+00 -0.00000000000E+00 -0.20535980049E+04  0.20535980049E+04  0.00000000000E+00 0. -1.
         23    2    1    2    0    0  0.80706489336E+03  0.47106029844E+03 -0.96168270977E+03  0.13438294573E+04  0.88274737219E+02 0.  0.
         13    1    3    3    0    0  0.66728140364E+03  0.41534802150E+03 -0.83927751001E+03  0.11498544210E+04  0.00000000000E+00 0. -1.
        -13    1    3    3    0    0  0.13978348972E+03  0.55712276938E+02 -0.12240519976E+03  0.19397503635E+03  0.00000000000E+00 0.  1.
         22    1    1    2    0    0 -0.80706489336E+03 -0.47106029844E+03 -0.65849875156E+03  0.11431850912E+04  0.00000000000E+00 0.  1.
<mgrwt>
<rscale>  0 0.18868634E+04</rscale>
<asrwt>0</asrwt>
<pdfrwt beam="1">  1        1 0.31593815E+00 0.18868634E+04</pdfrwt>
<pdfrwt beam="2">  1       -1 0.66679469E-01 0.18868634E+04</pdfrwt>
<totfact> 0.58496919E+00</totfact>
</mgrwt>
</event>
<event>
 6    1  0.1585031E-006  0.1350494E+04  0.7818608E-02  0.8990454E-01
         -1   -1    0    0    0  501 -0.00000000000E+00  0.00000000000E+00  0.45214556828E+03  0.45214556828E+03  0.00000000000E+00 0.  1.
          1   -1    0    0  501    0  0.00000000000E+00 -0.00000000000E+00 -0.10084334118E+04  0.10084334118E+04  0.00000000000E+00 0. -1.
         23    2    1    2    0    0  0.66480949987E+03  0.77276345909E+02 -0.21426362302E+03  0.70896480232E+03  0.93695709764E+02 0.  0.
         13    1    3    3    0    0  0.14563541168E+03 -0.10818462678E+02 -0.75474700807E+02  0.16438717326E+03  0.00000000000E+00 0.  1.
        -13    1    3    3    0    0  0.51917408819E+03  0.88094808587E+02 -0.13878892221E+03  0.54457762907E+03  0.00000000000E+00 0. -1.
         22    1    1    2    0    0 -0.66480949987E+03 -0.77276345909E+02 -0.34202422046E+03  0.75161417771E+03  0.00000000000E+00 0. -1.
<mgrwt>
<rscale>  0 0.13504943E+04</rscale>
<asrwt>0</asrwt>
<pdfrwt beam="1">  1        1 0.15514360E+00 0.13504943E+04</pdfrwt>
<pdfrwt beam="2">  1       -1 0.69560857E-01 0.13504943E+04</pdfrwt>
<totfact> 0.30493168E+01</totfact>
</mgrwt>
</event>
<event>
 6    1  0.1585031E-006  0.2018480E+04  0.7818608E-02  0.8598029E-01
          2   -1    0    0  501    0  0.00000000000E+00  0.00000000000E+00  0.19752190692E+04  0.19752190692E+04  0.00000000000E+00 0. -1.
         -2   -1    0    0    0  501 -0.00000000000E+00 -0.00000000000E+00 -0.51567191808E+03  0.51567191808E+03  0.00000000000E+00 0.  1.
         23    2    1    2    0    0  0.80708408971E+02 -0.24126155860E+03  0.19338557718E+04  0.19526627321E+04  0.91501981154E+02 0.  0.
         13    1    3    3    0    0  0.51120883689E+02 -0.85075894676E+02  0.10451206936E+04  0.10498230883E+04  0.00000000000E+00 0. -1.
        -13    1    3    3    0    0  0.29587525282E+02 -0.15618566392E+03  0.88873507820E+03  0.90283964384E+03  0.00000000000E+00 0.  1.
         22    1    1    2    0    0 -0.80708408971E+02  0.24126155860E+03 -0.47430862069E+03  0.53822825511E+03  0.00000000000E+00 0.  1.
<mgrwt>
<rscale>  0 0.20184796E+04</rscale>
<asrwt>0</asrwt>
<pdfrwt beam="1">  1        2 0.30387985E+00 0.20184796E+04</pdfrwt>
<pdfrwt beam="2">  1       -2 0.79334142E-01 0.20184796E+04</pdfrwt>
<totfact> 0.90108471E+00</totfact>
</mgrwt>
</event>
<event>
 6    1  0.1585031E-006  0.2234997E+04  0.7818608E-02  0.8504001E-01
         -2   -1    0    0    0  501 -0.00000000000E+00  0.00000000000E+00  0.63611813136E+03  0.63611813136E+03  0.00000000000E+00 0.  1.
          2   -1    0    0  501    0  0.00000000000E+00 -0.00000000000E+00 -0.19631617204E+04  0.19631617204E+04  0.00000000000E+00 0. -1.
         23    2    1    2    0    0 -0.13952182135E+03 -0.76910006916E+03  0.26103210780E+03  0.82926129991E+03  0.92494795528E+02 0.  0.
         11    1    3    3    0    0 -0.13397773480E+03 -0.53715539490E+03  0.20696871612E+03  0.59103468692E+03  0.00000000000E+00 0. -1.
        -11    1    3    3    0    0 -0.55440865581E+01 -0.23194467426E+03  0.54063391681E+02  0.23822661298E+03  0.00000000000E+00 0.  1.
         22    1    1    2    0    0  0.13952182135E+03  0.76910006916E+03 -0.15880756968E+04  0.17700185519E+04  0.00000000000E+00 0. -1.
<mgrwt>
<rscale>  0 0.22349969E+04</rscale>
<asrwt>0</asrwt>
<pdfrwt beam="1">  1        2 0.30202488E+00 0.22349969E+04</pdfrwt>
<pdfrwt beam="2">  1       -2 0.97864328E-01 0.22349969E+04</pdfrwt>
<totfact> 0.55485244E+00</totfact>
</mgrwt>
</event>
<event>
 6    1  0.1585031E-006  0.1477066E+04  0.7818608E-02  0.8899848E-01
          1   -1    0    0  501    0  0.00000000000E+00  0.00000000000E+00  0.17005511151E+04  0.17005511151E+04  0.00000000000E+00 0. -1.
         -1   -1    0    0    0  501 -0.00000000000E+00 -0.00000000000E+00 -0.32073790632E+03  0.32073790632E+03  0.00000000000E+00 0.  1.
         23    2    1    2    0    0  0.12402193326E+03 -0.47228983574E+03  0.14456386505E+04  0.15285699152E+04  0.90640768923E+02 0.  0.
         11    1    3    3    0    0  0.18728533265E+02 -0.14903789837E+03  0.56383183270E+03  0.58349754813E+03  0.00000000000E+00 0.  1.
        -11    1    3    3    0    0  0.10529340000E+03 -0.32325193737E+03  0.88180681777E+03  0.94507236705E+03  0.00000000000E+00 0. -1.
         22    1    1    2    0    0 -0.12402193326E+03  0.47228983574E+03 -0.65825441703E+02  0.49271910623E+03  0.00000000000E+00 0.  1.
<mgrwt>
<rscale>  0 0.14770663E+04</rscale>
<asrwt>0</asrwt>
<pdfrwt beam="1">  1        1 0.26162324E+00 0.14770663E+04</pdfrwt>
<pdfrwt beam="2">  1       -1 0.49344294E-01 0.14770663E+04</pdfrwt>
<totfact> 0.18996868E+01</totfact>
</mgrwt>
</event>
<event>
 6    1  0.1585031E-006  0.7981585E+03  0.7818608E-02  0.9562686E-01
         -1   -1    0    0    0  501 -0.00000000000E+00  0.00000000000E+00  0.24850591711E+03  0.24850591711E+03  0.00000000000E+00 0. -1.
          1   -1    0    0  501    0  0.00000000000E+00 -0.00000000000E+00 -0.64088709384E+03  0.64088709384E+03  0.00000000000E+00 0.  1.
         23    2    1    2    0    0  0.36402408892E+03  0.19512692424E+02 -0.36491804197E+03  0.52381332572E+03  0.91219188594E+02 0.  0.
         13    1    3    3    0    0  0.14712590065E+03  0.52751003157E+02 -0.15638957109E+03  0.22110268411E+03  0.00000000000E+00 0. -1.
        -13    1    3    3    0    0  0.21689818827E+03 -0.33238310733E+02 -0.20852847088E+03  0.30271064161E+03  0.00000000000E+00 0.  1.
         22    1    1    2    0    0 -0.36402408892E+03 -0.19512692424E+02 -0.27463134754E+02  0.36557968522E+03  0.00000000000E+00 0. -1.
<mgrwt>
<rscale>  0 0.79815847E+03</rscale>
<asrwt>0</asrwt>
<pdfrwt beam="1">  1        1 0.98598011E-01 0.79815847E+03</pdfrwt>
<pdfrwt beam="2">  1       -1 0.38231681E-01 0.79815847E+03</pdfrwt>
<totfact> 0.20788946E+02</totfact>
</mgrwt>
</event>
<event>
 6    1  0.1585031E-006  0.3439042E+04  0.7818608E-02  0.8128390E-01
          2   -1    0    0  501    0  0.00000000000E+00  0.00000000000E+00  0.13725317419E+04  0.13725317419E+04  0.00000000000E+00 0. -1.
         -2   -1    0    0    0  501 -0.00000000000E+00 -0.00000000000E+00 -0.21542320711E+04  0.21542320711E+04  0.00000000000E+00 0.  1.
         23    2    1    2    0    0  0.10252884042E+04  0.48975524358E+03  0.93073346448E+03  0.14716467828E+04  0.91667666296E+02 0.  0.
         13    1    3    3    0    0  0.40044903319E+03  0.16990858290E+03  0.30482455506E+03  0.53117451379E+03  0.00000000000E+00 0.  1.
        -13    1    3    3    0    0  0.62483937101E+03  0.31984666068E+03  0.62590890941E+03  0.94047226902E+03  0.00000000000E+00 0. -1.
         22    1    1    2    0    0 -0.10252884042E+04 -0.48975524358E+03 -0.17124337936E+04  0.20551170302E+04  0.00000000000E+00 0. -1.
<mgrwt>
<rscale>  0 0.34390417E+04</rscale>
<asrwt>0</asrwt>
<pdfrwt beam="1">  1        2 0.21115873E+00 0.34390417E+04</pdfrwt>
<pdfrwt beam="2">  1       -2 0.33142032E+00 0.34390417E+04</pdfrwt>
<totfact> 0.25198734E-01</totfact>
</mgrwt>
</event>
<event>
 6    1  0.1585031E-006  0.3753968E+04  0.7818608E-02  0.8056106E-01
          1   -1    0    0  501    0  0.00000000000E+00  0.00000000000E+00  0.20723380230E+04  0.20723380230E+04  0.00000000000E+00 0. -1.
         -1   -1    0    0    0  501 -0.00000000000E+00 -0.00000000000E+00 -0.17000451930E+04  0.17000451930E+04  0.00000000000E+00 0.  1.
         23    2    1    2    0    0 -0.14702631269E+03 -0.77215626744E+03  0.18979102918E+04  0.20561808159E+04  0.89297447160E+02 0.  0.
         11    1    3    3    0    0 -0.99747305518E+02 -0.62483282501E+03  0.15979921840E+04  0.17187043388E+04  0.00000000000E+00 0. -1.
        -11    1    3    3    0    0 -0.47279007172E+02 -0.14732344243E+03  0.29991810785E+03  0.33747647714E+03  0.00000000000E+00 0.  1.
         22    1    1    2    0    0  0.14702631269E+03  0.77215626744E+03 -0.15256174619E+04  0.17162024000E+04  0.00000000000E+00 0.  1.
<mgrwt>
<rscale>  0 0.37539677E+04</rscale>
<asrwt>0</asrwt>
<pdfrwt beam="1">  1        1 0.31882123E+00 0.37539677E+04</pdfrwt>
<pdfrwt beam="2">  1       -1 0.26154542E+00 0.37539677E+04</pdfrwt>
<totfact> 0.12463191E-01</totfact>
</mgrwt>
</event>
<event>
 6    1  0.1585031E-006  0.1568601E+04  0.7818608E-02  0.8840073E-01
          2   -1    0    0  501    0  0.00000000000E+00  0.00000000000E+00  0.17933570271E+04  0.17933570271E+04  0.00000000000E+00 0. -1.
         -2   -1    0    0    0  501 -0.00000000000E+00 -0.00000000000E+00 -0.34300335196E+03  0.34300335196E+03  0.00000000000E+00 0.  1.
         23    2    1    2    0    0  0.59298179443E+03  0.46545466282E+03  0.44442857434E+03  0.87931592478E+03  0.86048162176E+02 0.  0.
         11    1    3    3    0    0  0.18575790959E+03  0.18068931129E+03  0.11775950967E+03  0.28464351443E+03  0.00000000000E+00 0. -1.
        -11    1    3    3    0    0  0.40722388484E+03  0.28476535153E+03  0.32666906468E+03  0.59467241035E+03  0.00000000000E+00 0.  1.
         22    1    1    2    0    0 -0.59298179443E+03 -0.46545466282E+03  0.10059251008E+04  0.12570444543E+04  0.00000000000E+00 0. -1.
<mgrwt>
<rscale>  0 0.15686013E+04</rscale>
<asrwt>0</asrwt>
<pdfrwt beam="1">  1        2 0.27590108E+00 0.15686013E+04</pdfrwt>
<pdfrwt beam="2">  1       -2 0.52769748E-01 0.15686013E+04</pdfrwt>
<totfact> 0.28335159E+01</totfact>
</mgrwt>
</event>
<event>
 6    1  0.1585031E-006  0.2020523E+04  0.7818608E-02  0.8597085E-01
          1   -1    0    0  501    0  0.00000000000E+00  0.00000000000E+00  0.22139675945E+04  0.22139675945E+04  0.00000000000E+00 0. -1.
         -1   -1    0    0    0  501 -0.00000000000E+00 -0.00000000000E+00 -0.46099522685E+03  0.46099522685E+03  0.00000000000E+00 0.  1.
         23    2    1    2    0    0  0.52699418758E+03  0.96686034471E+02 -0.25249690089E+03  0.59915501472E+03  0.90338163031E+02 0.  0.
         13    1    3    3    0    0  0.71485197958E+01  0.22155008604E+01 -0.21022349520E+02  0.22314769967E+02  0.00000000000E+00 0. -1.
        -13    1    3    3    0    0  0.51984566779E+03  0.94470533611E+02 -0.23147455137E+03  0.57684024476E+03  0.00000000000E+00 0.  1.
         22    1    1    2    0    0 -0.52699418758E+03 -0.96686034471E+02  0.20054692686E+04  0.20758078067E+04  0.00000000000E+00 0. -1.
<mgrwt>
<rscale>  0 0.20205232E+04</rscale>
<asrwt>0</asrwt>
<pdfrwt beam="1">  1        1 0.34061039E+00 0.20205232E+04</pdfrwt>
<pdfrwt beam="2">  1       -1 0.70922344E-01 0.20205232E+04</pdfrwt>
<totfact> 0.39637216E+00</totfact>
</mgrwt>
</event>
<event>
 6    1  0.1585031E-006  0.4150149E+04  0.7818608E-02  0.7974923E-01
         -2   -1    0    0    0  501 -0.00000000000E+00  0.00000000000E+00  0.25294706354E+04  0.25294706354E+04  0.00000000000E+00 0.  1.
          2   -1    0    0  501    0  0.00000000000E+00 -0.00000000000E+00 -0.17023067488E+04  0.17023067488E+04  0.00000000000E+00 0. -1.
         23    2    1    2    0    0  0.12528689808E+04  0.78093356426E+03  0.18992269184E+04  0.24072618160E+04  0.91151785273E+02 0.  0.
         11    1    3    3    0    0  0.11542023564E+04  0.73928537445E+03  0.17870437830E+04  0.22521659412E+04  0.00000000000E+00 0. -1.
        -11    1    3    3    0    0  0.98666624380E+02  0.41648189805E+02  0.11218313548E+03  0.15509587476E+03  0.00000000000E+00 0.  1.
         22    1    1    2    0    0 -0.12528689808E+04 -0.78093356426E+03 -0.10720630318E+04  0.18245155683E+04  0.00000000000E+00 0. -1.
<mgrwt>
<rscale>  0 0.41501494E+04</rscale>
<asrwt>0</asrwt>
<pdfrwt beam="1">  1        2 0.26189335E+00 0.41501494E+04</pdfrwt>
<pdfrwt beam="2">  1       -2 0.38914933E+00 0.41501494E+04</pdfrwt>
<totfact> 0.66550240E-02</totfact>
</mgrwt>
</event>
<event>
 6    1  0.1585031E-006  0.3007592E+04  0.7818608E-02  0.8241566E-01
          2   -1    0    0  501    0  0.00000000000E+00  0.00000000000E+00  0.30305186557E+04  0.30305186557E+04  0.00000000000E+00 0.  1.
         -2   -1    0    0    0  501 -0.00000000000E+00 -0.00000000000E+00 -0.74620971591E+03  0.74620971591E+03  0.00000000000E+00 0. -1.
         23    2    1    2    0    0  0.50361264110E+03  0.61440837178E+03 -0.45985270674E+03  0.91988632454E+03  0.60024983050E+02 0.  0.
         13    1    3    3    0    0  0.46977763058E+03  0.55584303404E+03 -0.43477094085E+03  0.84774894378E+03  0.00000000000E+00 0. -1.
        -13    1    3    3    0    0  0.33835010520E+02  0.58565337747E+02 -0.25081765885E+02  0.72137380755E+02  0.00000000000E+00 0.  1.
         22    1    1    2    0    0 -0.50361264110E+03 -0.61440837178E+03  0.27441616465E+04  0.28568420471E+04  0.00000000000E+00 0.  1.
<mgrwt>
<rscale>  0 0.30075920E+04</rscale>
<asrwt>0</asrwt>
<pdfrwt beam="1">  1        2 0.46623363E+00 0.30075920E+04</pdfrwt>
<pdfrwt beam="2">  1       -2 0.11480150E+00 0.30075920E+04</pdfrwt>
<totfact> 0.84333791E-01</totfact>
</mgrwt>
</event>
<event>
 6    1  0.1585031E-006  0.6410933E+03  0.7818608E-02  0.9823637E-01
          4   -1    0    0  501    0  0.00000000000E+00  0.00000000000E+00  0.89790140070E+03  0.89790140070E+03  0.00000000000E+00 0. -1.
         -4   -1    0    0    0  501 -0.00000000000E+00 -0.00000000000E+00 -0.11443365612E+03  0.11443365612E+03  0.00000000000E+00 0.  1.
         23    2    1    2    0    0  0.10429850289E+03 -0.27011387745E+03  0.58939506937E+03  0.66376097896E+03  0.96707832640E+02 0.  0.
         13    1    3    3    0    0  0.69194918554E+02 -0.65913146502E+02  0.22737940299E+03  0.24664523620E+03  0.00000000000E+00 0.  1.
        -13    1    3    3    0    0  0.35103584337E+02 -0.20420073095E+03  0.36201566638E+03  0.41711574276E+03  0.00000000000E+00 0. -1.
         22    1    1    2    0    0 -0.10429850289E+03  0.27011387745E+03  0.19407267521E+03  0.34857407787E+03  0.00000000000E+00 0.  1.
<mgrwt>
<rscale>  0 0.64109325E+03</rscale>
<asrwt>0</asrwt>
<pdfrwt beam="1">  1        4 0.13813867E+00 0.64109325E+03</pdfrwt>
<pdfrwt beam="2">  1       -4 0.17605178E-01 0.64109325E+03</pdfrwt>
<totfact> 0.21447871E+01</totfact>
</mgrwt>
</event>
<event>
 6    1  0.1585031E-006  0.2051107E+04  0.7818608E-02  0.8583092E-01
         -2   -1    0    0    0  501 -0.00000000000E+00  0.00000000000E+00  0.83265865681E+03  0.83265865681E+03  0.00000000000E+00 0.  1.
          2   -1    0    0  501    0  0.00000000000E+00 -0.00000000000E+00 -0.12631347390E+04  0.12631347390E+04  0.00000000000E+00 0. -1.
         23    2    1    2    0    0  0.75541306562E+03  0.42170645469E+03 -0.77431760238E+03  0.11648195913E+04  0.93550507208E+02 0.  0.
         11    1    3    3    0    0  0.49246557263E+03  0.30507264217E+03 -0.46914921129E+03  0.74544794566E+03  0.00000000000E+00 0.  1.
        -11    1    3    3    0    0  0.26294749299E+03  0.11663381252E+03 -0.30516839108E+03  0.41937164569E+03  0.00000000000E+00 0. -1.
         22    1    1    2    0    0 -0.75541306562E+03 -0.42170645469E+03  0.34384152016E+03  0.93097380448E+03  0.00000000000E+00 0.  1.
<mgrwt>
<rscale>  0 0.20511071E+04</rscale>
<asrwt>0</asrwt>
<pdfrwt beam="1">  1        2 0.19432842E+00 0.20511071E+04</pdfrwt>
<pdfrwt beam="2">  1       -2 0.12810133E+00 0.20511071E+04</pdfrwt>
<totfact> 0.72477239E+00</totfact>
</mgrwt>
</event>
<event>
 6    1  0.1585031E-006  0.1889391E+04  0.7818608E-02  0.8660155E-01
          1   -1    0    0  501    0  0.00000000000E+00  0.00000000000E+00  0.57534228549E+03  0.57534228549E+03  0.00000000000E+00 0. -1.
         -1   -1    0    0    0  501 -0.00000000000E+00 -0.00000000000E+00 -0.15511636240E+04  0.15511636240E+04  0.00000000000E+00 0.  1.
         23    2    1    2    0    0  0.60388512131E+03 -0.63672506284E+03 -0.87592112540E+03  0.12432867419E+04  0.91804461765E+02 0.  0.
         11    1    3    3    0    0  0.43791628510E+03 -0.47846627312E+03 -0.59050119122E+03  0.87715010352E+03  0.00000000000E+00 0. -1.
        -11    1    3    3    0    0  0.16596883621E+03 -0.15825878972E+03 -0.28541993418E+03  0.36613663836E+03  0.00000000000E+00 0.  1.
         22    1    1    2    0    0 -0.60388512131E+03  0.63672506284E+03 -0.99900213061E+02  0.88321916757E+03  0.00000000000E+00 0. -1.
<mgrwt>
<rscale>  0 0.18893915E+04</rscale>
<asrwt>0</asrwt>
<pdfrwt beam="1">  1        1 0.88514200E-01 0.18893915E+04</pdfrwt>
<pdfrwt beam="2">  1       -1 0.23864055E+00 0.18893915E+04</pdfrwt>
<totfact> 0.28195079E+00</totfact>
</mgrwt>
</event>
<event>
 6    1  0.1585031E-006  0.2629139E+04  0.7818608E-02  0.8358370E-01
         -2   -1    0    0    0  501 -0.00000000000E+00  0.00000000000E+00  0.78358936692E+03  0.78358936692E+03  0.00000000000E+00 0.  1.
          2   -1    0    0  501    0  0.00000000000E+00 -0.00000000000E+00 -0.22053545558E+04  0.22053545558E+04  0.00000000000E+00 0. -1.
         23    2    1    2    0    0  0.28213358738E+03  0.55028084633E+03  0.60491741359E+03  0.87001713254E+03  0.92716571778E+02 0.  0.
         13    1    3    3    0    0  0.12162224774E+02  0.88521985432E+01  0.83796448269E+00  0.15065965451E+02  0.00000000000E+00 0. -1.
        -13    1    3    3    0    0  0.26997136261E+03  0.54142864779E+03  0.60407944911E+03  0.85495116709E+03  0.00000000000E+00 0.  1.
         22    1    1    2    0    0 -0.28213358738E+03 -0.55028084633E+03 -0.20266826025E+04  0.21189267902E+04  0.00000000000E+00 0. -1.
<mgrwt>
<rscale>  0 0.26291386E+04</rscale>
<asrwt>0</asrwt>
<pdfrwt beam="1">  1        2 0.33928531E+00 0.26291386E+04</pdfrwt>
<pdfrwt beam="2">  1       -2 0.12055221E+00 0.26291386E+04</pdfrwt>
<totfact> 0.23753700E+00</totfact>
</mgrwt>
</event>
<event>
 6    1  0.1585031E-006  0.2742894E+04  0.7818608E-02  0.8321220E-01
          2   -1    0    0  501    0  0.00000000000E+00  0.00000000000E+00  0.16434292986E+04  0.16434292986E+04  0.00000000000E+00 0. -1.
         -2   -1    0    0    0  501 -0.00000000000E+00 -0.00000000000E+00 -0.11444772758E+04  0.11444772758E+04  0.00000000000E+00 0.  1.
         23    2    1    2    0    0  0.56080721924E+03 -0.72239233428E+03  0.12864459231E+04  0.15810503010E+04  0.91768837916E+02 0.  0.
         11    1    3    3    0    0  0.30987984575E+03 -0.33721382835E+03  0.59775017587E+03  0.75302321185E+03  0.00000000000E+00 0.  1.
        -11    1    3    3    0    0  0.25092737349E+03 -0.38517850593E+03  0.68869574720E+03  0.82802708918E+03  0.00000000000E+00 0. -1.
         22    1    1    2    0    0 -0.56080721924E+03  0.72239233428E+03 -0.78749390019E+03  0.12068562734E+04  0.00000000000E+00 0.  1.
<mgrwt>
<rscale>  0 0.27428944E+04</rscale>
<asrwt>0</asrwt>
<pdfrwt beam="1">  1        2 0.25283528E+00 0.27428944E+04</pdfrwt>
<pdfrwt beam="2">  1       -2 0.17607343E+00 0.27428944E+04</pdfrwt>
<totfact> 0.17805249E+00</totfact>
</mgrwt>
</event>
<event>
 6    1  0.1585031E-006  0.1511683E+04  0.7818608E-02  0.8876721E-01
         -1   -1    0    0    0  501 -0.00000000000E+00  0.00000000000E+00  0.42352399724E+03  0.42352399724E+03  0.00000000000E+00 0.  1.
          1   -1    0    0  501    0  0.00000000000E+00 -0.00000000000E+00 -0.13489112353E+04  0.13489112353E+04  0.00000000000E+00 0. -1.
         23    2    1    2    0    0  0.60683720883E+03 -0.25455484604E+02 -0.98645143009E+03  0.11620024227E+04  0.90905592667E+02 0.  0.
         13    1    3    3    0    0  0.19114747725E+03 -0.18793966265E+02 -0.23798712581E+03  0.30582420322E+03  0.00000000000E+00 0. -1.
        -13    1    3    3    0    0  0.41568973158E+03 -0.66615183396E+01 -0.74846430428E+03  0.85617821951E+03  0.00000000000E+00 0.  1.
         22    1    1    2    0    0 -0.60683720883E+03  0.25455484604E+02  0.61064192057E+02  0.61043280979E+03  0.00000000000E+00 0.  1.
<mgrwt>
<rscale>  0 0.15116829E+04</rscale>
<asrwt>0</asrwt>
<pdfrwt beam="1">  1        1 0.20752481E+00 0.15116829E+04</pdfrwt>
<pdfrwt beam="2">  1       -1 0.65157537E-01 0.15116829E+04</pdfrwt>
<totfact> 0.19265761E+01</totfact>
</mgrwt>
</event>
<event>
 6    1  0.1585031E-006  0.5045899E+04  0.7818608E-02  0.7821466E-01
         -1   -1    0    0    0  501 -0.00000000000E+00  0.00000000000E+00  0.24007609684E+04  0.24007609684E+04  0.00000000000E+00 0.  1.
          1   -1    0    0  501    0  0.00000000000E+00 -0.00000000000E+00 -0.26513571891E+04  0.26513571891E+04  0.00000000000E+00 0. -1.
         23    2    1    2    0    0 -0.17032702639E+04 -0.10590601001E+04  0.14057134392E+04  0.24509454265E+04  0.91462139121E+02 0.  0.
         11    1    3    3    0    0 -0.98309658362E+03 -0.60524367603E+03  0.75407101134E+03  0.13789205525E+04  0.00000000000E+00 0.  1.
        -11    1    3    3    0    0 -0.72017368028E+03 -0.45381642406E+03  0.65164242786E+03  0.10720248739E+04  0.00000000000E+00 0. -1.
         22    1    1    2    0    0  0.17032702639E+04  0.10590601001E+04 -0.16563096599E+04  0.26011727311E+04  0.00000000000E+00 0. -1.
<mgrwt>
<rscale>  0 0.50458993E+04</rscale>
<asrwt>0</asrwt>
<pdfrwt beam="1">  1        1 0.40790111E+00 0.50458993E+04</pdfrwt>
<pdfrwt beam="2">  1       -1 0.36934784E+00 0.50458993E+04</pdfrwt>
<totfact> 0.88190787E-03</totfact>
</mgrwt>
</event>
<event>
 6    1  0.1585031E-006  0.3494958E+04  0.7818608E-02  0.8114986E-01
          2   -1    0    0  501    0  0.00000000000E+00  0.00000000000E+00  0.23617240551E+04  0.23617240551E+04  0.00000000000E+00 0.  1.
         -2   -1    0    0    0  501 -0.00000000000E+00 -0.00000000000E+00 -0.12929888875E+04  0.12929888875E+04  0.00000000000E+00 0. -1.
         23    2    1    2    0    0  0.55306435325E+03  0.83493741829E+03 -0.96126798970E+03  0.13911066408E+04  0.90226751101E+02 0.  0.
         13    1    3    3    0    0  0.20990841818E+03  0.28028260951E+03 -0.28416810626E+03  0.45096718044E+03  0.00000000000E+00 0.  1.
        -13    1    3    3    0    0  0.34315593507E+03  0.55465480878E+03 -0.67709988345E+03  0.94013946031E+03  0.00000000000E+00 0. -1.
         22    1    1    2    0    0 -0.55306435325E+03 -0.83493741829E+03  0.20300031573E+04  0.22636063019E+04  0.00000000000E+00 0.  1.
<mgrwt>
<rscale>  0 0.34949581E+04</rscale>
<asrwt>0</asrwt>
<pdfrwt beam="1">  1        2 0.36334216E+00 0.34949581E+04</pdfrwt>
<pdfrwt beam="2">  1       -2 0.19892137E+00 0.34949581E+04</pdfrwt>
<totfact> 0.46465460E-01</totfact>
</mgrwt>
</event>
<event>
 6    1  0.1585031E-006  0.1565987E+04  0.7818608E-02  0.8841720E-01
         -1   -1    0    0    0  501 -0.00000000000E+00  0.00000000000E+00  0.32436370986E+03  0.32436370986E+03  0.00000000000E+00 0.  1.
          1   -1    0    0  501    0  0.00000000000E+00 -0.00000000000E+00 -0.18900962219E+04  0.18900962219E+04  0.00000000000E+00 0. -1.
         23    2    1    2    0    0  0.42089945096E+03 -0.40092668274E+03 -0.49298750599E+02  0.59043102021E+03  0.90993791368E+02 0.  0.
         11    1    3    3    0    0  0.39346985540E+02 -0.17382205705E+02  0.15135141847E+02  0.45600426149E+02  0.00000000000E+00 0.  1.
        -11    1    3    3    0    0  0.38155246542E+03 -0.38354447703E+03 -0.64433892445E+02  0.54483059406E+03  0.00000000000E+00 0. -1.
         22    1    1    2    0    0 -0.42089945096E+03  0.40092668274E+03 -0.15164337615E+04  0.16240289116E+04  0.00000000000E+00 0. -1.
<mgrwt>
<rscale>  0 0.15659867E+04</rscale>
<asrwt>0</asrwt>
<pdfrwt beam="1">  1        1 0.29078404E+00 0.15659867E+04</pdfrwt>
<pdfrwt beam="2">  1       -1 0.49902107E-01 0.15659867E+04</pdfrwt>
<totfact> 0.13720972E+01</totfact>
</mgrwt>
</event>
<event>
 6    1  0.1585031E-006  0.3088095E+04  0.7818608E-02  0.8219013E-01
         -1   -1    0    0    0  501 -0.00000000000E+00  0.00000000000E+00  0.19535362420E+04  0.19535362420E+04  0.00000000000E+00 0.  1.
          1   -1    0    0  501    0  0.00000000000E+00 -0.00000000000E+00 -0.12203932263E+04  0.12203932263E+04  0.00000000000E+00 0. -1.
         23    2    1    2    0    0  0.42114282664E+03  0.11883720631E+04 -0.54674482478E+03  0.13773487367E+04  0.92575365446E+02 0.  0.
         13    1    3    3    0    0  0.33368287018E+03  0.10324271447E+04 -0.48098353848E+03  0.11868425470E+04  0.00000000000E+00 0. -1.
        -13    1    3    3    0    0  0.87459956458E+02  0.15594491844E+03 -0.65761286301E+02  0.19050618978E+03  0.00000000000E+00 0.  1.
         22    1    1    2    0    0 -0.42114282664E+03 -0.11883720631E+04  0.12798878405E+04  0.17965807316E+04  0.00000000000E+00 0.  1.
<mgrwt>
<rscale>  0 0.30880948E+04</rscale>
<asrwt>0</asrwt>
<pdfrwt beam="1">  1        1 0.18775280E+00 0.30880948E+04</pdfrwt>
<pdfrwt beam="2">  1       -1 0.30054404E+00 0.30880948E+04</pdfrwt>
<totfact> 0.28566370E-01</totfact>
</mgrwt>
</event>
<event>
 6    1  0.1585031E-006  0.2017066E+04  0.7818608E-02  0.8598683E-01
         -2   -1    0    0    0  501 -0.00000000000E+00  0.00000000000E+00  0.72462040102E+03  0.72462040102E+03  0.00000000000E+00 0.  1.
          2   -1    0    0  501    0  0.00000000000E+00 -0.00000000000E+00 -0.14036852196E+04  0.14036852196E+04  0.00000000000E+00 0. -1.
         23    2    1    2    0    0  0.67726518107E+03 -0.45524858189E+03 -0.96172552884E+03  0.12646873752E+04  0.92621635220E+02 0.  0.
         11    1    3    3    0    0  0.28226407375E+03 -0.19977787540E+03 -0.33904752632E+03  0.48429064820E+03  0.00000000000E+00 0.  1.
        -11    1    3    3    0    0  0.39500110732E+03 -0.25547070649E+03 -0.62267800252E+03  0.78039672698E+03  0.00000000000E+00 0. -1.
         22    1    1    2    0    0 -0.67726518107E+03  0.45524858189E+03  0.28266071023E+03  0.86361824547E+03  0.00000000000E+00 0.  1.
<mgrwt>
<rscale>  0 0.20170661E+04</rscale>
<asrwt>0</asrwt>
<pdfrwt beam="1">  1        2 0.21595157E+00 0.20170661E+04</pdfrwt>
<pdfrwt beam="2">  1       -2 0.11148006E+00 0.20170661E+04</pdfrwt>
<totfact> 0.84993278E+00</totfact>
</mgrwt>
</event>
<event>
 6    1  0.1585031E-006  0.3674897E+04  0.7818608E-02  0.8073548E-01
         -1   -1    0    0    0  501 -0.00000000000E+00  0.00000000000E+00  0.92281419185E+03  0.92281419185E+03  0.00000000000E+00 0.  1.
          1   -1    0    0  501    0  0.00000000000E+00 -0.00000000000E+00 -0.36586105796E+04  0.36586105796E+04  0.00000000000E+00 0. -1.
         23    2    1    2    0    0 -0.10725562845E+04 -0.10260394155E+03 -0.32225301557E+04  0.33991327968E+04  0.92187925651E+02 0.  0.
         11    1    3    3    0    0 -0.77894544302E+03 -0.45638225508E+02 -0.24199407083E+04  0.25426269649E+04  0.00000000000E+00 0.  1.
        -11    1    3    3    0    0 -0.29361084149E+03 -0.56965716042E+02 -0.80258944740E+03  0.85650583193E+03  0.00000000000E+00 0. -1.
         22    1    1    2    0    0  0.10725562845E+04  0.10260394155E+03  0.48673376802E+03  0.11822919746E+04  0.00000000000E+00 0.  1.
<mgrwt>
<rscale>  0 0.36748974E+04</rscale>
<asrwt>0</asrwt>
<pdfrwt beam="1">  1        1 0.56286316E+00 0.36748974E+04</pdfrwt>
<pdfrwt beam="2">  1       -1 0.14197142E+00 0.36748974E+04</pdfrwt>
<totfact> 0.60469194E-02</totfact>
</mgrwt>
</event>
<event>
 6    1  0.1585031E-006  0.3478670E+04  0.7818608E-02  0.8118863E-01
         -2   -1    0    0    0  501 -0.00000000000E+00  0.00000000000E+00  0.11983083984E+04  0.11983083984E+04  0.00000000000E+00 0.  1.
          2   -1    0    0  501    0  0.00000000000E+00 -0.00000000000E+00 -0.25246310688E+04  0.25246310688E+04  0.00000000000E+00 0. -1.
         23    2    1    2    0    0 -0.31257928640E+03  0.17093883264E+04 -0.62294593653E+03  0.18482520024E+04  0.90882142043E+02 0.  0.
         13    1    3    3    0    0 -0.24324654550E+03  0.14742813257E+04 -0.51573395243E+03  0.15807137056E+04  0.00000000000E+00 0. -1.
        -13    1    3    3    0    0 -0.69332740902E+02  0.23510700069E+03 -0.10721198409E+03  0.26753829683E+03  0.00000000000E+00 0.  1.
         22    1    1    2    0    0  0.31257928640E+03 -0.17093883264E+04 -0.70337673393E+03  0.18746874648E+04  0.00000000000E+00 0.  1.
<mgrwt>
<rscale>  0 0.34786702E+04</rscale>
<asrwt>0</asrwt>
<pdfrwt beam="1">  1        2 0.38840478E+00 0.34786702E+04</pdfrwt>
<pdfrwt beam="2">  1       -2 0.18435514E+00 0.34786702E+04</pdfrwt>
<totfact> 0.46921044E-01</totfact>
</mgrwt>
</event>
<event>
 6    1  0.1585031E-006  0.1045968E+04  0.7818608E-02  0.9259516E-01
         -1   -1    0    0    0  501 -0.00000000000E+00  0.00000000000E+00  0.10346758537E+03  0.10346758537E+03  0.00000000000E+00 0.  1.
          1   -1    0    0  501    0  0.00000000000E+00 -0.00000000000E+00 -0.26434606363E+04  0.26434606363E+04  0.00000000000E+00 0. -1.
         23    2    1    2    0    0 -0.47864516516E+03 -0.16546832229E+03 -0.15782206776E+04  0.16599659142E+04  0.90693821304E+02 0.  0.
         11    1    3    3    0    0 -0.20870930823E+03 -0.72558671949E+02 -0.54656214456E+03  0.58953754255E+03  0.00000000000E+00 0. -1.
        -11    1    3    3    0    0 -0.26993585693E+03 -0.92909650345E+02 -0.10316585331E+04  0.10704283716E+04  0.00000000000E+00 0.  1.
         22    1    1    2    0    0  0.47864516516E+03  0.16546832229E+03 -0.96177237331E+03  0.10869623075E+04  0.00000000000E+00 0. -1.
<mgrwt>
<rscale>  0 0.10459684E+04</rscale>
<asrwt>0</asrwt>
<pdfrwt beam="1">  1        1 0.40668631E+00 0.10459684E+04</pdfrwt>
<pdfrwt beam="2">  1       -1 0.15918088E-01 0.10459684E+04</pdfrwt>
<totfact> 0.32538994E+01</totfact>
</mgrwt>
</event>
<event>
 6    1  0.1585031E-006  0.2673612E+04  0.7818608E-02  0.8343618E-01
          2   -1    0    0  501    0  0.00000000000E+00  0.00000000000E+00  0.37429635610E+04  0.37429635610E+04  0.00000000000E+00 0. -1.
         -2   -1    0    0    0  501 -0.00000000000E+00 -0.00000000000E+00 -0.47744266016E+03  0.47744266016E+03  0.00000000000E+00 0.  1.
         23    2    1    2    0    0 -0.33478247450E+03  0.66888757547E+03 -0.11133350919E+03  0.76170189723E+03  0.91130324887E+02 0.  0.
         13    1    3    3    0    0 -0.19566906895E+03  0.28982921873E+03 -0.55869874768E+02  0.35413105411E+03  0.00000000000E+00 0. -1.
        -13    1    3    3    0    0 -0.13911340555E+03  0.37905835674E+03 -0.55463634427E+02  0.40757084312E+03  0.00000000000E+00 0.  1.
         22    1    1    2    0    0  0.33478247450E+03 -0.66888757547E+03  0.33768544100E+04  0.34587043239E+04  0.00000000000E+00 0. -1.
<mgrwt>
<rscale>  0 0.26736121E+04</rscale>
<asrwt>0</asrwt>
<pdfrwt beam="1">  1        2 0.57584053E+00 0.26736121E+04</pdfrwt>
<pdfrwt beam="2">  1       -2 0.73452719E-01 0.26736121E+04</pdfrwt>
<totfact> 0.79800519E-01</totfact>
</mgrwt>
</event>
<event>
 6    1  0.1585031E-006  0.1588013E+04  0.7818608E-02  0.8827946E-01
         -2   -1    0    0    0  501 -0.00000000000E+00  0.00000000000E+00  0.52185526415E+03  0.52185526415E+03  0.00000000000E+00 0.  1.
          2   -1    0    0  501    0  0.00000000000E+00 -0.00000000000E+00 -0.12080866543E+04  0.12080866543E+04  0.00000000000E+00 0. -1.
         23    2    1    2    0    0 -0.14470840102E+03 -0.54473481780E+03  0.26081050288E+03  0.62786892169E+03  0.92307753519E+02 0.  0.
         13    1    3    3    0    0 -0.10146414621E+03 -0.22040840391E+03  0.13206887556E+03  0.27625536261E+03  0.00000000000E+00 0. -1.
        -13    1    3    3    0    0 -0.43244254809E+02 -0.32432641389E+03  0.12874162733E+03  0.35161355908E+03  0.00000000000E+00 0.  1.
         22    1    1    2    0    0  0.14470840102E+03  0.54473481780E+03 -0.94704189305E+03  0.11020729968E+04  0.00000000000E+00 0. -1.
<mgrwt>
<rscale>  0 0.15880131E+04</rscale>
<asrwt>0</asrwt>
<pdfrwt beam="1">  1        2 0.18585949E+00 0.15880131E+04</pdfrwt>
<pdfrwt beam="2">  1       -2 0.80285425E-01 0.15880131E+04</pdfrwt>
<totfact> 0.24656016E+01</totfact>
</mgrwt>
</event>
<event>
 6    1  0.1585031E-006  0.3904740E+04  0.7818608E-02  0.8024044E-01
          2   -1    0    0  501    0  0.00000000000E+00  0.00000000000E+00  0.40177358121E+04  0.40177358121E+04  0.00000000000E+00 0. -1.
         -2   -1    0    0    0  501 -0.00000000000E+00 -0.00000000000E+00 -0.94873056461E+03  0.94873056461E+03  0.00000000000E+00 0.  1.
         23    2    1    2    0    0 -0.94947823490E+03  0.43670280829E+03 -0.56057354358E+03  0.11894224980E+04  0.90911603069E+02 0.  0.
         13    1    3    3    0    0 -0.48899642065E+03  0.27404385663E+03 -0.30861880443E+03  0.63989303889E+03  0.00000000000E+00 0.  1.
        -13    1    3    3    0    0 -0.46048181425E+03  0.16265895165E+03 -0.25195473915E+03  0.54952945907E+03  0.00000000000E+00 0. -1.
         22    1    1    2    0    0  0.94947823490E+03 -0.43670280829E+03  0.36295787910E+04  0.37770438787E+04  0.00000000000E+00 0. -1.
<mgrwt>
<rscale>  0 0.39047401E+04</rscale>
<asrwt>0</asrwt>
<pdfrwt beam="1">  1        2 0.61811319E+00 0.39047401E+04</pdfrwt>
<pdfrwt beam="2">  1       -2 0.14595855E+00 0.39047401E+04</pdfrwt>
<totfact> 0.84421575E-02</totfact>
</mgrwt>
</event>
<event>
 6    1  0.1585031E-006  0.5812740E+03  0.7818608E-02  0.9945037E-01
          2   -1    0    0  501    0  0.00000000000E+00  0.00000000000E+00  0.49620584192E+03  0.49620584192E+03  0.00000000000E+00 0. -1.
         -2   -1    0    0    0  501 -0.00000000000E+00 -0.00000000000E+00 -0.17023148702E+03  0.17023148702E+03  0.00000000000E+00 0.  1.
         23    2    1    2    0    0  0.21337132347E+03 -0.11088333538E+03 -0.43940996162E+01  0.25782290007E+03  0.92902658439E+02 0.  0.
         13    1    3    3    0    0  0.16848273377E+03 -0.12466086655E+03  0.62337520958E+01  0.20967981041E+03  0.00000000000E+00 0. -1.
        -13    1    3    3    0    0  0.44888589697E+02  0.13777531169E+02 -0.10627851712E+02  0.48143089661E+02  0.00000000000E+00 0.  1.
         22    1    1    2    0    0 -0.21337132347E+03  0.11088333538E+03  0.33036845452E+03  0.40861442887E+03  0.00000000000E+00 0. -1.
<mgrwt>
<rscale>  0 0.58127397E+03</rscale>
<asrwt>0</asrwt>
<pdfrwt beam="1">  1        2 0.76339360E-01 0.58127397E+03</pdfrwt>
<pdfrwt beam="2">  1       -2 0.26189460E-01 0.58127397E+03</pdfrwt>
<totfact> 0.82197697E+02</totfact>
</mgrwt>
</event>
<event>
 6    1  0.1585031E-006  0.2121406E+04  0.7818608E-02  0.8551872E-01
          2   -1    0    0  501    0  0.00000000000E+00  0.00000000000E+00  0.89709507218E+03  0.89709507218E+03  0.00000000000E+00 0. -1.
         -2   -1    0    0    0  501 -0.00000000000E+00 -0.00000000000E+00 -0.12541483963E+04  0.12541483963E+04  0.00000000000E+00 0.  1.
         23    2    1    2    0    0 -0.63018850276E+03 -0.81603614191E+03 -0.42292232565E+03  0.11180971771E+04  0.90694377012E+02 0.  0.
         11    1    3    3    0    0 -0.19320716640E+03 -0.18555186443E+03 -0.10547923923E+03  0.28789646307E+03  0.00000000000E+00 0. -1.
        -11    1    3    3    0    0 -0.43698133636E+03 -0.63048427749E+03 -0.31744308642E+03  0.83020071404E+03  0.00000000000E+00 0.  1.
         22    1    1    2    0    0  0.63018850276E+03  0.81603614191E+03  0.65869001565E+02  0.10331462913E+04  0.00000000000E+00 0. -1.
<mgrwt>
<rscale>  0 0.21214055E+04</rscale>
<asrwt>0</asrwt>
<pdfrwt beam="1">  1        2 0.13801463E+00 0.21214055E+04</pdfrwt>
<pdfrwt beam="2">  1       -2 0.19294591E+00 0.21214055E+04</pdfrwt>
<totfact> 0.40120023E+00</totfact>
</mgrwt>
</event>
<event>
 6    1  0.1585031E-006  0.2263212E+04  0.7818608E-02  0.8492569E-01
         -2   -1    0    0    0  501 -0.00000000000E+00  0.00000000000E+00  0.95959625222E+03  0.95959625222E+03  0.00000000000E+00 0.  1.
          2   -1    0    0  501    0  0.00000000000E+00 -0.00000000000E+00 -0.13344487045E+04  0.13344487045E+04  0.00000000000E+00 0. -1.
         23    2    1    2    0    0 -0.32025011829E+03  0.46125595275E+03 -0.11814951928E+04  0.13111972051E+04  0.89386955388E+02 0.  0.
         11    1    3    3    0    0 -0.27105068402E+03  0.42818283224E+03 -0.10152635102E+04  0.11347109792E+04  0.00000000000E+00 0. -1.
        -11    1    3    3    0    0 -0.49199434268E+02  0.33073120507E+02 -0.16623168257E+03  0.17648622587E+03  0.00000000000E+00 0.  1.
         22    1    1    2    0    0  0.32025011829E+03 -0.46125595275E+03  0.80664274048E+03  0.98284775168E+03  0.00000000000E+00 0.  1.
<mgrwt>
<rscale>  0 0.22632119E+04</rscale>
<asrwt>0</asrwt>
<pdfrwt beam="1">  1        2 0.20529980E+00 0.22632119E+04</pdfrwt>
<pdfrwt beam="2">  1       -2 0.14763019E+00 0.22632119E+04</pdfrwt>
<totfact> 0.44867815E+00</totfact>
</mgrwt>
</event>
<event>
 6    1  0.1585031E-006  0.1404814E+04  0.7818608E-02  0.8950341E-01
         -2   -1    0    0    0  501 -0.00000000000E+00  0.00000000000E+00  0.31888706120E+03  0.31888706120E+03  0.00000000000E+00 0.  1.
          2   -1    0    0  501    0  0.00000000000E+00 -0.00000000000E+00 -0.15471806074E+04  0.15471806074E+04  0.00000000000E+00 0. -1.
         23    2    1    2    0    0  0.43912600609E+03 -0.18373143091E+03 -0.12975337908E+04  0.13850446968E+04  0.90365845838E+02 0.  0.
         13    1    3    3    0    0  0.44464670560E+02 -0.44817634205E+02 -0.12379252409E+03  0.13896156405E+03  0.00000000000E+00 0. -1.
        -13    1    3    3    0    0  0.39466133553E+03 -0.13891379671E+03 -0.11737412667E+04  0.12460831328E+04  0.00000000000E+00 0.  1.
         22    1    1    2    0    0 -0.43912600609E+03  0.18373143091E+03  0.69240244558E+02  0.48102297179E+03  0.00000000000E+00 0.  1.
<mgrwt>
<rscale>  0 0.14048144E+04</rscale>
<asrwt>0</asrwt>
<pdfrwt beam="1">  1        2 0.23802778E+00 0.14048144E+04</pdfrwt>
<pdfrwt beam="2">  1       -2 0.49059548E-01 0.14048144E+04</pdfrwt>
<totfact> 0.45686877E+01</totfact>
</mgrwt>
</event>
<event>
 6    1  0.1585031E-006  0.2030998E+04  0.7818608E-02  0.8592263E-01
         -1   -1    0    0    0  501 -0.00000000000E+00  0.00000000000E+00  0.77777809851E+03  0.77777809851E+03  0.00000000000E+00 0.  1.
          1   -1    0    0  501    0  0.00000000000E+00 -0.00000000000E+00 -0.13258777470E+04  0.13258777470E+04  0.00000000000E+00 0. -1.
         23    2    1    2    0    0 -0.28312334453E+03  0.45987607602E+03 -0.11630684988E+04  0.12852234901E+04  0.86175709636E+02 0.  0.
         11    1    3    3    0    0 -0.80813029109E+02  0.20302386166E+03 -0.42150593174E+03  0.47478066996E+03  0.00000000000E+00 0. -1.
        -11    1    3    3    0    0 -0.20231031542E+03  0.25685221435E+03 -0.74156256710E+03  0.81044282011E+03  0.00000000000E+00 0.  1.
         22    1    1    2    0    0  0.28312334453E+03 -0.45987607602E+03  0.61496885035E+03  0.81843235543E+03  0.00000000000E+00 0.  1.
<mgrwt>
<rscale>  0 0.20309984E+04</rscale>
<asrwt>0</asrwt>
<pdfrwt beam="1">  1        1 0.20398119E+00 0.20309984E+04</pdfrwt>
<pdfrwt beam="2">  1       -1 0.11965817E+00 0.20309984E+04</pdfrwt>
<totfact> 0.50003519E+00</totfact>
</mgrwt>
</event>
<event>
 6    1  0.1585031E-006  0.3247699E+04  0.7818608E-02  0.8176332E-01
          2   -1    0    0  501    0  0.00000000000E+00  0.00000000000E+00  0.32466323690E+04  0.32466323690E+04  0.00000000000E+00 0.  1.
         -2   -1    0    0    0  501 -0.00000000000E+00 -0.00000000000E+00 -0.81219153324E+03  0.81219153324E+03  0.00000000000E+00 0. -1.
         23    2    1    2    0    0  0.69719707404E+03 -0.14879935770E+03  0.30397500154E+04  0.31236104443E+04  0.92935690377E+02 0.  0.
         11    1    3    3    0    0  0.39552806460E+03 -0.51809197827E+02  0.15475135607E+04  0.15981003922E+04  0.00000000000E+00 0.  1.
        -11    1    3    3    0    0  0.30166900944E+03 -0.96990159871E+02  0.14922364547E+04  0.15255100521E+04  0.00000000000E+00 0. -1.
         22    1    1    2    0    0 -0.69719707404E+03  0.14879935770E+03 -0.60530917968E+03  0.93521345794E+03  0.00000000000E+00 0. -1.
<mgrwt>
<rscale>  0 0.32476991E+04</rscale>
<asrwt>0</asrwt>
<pdfrwt beam="1">  1        2 0.49948189E+00 0.32476991E+04</pdfrwt>
<pdfrwt beam="2">  1       -2 0.12495255E+00 0.32476991E+04</pdfrwt>
<totfact> 0.48598694E-01</totfact>
</mgrwt>
</event>
<event>
 6    1  0.1585031E-006  0.3815673E+04  0.7818608E-02  0.8042800E-01
         -1   -1    0    0    0  501 -0.00000000000E+00  0.00000000000E+00  0.18714537539E+04  0.18714537539E+04  0.00000000000E+00 0.  1.
          1   -1    0    0  501    0  0.00000000000E+00 -0.00000000000E+00 -0.19449262207E+04  0.19449262207E+04  0.00000000000E+00 0. -1.
         23    2    1    2    0    0  0.28054230821E+03 -0.11569083657E+04 -0.15264834011E+04  0.19379812606E+04  0.92080613238E+02 0.  0.
         13    1    3    3    0    0  0.19917686971E+03 -0.72888239823E+03 -0.10299808856E+04  0.12774198999E+04  0.00000000000E+00 0.  1.
        -13    1    3    3    0    0  0.81365438498E+02 -0.42802596747E+03 -0.49650251548E+03  0.66056136073E+03  0.00000000000E+00 0. -1.
         22    1    1    2    0    0 -0.28054230821E+03  0.11569083657E+04  0.14530109343E+04  0.18783987140E+04  0.00000000000E+00 0.  1.
<mgrwt>
<rscale>  0 0.38156727E+04</rscale>
<asrwt>0</asrwt>
<pdfrwt beam="1">  1        1 0.29921942E+00 0.38156727E+04</pdfrwt>
<pdfrwt beam="2">  1       -1 0.28791596E+00 0.38156727E+04</pdfrwt>
<totfact> 0.10207613E-01</totfact>
</mgrwt>
</event>
<event>
 6    1  0.1585031E-006  0.1131931E+04  0.7818608E-02  0.9174617E-01
          1   -1    0    0  501    0  0.00000000000E+00  0.00000000000E+00  0.10596336072E+04  0.10596336072E+04  0.00000000000E+00 0. -1.
         -1   -1    0    0    0  501 -0.00000000000E+00 -0.00000000000E+00 -0.30229024925E+03  0.30229024925E+03  0.00000000000E+00 0.  1.
         23    2    1    2    0    0 -0.23911288744E+03  0.89089824416E+02 -0.22175037293E+03  0.35012520869E+03  0.91117858351E+02 0.  0.
         11    1    3    3    0    0 -0.45271737081E+02  0.29107128583E+02 -0.99802243888E+02  0.11338978348E+03  0.00000000000E+00 0. -1.
        -11    1    3    3    0    0 -0.19384115036E+03  0.59982695833E+02 -0.12194812905E+03  0.23673542521E+03  0.00000000000E+00 0.  1.
         22    1    1    2    0    0  0.23911288744E+03 -0.89089824416E+02  0.97909373089E+03  0.10117986478E+04  0.00000000000E+00 0. -1.
<mgrwt>
<rscale>  0 0.11319309E+04</rscale>
<asrwt>0</asrwt>
<pdfrwt beam="1">  1        1 0.16302055E+00 0.11319309E+04</pdfrwt>
<pdfrwt beam="2">  1       -1 0.46506193E-01 0.11319309E+04</pdfrwt>
<totfact> 0.62262790E+01</totfact>
</mgrwt>
</event>
<event>
 6    1  0.1585031E-006  0.3316151E+04  0.7818608E-02  0.8158798E-01
         -2   -1    0    0    0  501 -0.00000000000E+00  0.00000000000E+00  0.76572866774E+03  0.76572866774E+03  0.00000000000E+00 0.  1.
          2   -1    0    0  501    0  0.00000000000E+00 -0.00000000000E+00 -0.35903247535E+04  0.35903247535E+04  0.00000000000E+00 0. -1.
         23    2    1    2    0    0 -0.45776906128E+02 -0.11641735613E+04 -0.29607717298E+04  0.31830489831E+04  0.90752336180E+02 0.  0.
         11    1    3    3    0    0 -0.34059297421E+02 -0.71853246778E+03 -0.19450016603E+04  0.20737599672E+04  0.00000000000E+00 0.  1.
        -11    1    3    3    0    0 -0.11717608707E+02 -0.44564109349E+03 -0.10157700696E+04  0.11092890159E+04  0.00000000000E+00 0. -1.
         22    1    1    2    0    0  0.45776906128E+02  0.11641735613E+04  0.13617564410E+03  0.11730044382E+04  0.00000000000E+00 0.  1.
<mgrwt>
<rscale>  0 0.33161511E+04</rscale>
<asrwt>0</asrwt>
<pdfrwt beam="1">  1        2 0.55235765E+00 0.33161511E+04</pdfrwt>
<pdfrwt beam="2">  1       -2 0.11780441E+00 0.33161511E+04</pdfrwt>
<totfact> 0.32475355E-01</totfact>
</mgrwt>
</event>
<event>
 6    1  0.1585031E-006  0.6971690E+03  0.7818608E-02  0.9722086E-01
          2   -1    0    0  501    0  0.00000000000E+00  0.00000000000E+00  0.15198984270E+03  0.15198984270E+03  0.00000000000E+00 0. -1.
         -2   -1    0    0    0  501 -0.00000000000E+00 -0.00000000000E+00 -0.79946884398E+03  0.79946884398E+03  0.00000000000E+00 0.  1.
         23    2    1    2    0    0 -0.30385010222E+03  0.11158016562E+03 -0.17569611219E+03  0.37931000633E+03  0.90730034107E+02 0.  0.
         13    1    3    3    0    0 -0.58222876071E+02  0.62648511519E+02 -0.39288034395E+02  0.94118483520E+02  0.00000000000E+00 0. -1.
        -13    1    3    3    0    0 -0.24562722615E+03  0.48931654103E+02 -0.13640807779E+03  0.28519152281E+03  0.00000000000E+00 0.  1.
         22    1    1    2    0    0  0.30385010222E+03 -0.11158016562E+03 -0.47178288909E+03  0.57214868034E+03  0.00000000000E+00 0.  1.
<mgrwt>
<rscale>  0 0.69716897E+03</rscale>
<asrwt>0</asrwt>
<pdfrwt beam="1">  1        2 0.23383053E-01 0.69716897E+03</pdfrwt>
<pdfrwt beam="2">  1       -2 0.12299520E+00 0.69716897E+03</pdfrwt>
<totfact> 0.11954134E+02</totfact>
</mgrwt>
</event>
<event>
 6    1  0.1585031E-006  0.1727647E+04  0.7818608E-02  0.8745751E-01
         -2   -1    0    0    0  501 -0.00000000000E+00  0.00000000000E+00  0.36530482344E+03  0.36530482344E+03  0.00000000000E+00 0.  1.
          2   -1    0    0  501    0  0.00000000000E+00 -0.00000000000E+00 -0.20426540331E+04  0.20426540331E+04  0.00000000000E+00 0. -1.
         23    2    1    2    0    0 -0.36855488087E+03 -0.13992862205E+01  0.24406177631E+03  0.45151953081E+03  0.92027592754E+02 0.  0.
         11    1    3    3    0    0 -0.79508604537E+02  0.87035324354E+01  0.10104110186E+03  0.12886688456E+03  0.00000000000E+00 0. -1.
        -11    1    3    3    0    0 -0.28904627634E+03 -0.10102818656E+02  0.14302067446E+03  0.32265264625E+03  0.00000000000E+00 0.  1.
         22    1    1    2    0    0  0.36855488087E+03  0.13992862205E+01 -0.19214109859E+04  0.19564393257E+04  0.00000000000E+00 0. -1.
<mgrwt>
<rscale>  0 0.17276474E+04</rscale>
<asrwt>0</asrwt>
<pdfrwt beam="1">  1        2 0.31425447E+00 0.17276474E+04</pdfrwt>
<pdfrwt beam="2">  1       -2 0.56200742E-01 0.17276474E+04</pdfrwt>
<totfact> 0.17852247E+01</totfact>
</mgrwt>
</event>
<event>
 6    1  0.1585031E-006  0.1390635E+04  0.7818608E-02  0.8960625E-01
          2   -1    0    0  501    0  0.00000000000E+00  0.00000000000E+00  0.39558427251E+03  0.39558427251E+03  0.00000000000E+00 0.  1.
         -2   -1    0    0    0  501 -0.00000000000E+00 -0.00000000000E+00 -0.12221581030E+04  0.12221581030E+04  0.00000000000E+00 0. -1.
         23    2    1    2    0    0  0.54485133366E+02  0.54278338384E+03 -0.91110987957E+03  0.10657199347E+04  0.89751518841E+02 0.  0.
         11    1    3    3    0    0  0.16121016413E+02  0.43949817822E+03 -0.68220819684E+03  0.81168131657E+03  0.00000000000E+00 0. -1.
        -11    1    3    3    0    0  0.38364116953E+02  0.10328520562E+03 -0.22890168273E+03  0.25403861818E+03  0.00000000000E+00 0.  1.
         22    1    1    2    0    0 -0.54485133366E+02 -0.54278338384E+03  0.84536049070E+02  0.55202244077E+03  0.00000000000E+00 0.  1.
<mgrwt>
<rscale>  0 0.13906351E+04</rscale>
<asrwt>0</asrwt>
<pdfrwt beam="1">  1        2 0.60859121E-01 0.13906351E+04</pdfrwt>
<pdfrwt beam="2">  1       -2 0.18802432E+00 0.13906351E+04</pdfrwt>
<totfact> 0.12520091E+01</totfact>
</mgrwt>
</event>
<event>
 6    1  0.1585031E-006  0.3041253E+04  0.7818608E-02  0.8232048E-01
          1   -1    0    0  501    0  0.00000000000E+00  0.00000000000E+00  0.16276668516E+04  0.16276668516E+04  0.00000000000E+00 0. -1.
         -1   -1    0    0    0  501 -0.00000000000E+00 -0.00000000000E+00 -0.14206251524E+04  0.14206251524E+04  0.00000000000E+00 0.  1.
         23    2    1    2    0    0 -0.13467366342E+04  0.98565442338E+01 -0.60102828577E+03  0.14776953613E+04  0.92476306086E+02 0.  0.
         11    1    3    3    0    0 -0.95430728333E+03  0.11733275937E+02 -0.47104537495E+03  0.10642949807E+04  0.00000000000E+00 0.  1.
        -11    1    3    3    0    0 -0.39242935089E+03 -0.18767317030E+01 -0.12998291082E+03  0.41340038059E+03  0.00000000000E+00 0. -1.
         22    1    1    2    0    0  0.13467366342E+04 -0.98565442338E+01  0.80806998501E+03  0.15705966427E+04  0.00000000000E+00 0. -1.
<mgrwt>
<rscale>  0 0.30412527E+04</rscale>
<asrwt>0</asrwt>
<pdfrwt beam="1">  1        1 0.25041028E+00 0.30412527E+04</pdfrwt>
<pdfrwt beam="2">  1       -1 0.21855772E+00 0.30412527E+04</pdfrwt>
<totfact> 0.50976704E-01</totfact>
</mgrwt>
</event>
<event>
 6    1  0.1585031E-006  0.3734458E+04  0.7818608E-02  0.8060368E-01
         -2   -1    0    0    0  501 -0.00000000000E+00  0.00000000000E+00  0.19877044030E+04  0.19877044030E+04  0.00000000000E+00 0.  1.
          2   -1    0    0  501    0  0.00000000000E+00 -0.00000000000E+00 -0.17540552590E+04  0.17540552590E+04  0.00000000000E+00 0. -1.
         23    2    1    2    0    0  0.13558957813E+04 -0.12812381482E+04  0.16398694176E+03  0.18749770329E+04  0.92857927906E+02 0.  0.
         13    1    3    3    0    0  0.10478120500E+04 -0.10406710186E+04  0.12095441322E+03  0.14817341972E+04  0.00000000000E+00 0.  1.
        -13    1    3    3    0    0  0.30808373130E+03 -0.24056712961E+03  0.43032528541E+02  0.39324283573E+03  0.00000000000E+00 0. -1.
         22    1    1    2    0    0 -0.13558957813E+04  0.12812381482E+04  0.69662202258E+02  0.18667826291E+04  0.00000000000E+00 0. -1.
<mgrwt>
<rscale>  0 0.37344576E+04</rscale>
<asrwt>0</asrwt>
<pdfrwt beam="1">  1        2 0.26985466E+00 0.37344576E+04</pdfrwt>
<pdfrwt beam="2">  1       -2 0.30580068E+00 0.37344576E+04</pdfrwt>
<totfact> 0.21601207E-01</totfact>
</mgrwt>
</event>
<event>
 6    1  0.1585031E-006  0.2162615E+04  0.7818608E-02  0.8534152E-01
         -2   -1    0    0    0  501 -0.00000000000E+00  0.00000000000E+00  0.36749407481E+03  0.36749407481E+03  0.00000000000E+00 0.  1.
          2   -1    0    0  501    0  0.00000000000E+00 -0.00000000000E+00 -0.31816178421E+04  0.31816178421E+04  0.00000000000E+00 0. -1.
         23    2    1    2    0    0 -0.96586566654E+03  0.47803630352E+03 -0.13120217040E+04  0.17004026911E+04  0.92483331816E+02 0.  0.
         13    1    3    3    0    0 -0.63802949179E+03  0.33402191435E+03 -0.93842161513E+03  0.11829147896E+04  0.00000000000E+00 0.  1.
        -13    1    3    3    0    0 -0.32783617475E+03  0.14401438916E+03 -0.37360008890E+03  0.51748790149E+03  0.00000000000E+00 0. -1.
         22    1    1    2    0    0  0.96586566654E+03 -0.47803630352E+03 -0.15021020633E+04  0.18487092259E+04  0.00000000000E+00 0. -1.
<mgrwt>
<rscale>  0 0.21626148E+04</rscale>
<asrwt>0</asrwt>
<pdfrwt beam="1">  1        2 0.48947965E+00 0.21626148E+04</pdfrwt>
<pdfrwt beam="2">  1       -2 0.56537552E-01 0.21626148E+04</pdfrwt>
<totfact> 0.35950817E+00</totfact>
</mgrwt>
</event>
<event>
 6    1  0.1585031E-006  0.1941453E+04  0.7818608E-02  0.8634494E-01
         -2   -1    0    0    0  501 -0.00000000000E+00  0.00000000000E+00  0.18392129293E+04  0.18392129293E+04  0.00000000000E+00 0.  1.
          2   -1    0    0  501    0  0.00000000000E+00 -0.00000000000E+00 -0.51234389276E+03  0.51234389276E+03  0.00000000000E+00 0. -1.
         23    2    1    2    0    0  0.28598033028E+03  0.42084007941E+03 -0.33342891985E+03  0.61504295062E+03  0.90619339948E+02 0.  0.
         13    1    3    3    0    0  0.68063944932E+02  0.15136744427E+03 -0.71874001927E+02  0.18086092983E+03  0.00000000000E+00 0. -1.
        -13    1    3    3    0    0  0.21791638535E+03  0.26947263513E+03 -0.26155491792E+03  0.43418202079E+03  0.00000000000E+00 0.  1.
         22    1    1    2    0    0 -0.28598033028E+03 -0.42084007941E+03  0.16602979563E+04  0.17365138714E+04  0.00000000000E+00 0.  1.
<mgrwt>
<rscale>  0 0.19414526E+04</rscale>
<asrwt>0</asrwt>
<pdfrwt beam="1">  1        2 0.78822138E-01 0.19414526E+04</pdfrwt>
<pdfrwt beam="2">  1       -2 0.28295583E+00 0.19414526E+04</pdfrwt>
<totfact> 0.22585928E+00</totfact>
</mgrwt>
</event>
<event>
 6    1  0.1585031E-006  0.3021554E+04  0.7818608E-02  0.8237603E-01
         -1   -1    0    0    0  501 -0.00000000000E+00  0.00000000000E+00  0.89766238384E+03  0.89766238384E+03  0.00000000000E+00 0.  1.
          1   -1    0    0  501    0  0.00000000000E+00 -0.00000000000E+00 -0.25426558652E+04  0.25426558652E+04  0.00000000000E+00 0. -1.
         23    2    1    2    0    0  0.13214412810E+04 -0.25637970461E+03 -0.16004401938E+04  0.20934988077E+04  0.96906304071E+02 0.  0.
         13    1    3    3    0    0  0.58338844366E+03 -0.68745284834E+02 -0.66580901822E+03  0.88790181841E+03  0.00000000000E+00 0.  1.
        -13    1    3    3    0    0  0.73805283737E+03 -0.18763441978E+03 -0.93463117559E+03  0.12055969893E+04  0.00000000000E+00 0. -1.
         22    1    1    2    0    0 -0.13214412810E+04  0.25637970461E+03 -0.44553287569E+02  0.13468194413E+04  0.00000000000E+00 0.  1.
<mgrwt>
<rscale>  0 0.30215536E+04</rscale>
<asrwt>0</asrwt>
<pdfrwt beam="1">  1        1 0.39117782E+00 0.30215536E+04</pdfrwt>
<pdfrwt beam="2">  1       -1 0.13810191E+00 0.30215536E+04</pdfrwt>
<totfact> 0.46669073E-01</totfact>
</mgrwt>
</event>
<event>
 6    1  0.1585031E-006  0.1285639E+04  0.7818608E-02  0.9041032E-01
          1   -1    0    0  501    0  0.00000000000E+00  0.00000000000E+00  0.29276917855E+03  0.29276917855E+03  0.00000000000E+00 0. -1.
         -1   -1    0    0    0  501 -0.00000000000E+00 -0.00000000000E+00 -0.14114074859E+04  0.14114074859E+04  0.00000000000E+00 0.  1.
         23    2    1    2    0    0 -0.98515927563E+02 -0.62064594846E+03 -0.40074990340E+03  0.75009567111E+03  0.84476324647E+02 0.  0.
         11    1    3    3    0    0 -0.18919862489E+02 -0.31211950762E+03 -0.16363076674E+03  0.35291865360E+03  0.00000000000E+00 0.  1.
        -11    1    3    3    0    0 -0.79596065075E+02 -0.30852644084E+03 -0.23711913666E+03  0.39717701752E+03  0.00000000000E+00 0. -1.
         22    1    1    2    0    0  0.98515927563E+02  0.62064594846E+03 -0.71788840393E+03  0.95408099332E+03  0.00000000000E+00 0.  1.
<mgrwt>
<rscale>  0 0.12856385E+04</rscale>
<asrwt>0</asrwt>
<pdfrwt beam="1">  1        1 0.45041412E-01 0.12856385E+04</pdfrwt>
<pdfrwt beam="2">  1       -1 0.21713961E+00 0.12856385E+04</pdfrwt>
<totfact> 0.10245128E+01</totfact>
</mgrwt>
</event>
<event>
 6    1  0.1585031E-006  0.2700166E+04  0.7818608E-02  0.8334951E-01
         -1   -1    0    0    0  501 -0.00000000000E+00  0.00000000000E+00  0.87924206733E+03  0.87924206733E+03  0.00000000000E+00 0.  1.
          1   -1    0    0  501    0  0.00000000000E+00 -0.00000000000E+00 -0.20730623186E+04  0.20730623186E+04  0.00000000000E+00 0. -1.
         23    2    1    2    0    0 -0.70454854574E+03 -0.11068733785E+04 -0.25716255004E+03  0.13401986268E+04  0.91882820268E+02 0.  0.
         13    1    3    3    0    0 -0.47327599305E+03 -0.68290374460E+03 -0.19316727900E+03  0.85303064872E+03  0.00000000000E+00 0. -1.
        -13    1    3    3    0    0 -0.23127255269E+03 -0.42396963392E+03 -0.63995271046E+02  0.48716797805E+03  0.00000000000E+00 0.  1.
         22    1    1    2    0    0  0.70454854574E+03  0.11068733785E+04 -0.93665770120E+03  0.16121057591E+04  0.00000000000E+00 0. -1.
<mgrwt>
<rscale>  0 0.27001656E+04</rscale>
<asrwt>0</asrwt>
<pdfrwt beam="1">  1        1 0.31893266E+00 0.27001656E+04</pdfrwt>
<pdfrwt beam="2">  1       -1 0.13526801E+00 0.27001656E+04</pdfrwt>
<totfact> 0.10635302E+00</totfact>
</mgrwt>
</event>
<event>
 6    1  0.1585031E-006  0.1922485E+04  0.7818608E-02  0.8643744E-01
         -2   -1    0    0    0  501 -0.00000000000E+00  0.00000000000E+00  0.18076954297E+04  0.18076954297E+04  0.00000000000E+00 0.  1.
          2   -1    0    0  501    0  0.00000000000E+00 -0.00000000000E+00 -0.51114100467E+03  0.51114100467E+03  0.00000000000E+00 0. -1.
         23    2    1    2    0    0  0.70556482722E+03  0.61616267958E+03  0.89787542427E+03  0.13007877525E+04  0.91598724490E+02 0.  0.
         11    1    3    3    0    0  0.44163009134E+03  0.40250347588E+03  0.51314846133E+03  0.78763413400E+03  0.00000000000E+00 0. -1.
        -11    1    3    3    0    0  0.26393473588E+03  0.21365920370E+03  0.38472696294E+03  0.51315361847E+03  0.00000000000E+00 0.  1.
         22    1    1    2    0    0 -0.70556482722E+03 -0.61616267958E+03  0.39867900079E+03  0.10180486819E+04  0.00000000000E+00 0. -1.
<mgrwt>
<rscale>  0 0.19224851E+04</rscale>
<asrwt>0</asrwt>
<pdfrwt beam="1">  1        2 0.78637079E-01 0.19224851E+04</pdfrwt>
<pdfrwt beam="2">  1       -2 0.27810699E+00 0.19224851E+04</pdfrwt>
<totfact> 0.24278729E+00</totfact>
</mgrwt>
</event>
<event>
 6    1  0.1585031E-006  0.2135119E+04  0.7818608E-02  0.8545929E-01
         -2   -1    0    0    0  501 -0.00000000000E+00  0.00000000000E+00  0.15847744435E+04  0.15847744435E+04  0.00000000000E+00 0.  1.
          2   -1    0    0  501    0  0.00000000000E+00 -0.00000000000E+00 -0.71914554588E+03  0.71914554588E+03  0.00000000000E+00 0. -1.
         23    2    1    2    0    0  0.41198519434E+03  0.95379415831E+03  0.17830094725E+03  0.10581773160E+04  0.92156972665E+02 0.  0.
         11    1    3    3    0    0  0.71090388810E+02  0.25838753012E+03  0.30312482784E+02  0.26969761904E+03  0.00000000000E+00 0.  1.
        -11    1    3    3    0    0  0.34089480553E+03  0.69540662818E+03  0.14798846447E+03  0.78847969700E+03  0.00000000000E+00 0. -1.
         22    1    1    2    0    0 -0.41198519434E+03 -0.95379415831E+03  0.68732795034E+03  0.12457426733E+04  0.00000000000E+00 0.  1.
<mgrwt>
<rscale>  0 0.21351192E+04</rscale>
<asrwt>0</asrwt>
<pdfrwt beam="1">  1        2 0.11063778E+00 0.21351192E+04</pdfrwt>
<pdfrwt beam="2">  1       -2 0.24381145E+00 0.21351192E+04</pdfrwt>
<totfact> 0.25516422E+00</totfact>
</mgrwt>
</event>
<event>
 6    1  0.1585031E-006  0.9935946E+03  0.7818608E-02  0.9315598E-01
         -1   -1    0    0    0  501 -0.00000000000E+00  0.00000000000E+00  0.21917895952E+03  0.21917895952E+03  0.00000000000E+00 0.  1.
          1   -1    0    0  501    0  0.00000000000E+00 -0.00000000000E+00 -0.11260548880E+04  0.11260548880E+04  0.00000000000E+00 0. -1.
         23    2    1    2    0    0  0.65016014258E+02  0.32556175340E+03  0.35288240193E+02  0.34628897511E+03  0.91941595579E+02 0.  0.
         11    1    3    3    0    0  0.76583245887E+02  0.20045815326E+03 -0.40809989151E+01  0.21462786238E+03  0.00000000000E+00 0.  1.
        -11    1    3    3    0    0 -0.11567231630E+02  0.12510360014E+03  0.39369239108E+02  0.13166111272E+03  0.00000000000E+00 0. -1.
         22    1    1    2    0    0 -0.65016014258E+02 -0.32556175340E+03 -0.94216416864E+03  0.99894487238E+03  0.00000000000E+00 0. -1.
<mgrwt>
<rscale>  0 0.99359456E+03</rscale>
<asrwt>0</asrwt>
<pdfrwt beam="1">  1        1 0.17323922E+00 0.99359456E+03</pdfrwt>
<pdfrwt beam="2">  1       -1 0.33719839E-01 0.99359456E+03</pdfrwt>
<totfact> 0.10072334E+02</totfact>
</mgrwt>
</event>
<event>
 6    1  0.1585031E-006  0.1790555E+04  0.7818608E-02  0.8711338E-01
          1   -1    0    0  501    0  0.00000000000E+00  0.00000000000E+00  0.51896378164E+03  0.51896378164E+03  0.00000000000E+00 0.  1.
         -1   -1    0    0    0  501 -0.00000000000E+00 -0.00000000000E+00 -0.15444665459E+04  0.15444665459E+04  0.00000000000E+00 0. -1.
         23    2    1    2    0    0 -0.16040130598E+03 -0.83067032417E+03 -0.84307397991E+03  0.11979697405E+04  0.92822395444E+02 0.  0.
         13    1    3    3    0    0 -0.48964063959E+02 -0.31618713269E+03 -0.25871689489E+03  0.41146836347E+03  0.00000000000E+00 0. -1.
        -13    1    3    3    0    0 -0.11143724202E+03 -0.51448319148E+03 -0.58435708502E+03  0.78650137701E+03  0.00000000000E+00 0.  1.
         22    1    1    2    0    0  0.16040130598E+03  0.83067032417E+03 -0.18242878437E+03  0.86546058708E+03  0.00000000000E+00 0.  1.
<mgrwt>
<rscale>  0 0.17905554E+04</rscale>
<asrwt>0</asrwt>
<pdfrwt beam="1">  1        1 0.79840582E-01 0.17905554E+04</pdfrwt>
<pdfrwt beam="2">  1       -1 0.23761024E+00 0.17905554E+04</pdfrwt>
<totfact> 0.33412223E+00</totfact>
</mgrwt>
</event>
<event>
 6    1  0.1585031E-006  0.3375661E+04  0.7818608E-02  0.8143906E-01
          2   -1    0    0  501    0  0.00000000000E+00  0.00000000000E+00  0.12884415138E+04  0.12884415138E+04  0.00000000000E+00 0. -1.
         -2   -1    0    0    0  501 -0.00000000000E+00 -0.00000000000E+00 -0.22110210064E+04  0.22110210064E+04  0.00000000000E+00 0.  1.
         23    2    1    2    0    0  0.14613716645E+04 -0.47683509885E+03 -0.11811235868E+04  0.19406732778E+04  0.90448829243E+02 0.  0.
         13    1    3    3    0    0  0.33834201325E+03 -0.88734315964E+02 -0.22927178840E+03  0.41822798772E+03  0.00000000000E+00 0.  1.
        -13    1    3    3    0    0  0.11230296512E+04 -0.38810078289E+03 -0.95185179842E+03  0.15224452901E+04  0.00000000000E+00 0. -1.
         22    1    1    2    0    0 -0.14613716645E+04  0.47683509885E+03  0.25854409420E+03  0.15587892423E+04  0.00000000000E+00 0. -1.
<mgrwt>
<rscale>  0 0.33756607E+04</rscale>
<asrwt>0</asrwt>
<pdfrwt beam="1">  1        2 0.19822177E+00 0.33756607E+04</pdfrwt>
<pdfrwt beam="2">  1       -2 0.34015707E+00 0.33756607E+04</pdfrwt>
<totfact> 0.24995482E-01</totfact>
</mgrwt>
</event>
<event>
 6    1  0.1585031E-006  0.1973033E+04  0.7818608E-02  0.8619333E-01
         -2   -1    0    0    0  501 -0.00000000000E+00  0.00000000000E+00  0.14646381538E+04  0.14646381538E+04  0.00000000000E+00 0.  1.
          2   -1    0    0  501    0  0.00000000000E+00 -0.00000000000E+00 -0.66447457336E+03  0.66447457336E+03  0.00000000000E+00 0. -1.
         23    2    1    2    0    0 -0.46127650466E+03  0.65617398844E+02 -0.53489770701E+03  0.71508645512E+03  0.90285239896E+02 0.  0.
         13    1    3    3    0    0 -0.25757381829E+02 -0.16680734078E+02 -0.25882080014E+02  0.40144385335E+02  0.00000000000E+00 0.  1.
        -13    1    3    3    0    0 -0.43551912283E+03  0.82298132922E+02 -0.50901562700E+03  0.67494206979E+03  0.00000000000E+00 0. -1.
         22    1    1    2    0    0  0.46127650466E+03 -0.65617398844E+02  0.13350612875E+04  0.14140262721E+04  0.00000000000E+00 0.  1.
<mgrwt>
<rscale>  0 0.19730330E+04</rscale>
<asrwt>0</asrwt>
<pdfrwt beam="1">  1        2 0.10222686E+00 0.19730330E+04</pdfrwt>
<pdfrwt beam="2">  1       -2 0.22532895E+00 0.19730330E+04</pdfrwt>
<totfact> 0.37237707E+00</totfact>
</mgrwt>
</event>
<event>
 6    1  0.1585031E-006  0.1350311E+04  0.7818608E-02  0.8990593E-01
         -2   -1    0    0    0  501 -0.00000000000E+00  0.00000000000E+00  0.26251958261E+03  0.26251958261E+03  0.00000000000E+00 0.  1.
          2   -1    0    0  501    0  0.00000000000E+00 -0.00000000000E+00 -0.17363840096E+04  0.17363840096E+04  0.00000000000E+00 0. -1.
         23    2    1    2    0    0  0.41295782106E+03 -0.42337937982E+03 -0.26687969840E+03  0.65480672209E+03  0.88106802501E+02 0.  0.
         11    1    3    3    0    0  0.12280238698E+03 -0.93787875458E+02 -0.10493124053E+03  0.18678104045E+03  0.00000000000E+00 0.  1.
        -11    1    3    3    0    0  0.29015543408E+03 -0.32959150436E+03 -0.16194845787E+03  0.46802568165E+03  0.00000000000E+00 0. -1.
         22    1    1    2    0    0 -0.41295782106E+03  0.42337937982E+03 -0.12069847286E+04  0.13440968702E+04  0.00000000000E+00 0. -1.
<mgrwt>
<rscale>  0 0.13503108E+04</rscale>
<asrwt>0</asrwt>
<pdfrwt beam="1">  1        2 0.26713601E+00 0.13503108E+04</pdfrwt>
<pdfrwt beam="2">  1       -2 0.40387627E-01 0.13503108E+04</pdfrwt>
<totfact> 0.53054888E+01</totfact>
</mgrwt>
</event>
<event>
 6    1  0.1585031E-006  0.1301247E+04  0.7818608E-02  0.9028577E-01
         -1   -1    0    0    0  501 -0.00000000000E+00  0.00000000000E+00  0.28074026842E+03  0.28074026842E+03  0.00000000000E+00 0.  1.
          1   -1    0    0  501    0  0.00000000000E+00 -0.00000000000E+00 -0.15078374218E+04  0.15078374218E+04  0.00000000000E+00 0. -1.
         23    2    1    2    0    0 -0.48559929024E+03 -0.29210602130E+03 -0.10468674032E+04  0.11939220241E+04  0.91574240251E+02 0.  0.
         13    1    3    3    0    0 -0.91869785891E+02 -0.74870290726E+02 -0.29390938927E+03  0.31690431851E+03  0.00000000000E+00 0. -1.
        -13    1    3    3    0    0 -0.39372950435E+03 -0.21723573057E+03 -0.75295801392E+03  0.87701770561E+03  0.00000000000E+00 0.  1.
         22    1    1    2    0    0  0.48559929024E+03  0.29210602130E+03 -0.18022975019E+03  0.59465566609E+03  0.00000000000E+00 0.  1.
<mgrwt>
<rscale>  0 0.13012466E+04</rscale>
<asrwt>0</asrwt>
<pdfrwt beam="1">  1        1 0.23197499E+00 0.13012466E+04</pdfrwt>
<pdfrwt beam="2">  1       -1 0.43190810E-01 0.13012466E+04</pdfrwt>
<totfact> 0.33548731E+01</totfact>
</mgrwt>
</event>
<event>
 6    1  0.2089501E-006  0.3519980E+04  0.7818608E-02  0.8109071E-01
          2   -1    0    0  501    0  0.00000000000E+00  0.00000000000E+00  0.17089868433E+04  0.17089868433E+04  0.00000000000E+00 0.  1.
         -2   -1    0    0    0  501 -0.00000000000E+00 -0.00000000000E+00 -0.18125156526E+04  0.18125156526E+04  0.00000000000E+00 0. -1.
         23    2    1    2    0    0 -0.17348789866E+04 -0.20795550797E+03 -0.25295055434E+03  0.17678270843E+04  0.90432435999E+02 0.  0.
         11    1    3    3    0    0 -0.69440290000E+03 -0.10643739574E+03 -0.13999070621E+03  0.71632513886E+03  0.00000000000E+00 0. -1.
        -11    1    3    3    0    0 -0.10404760866E+04 -0.10151811223E+03 -0.11295984813E+03  0.10515019454E+04  0.00000000000E+00 0.  1.
         22    1    1    2    0    0  0.17348789866E+04  0.20795550797E+03  0.14942174509E+03  0.17536754116E+04  0.00000000000E+00 0. -1.
<mgrwt>
<rscale>  0 0.35199803E+04</rscale>
<asrwt>0</asrwt>
<pdfrwt beam="1">  1        2 0.26292105E+00 0.35199803E+04</pdfrwt>
<pdfrwt beam="2">  1       -2 0.27884856E+00 0.35199803E+04</pdfrwt>
<totfact> 0.34038753E-01</totfact>
</mgrwt>
</event>
<event>
 6    1  0.1585031E-006  0.5791993E+03  0.7818608E-02  0.9949526E-01
         -1   -1    0    0    0  501 -0.00000000000E+00  0.00000000000E+00  0.23196404429E+03  0.23196404429E+03  0.00000000000E+00 0.  1.
          1   -1    0    0  501    0  0.00000000000E+00 -0.00000000000E+00 -0.36155586919E+03  0.36155586919E+03  0.00000000000E+00 0. -1.
         23    2    1    2    0    0  0.18436116845E+03  0.16444219114E+03 -0.20740363047E+03  0.33451228475E+03  0.88611105722E+02 0.  0.
         11    1    3    3    0    0  0.35383979702E+02  0.86289869159E+02 -0.87880436871E+02  0.12814421065E+03  0.00000000000E+00 0. -1.
        -11    1    3    3    0    0  0.14897718875E+03  0.78152321976E+02 -0.11952319360E+03  0.20636807410E+03  0.00000000000E+00 0.  1.
         22    1    1    2    0    0 -0.18436116845E+03 -0.16444219114E+03  0.77811805565E+02  0.25900762874E+03  0.00000000000E+00 0.  1.
<mgrwt>
<rscale>  0 0.57919932E+03</rscale>
<asrwt>0</asrwt>
<pdfrwt beam="1">  1        1 0.55623980E-01 0.57919932E+03</pdfrwt>
<pdfrwt beam="2">  1       -1 0.35686776E-01 0.57919932E+03</pdfrwt>
<totfact> 0.51961114E+02</totfact>
</mgrwt>
</event>
<event>
 6    1  0.1585031E-006  0.4064266E+04  0.7818608E-02  0.7991706E-01
          1   -1    0    0  501    0  0.00000000000E+00  0.00000000000E+00  0.15322257711E+04  0.15322257711E+04  0.00000000000E+00 0. -1.
         -1   -1    0    0    0  501 -0.00000000000E+00 -0.00000000000E+00 -0.26951411101E+04  0.26951411101E+04  0.00000000000E+00 0.  1.
         23    2    1    2    0    0 -0.10244433212E+04 -0.11832009655E+04 -0.19282720947E+04  0.24851787149E+04  0.91822277441E+02 0.  0.
         13    1    3    3    0    0 -0.69119851720E+03 -0.83007342240E+03 -0.12706241430E+04  0.16677119024E+04  0.00000000000E+00 0.  1.
        -13    1    3    3    0    0 -0.33324480403E+03 -0.35312754309E+03 -0.65764795168E+03  0.81746681245E+03  0.00000000000E+00 0. -1.
         22    1    1    2    0    0  0.10244433212E+04  0.11832009655E+04  0.76535675569E+03  0.17421881663E+04  0.00000000000E+00 0. -1.
<mgrwt>
<rscale>  0 0.40642661E+04</rscale>
<asrwt>0</asrwt>
<pdfrwt beam="1">  1        1 0.23572705E+00 0.40642661E+04</pdfrwt>
<pdfrwt beam="2">  1       -1 0.41463709E+00 0.40642661E+04</pdfrwt>
<totfact> 0.27448059E-02</totfact>
</mgrwt>
</event>
<event>
 6    1  0.1585031E-006  0.7270737E+03  0.7818608E-02  0.9672021E-01
         -1   -1    0    0    0  501 -0.00000000000E+00  0.00000000000E+00  0.43395366863E+03  0.43395366863E+03  0.00000000000E+00 0.  1.
          1   -1    0    0  501    0  0.00000000000E+00 -0.00000000000E+00 -0.30454640679E+03  0.30454640679E+03  0.00000000000E+00 0. -1.
         23    2    1    2    0    0  0.19659915496E+03 -0.26115388460E+03 -0.81467815176E+02  0.34950023316E+03  0.93063574493E+02 0.  0.
         13    1    3    3    0    0  0.12486805727E+03 -0.19649663006E+03 -0.96020695901E+02  0.25183909822E+03  0.00000000000E+00 0. -1.
        -13    1    3    3    0    0  0.71731097688E+02 -0.64657254537E+02  0.14552880725E+02  0.97661134937E+02  0.00000000000E+00 0.  1.
         22    1    1    2    0    0 -0.19659915496E+03  0.26115388460E+03  0.21087507702E+03  0.38899984226E+03  0.00000000000E+00 0. -1.
<mgrwt>
<rscale>  0 0.72707367E+03</rscale>
<asrwt>0</asrwt>
<pdfrwt beam="1">  1        1 0.46853293E-01 0.72707367E+03</pdfrwt>
<pdfrwt beam="2">  1       -1 0.66762103E-01 0.72707367E+03</pdfrwt>
<totfact> 0.19817441E+02</totfact>
</mgrwt>
</event>
<event>
 6    1  0.1585031E-006  0.3175255E+04  0.7818608E-02  0.8195383E-01
         -2   -1    0    0    0  501 -0.00000000000E+00  0.00000000000E+00  0.13151788467E+04  0.13151788467E+04  0.00000000000E+00 0.  1.
          2   -1    0    0  501    0  0.00000000000E+00 -0.00000000000E+00 -0.19165159798E+04  0.19165159798E+04  0.00000000000E+00 0. -1.
         23    2    1    2    0    0  0.12860678014E+04 -0.89955195654E+03 -0.66133730962E+02  0.15735009917E+04  0.91474522035E+02 0.  0.
         13    1    3    3    0    0  0.33201176382E+03 -0.21451672605E+03  0.20305704463E+02  0.39580495033E+03  0.00000000000E+00 0.  1.
        -13    1    3    3    0    0  0.95405603753E+03 -0.68503523049E+03 -0.86439435425E+02  0.11776960413E+04  0.00000000000E+00 0. -1.
         22    1    1    2    0    0 -0.12860678014E+04  0.89955195654E+03 -0.53520340214E+03  0.16581938348E+04  0.00000000000E+00 0. -1.
<mgrwt>
<rscale>  0 0.31752551E+04</rscale>
<asrwt>0</asrwt>
<pdfrwt beam="1">  1        2 0.29484861E+00 0.31752551E+04</pdfrwt>
<pdfrwt beam="2">  1       -2 0.20233521E+00 0.31752551E+04</pdfrwt>
<totfact> 0.80552653E-01</totfact>
</mgrwt>
</event>
<event>
 6    1  0.1585031E-006  0.2955326E+04  0.7818608E-02  0.8256604E-01
          2   -1    0    0  501    0  0.00000000000E+00  0.00000000000E+00  0.29637790900E+04  0.29637790900E+04  0.00000000000E+00 0. -1.
         -2   -1    0    0    0  501 -0.00000000000E+00 -0.00000000000E+00 -0.73672435001E+03  0.73672435001E+03  0.00000000000E+00 0.  1.
         23    2    1    2    0    0 -0.94782395145E+03 -0.53707192908E+03 -0.13289017635E+03  0.11012426782E+04  0.90879795878E+02 0.  0.
         11    1    3    3    0    0 -0.87721965878E+03 -0.52255917832E+03 -0.12661611139E+03  0.10288897241E+04  0.00000000000E+00 0.  1.
        -11    1    3    3    0    0 -0.70604292667E+02 -0.14512750759E+02 -0.62740649573E+01  0.72352954112E+02  0.00000000000E+00 0. -1.
         22    1    1    2    0    0  0.94782395145E+03  0.53707192908E+03  0.23599449164E+04  0.25992607619E+04  0.00000000000E+00 0. -1.
<mgrwt>
<rscale>  0 0.29553262E+04</rscale>
<asrwt>0</asrwt>
<pdfrwt beam="1">  1        2 0.45596601E+00 0.29553262E+04</pdfrwt>
<pdfrwt beam="2">  1       -2 0.11334221E+00 0.29553262E+04</pdfrwt>
<totfact> 0.96228041E-01</totfact>
</mgrwt>
</event>
<event>
 6    1  0.1585031E-006  0.6509865E+03  0.7818608E-02  0.9804930E-01
          2   -1    0    0  501    0  0.00000000000E+00  0.00000000000E+00  0.20850469435E+04  0.20850469435E+04  0.00000000000E+00 0. -1.
         -2   -1    0    0    0  501 -0.00000000000E+00 -0.00000000000E+00 -0.50812218116E+02  0.50812218116E+02  0.00000000000E+00 0.  1.
         23    2    1    2    0    0 -0.30340413013E+02  0.12096343825E+03  0.20007541675E+04  0.20067327050E+04  0.91685419857E+02 0.  0.
         11    1    3    3    0    0 -0.18951990196E+02  0.33781176183E+02  0.12871182120E+04  0.12877009114E+04  0.00000000000E+00 0.  1.
        -11    1    3    3    0    0 -0.11388422817E+02  0.87182262064E+02  0.71363595559E+03  0.71903179353E+03  0.00000000000E+00 0. -1.
         22    1    1    2    0    0  0.30340413013E+02 -0.12096343825E+03  0.33480557855E+02  0.12912645666E+03  0.00000000000E+00 0.  1.
<mgrwt>
<rscale>  0 0.65098651E+03</rscale>
<asrwt>0</asrwt>
<pdfrwt beam="1">  1        2 0.32077639E+00 0.65098651E+03</pdfrwt>
<pdfrwt beam="2">  1       -2 0.78172659E-02 0.65098651E+03</pdfrwt>
<totfact> 0.63174651E+02</totfact>
</mgrwt>
</event>
<event>
 6    1  0.1585031E-006  0.1493719E+04  0.7818608E-02  0.8888640E-01
         -2   -1    0    0    0  501 -0.00000000000E+00  0.00000000000E+00  0.90443168863E+03  0.90443168863E+03  0.00000000000E+00 0.  1.
          2   -1    0    0  501    0  0.00000000000E+00 -0.00000000000E+00 -0.61673998338E+03  0.61673998338E+03  0.00000000000E+00 0. -1.
         23    2    1    2    0    0 -0.34097779284E+03  0.13500665144E+03  0.80383141797E+03  0.88801067022E+03  0.89024439116E+02 0.  0.
         13    1    3    3    0    0 -0.33294619430E+03  0.11155744931E+03  0.72855945528E+03  0.80876270480E+03  0.00000000000E+00 0. -1.
        -13    1    3    3    0    0 -0.80315985396E+01  0.23449202132E+02  0.75271962688E+02  0.79247965416E+02  0.00000000000E+00 0.  1.
         22    1    1    2    0    0  0.34097779284E+03 -0.13500665144E+03 -0.51613971272E+03  0.63316100179E+03  0.00000000000E+00 0. -1.
<mgrwt>
<rscale>  0 0.14937191E+04</rscale>
<asrwt>0</asrwt>
<pdfrwt beam="1">  1        2 0.94883074E-01 0.14937191E+04</pdfrwt>
<pdfrwt beam="2">  1       -2 0.13914334E+00 0.14937191E+04</pdfrwt>
<totfact> 0.16910420E+01</totfact>
</mgrwt>
</event>
<event>
 6    1  0.1585031E-006  0.3091784E+04  0.7818608E-02  0.8217996E-01
         -1   -1    0    0    0  501 -0.00000000000E+00  0.00000000000E+00  0.19130164826E+04  0.19130164826E+04  0.00000000000E+00 0.  1.
          1   -1    0    0  501    0  0.00000000000E+00 -0.00000000000E+00 -0.12492215717E+04  0.12492215717E+04  0.00000000000E+00 0. -1.
         23    2    1    2    0    0  0.90442149098E+03 -0.12266102845E+04  0.58922503917E+03  0.16364229642E+04  0.90238282351E+02 0.  0.
         13    1    3    3    0    0  0.45101322053E+03 -0.55695075380E+03  0.31030520626E+03  0.78095863417E+03  0.00000000000E+00 0.  1.
        -13    1    3    3    0    0  0.45340827045E+03 -0.66965953074E+03  0.27891983291E+03  0.85546433006E+03  0.00000000000E+00 0. -1.
         22    1    1    2    0    0 -0.90442149098E+03  0.12266102845E+04  0.74569871713E+02  0.15258150901E+04  0.00000000000E+00 0. -1.
<mgrwt>
<rscale>  0 0.30917836E+04</rscale>
<asrwt>0</asrwt>
<pdfrwt beam="1">  1        1 0.19218793E+00 0.30917836E+04</pdfrwt>
<pdfrwt beam="2">  1       -1 0.29431023E+00 0.30917836E+04</pdfrwt>
<totfact> 0.29868080E-01</totfact>
</mgrwt>
</event>
<event>
 6    1  0.2363397E-006  0.3023363E+04  0.7818608E-02  0.8237091E-01
         -1   -1    0    0    0  501 -0.00000000000E+00  0.00000000000E+00  0.16055673223E+04  0.16055673223E+04  0.00000000000E+00 0.  1.
          1   -1    0    0  501    0  0.00000000000E+00 -0.00000000000E+00 -0.14232856217E+04  0.14232856217E+04  0.00000000000E+00 0. -1.
         23    2    1    2    0    0  0.35595635123E+02 -0.52293377160E+03  0.15101354739E+04  0.16012947414E+04  0.94387078949E+02 0.  0.
         13    1    3    3    0    0 -0.18740412784E+02 -0.32617509057E+03  0.99120131792E+03  0.10436577243E+04  0.00000000000E+00 0. -1.
        -13    1    3    3    0    0  0.54336047908E+02 -0.19675868102E+03  0.51893415596E+03  0.55763701714E+03  0.00000000000E+00 0.  1.
         22    1    1    2    0    0 -0.35595635123E+02  0.52293377160E+03 -0.13278537733E+04  0.14275582027E+04  0.00000000000E+00 0. -1.
<mgrwt>
<rscale>  0 0.30233630E+04</rscale>
<asrwt>0</asrwt>
<pdfrwt beam="1">  1        1 0.21896702E+00 0.30233630E+04</pdfrwt>
<pdfrwt beam="2">  1       -1 0.24701036E+00 0.30233630E+04</pdfrwt>
<totfact> 0.45833237E-01</totfact>
</mgrwt>
</event>
<event>
 6    1  0.1585031E-006  0.2831753E+04  0.7818608E-02  0.8293478E-01
          1   -1    0    0  501    0  0.00000000000E+00  0.00000000000E+00  0.11981960981E+04  0.11981960981E+04  0.00000000000E+00 0. -1.
         -1   -1    0    0    0  501 -0.00000000000E+00 -0.00000000000E+00 -0.16731031599E+04  0.16731031599E+04  0.00000000000E+00 0.  1.
         23    2    1    2    0    0  0.75738927478E+03  0.67778835559E+03  0.75947649738E+03  0.12723188517E+04  0.94631611453E+02 0.  0.
         11    1    3    3    0    0  0.27192025909E+03  0.22552610723E+03  0.31848034643E+03  0.47563892126E+03  0.00000000000E+00 0. -1.
        -11    1    3    3    0    0  0.48546901569E+03  0.45226224835E+03  0.44099615095E+03  0.79667993048E+03  0.00000000000E+00 0.  1.
         22    1    1    2    0    0 -0.75738927478E+03 -0.67778835559E+03 -0.12343835591E+04  0.15989804062E+04  0.00000000000E+00 0.  1.
<mgrwt>
<rscale>  0 0.28317526E+04</rscale>
<asrwt>0</asrwt>
<pdfrwt beam="1">  1        1 0.18433786E+00 0.28317526E+04</pdfrwt>
<pdfrwt beam="2">  1       -1 0.25740048E+00 0.28317526E+04</pdfrwt>
<totfact> 0.57727166E-01</totfact>
</mgrwt>
</event>
<event>
 6    1  0.1585031E-006  0.1158178E+04  0.7818608E-02  0.9150272E-01
          2   -1    0    0  501    0  0.00000000000E+00  0.00000000000E+00  0.14120694649E+04  0.14120694649E+04  0.00000000000E+00 0. -1.
         -2   -1    0    0    0  501 -0.00000000000E+00 -0.00000000000E+00 -0.23748410725E+03  0.23748410725E+03  0.00000000000E+00 0.  1.
         23    2    1    2    0    0  0.39465154243E+03  0.41790667606E+03  0.55166291331E+03  0.80195213190E+03  0.91648361157E+02 0.  0.
         13    1    3    3    0    0  0.33872208601E+03  0.38509688641E+03  0.45531442685E+03  0.68581593068E+03  0.00000000000E+00 0. -1.
        -13    1    3    3    0    0  0.55929456421E+02  0.32809789657E+02  0.96348486455E+02  0.11613620123E+03  0.00000000000E+00 0.  1.
         22    1    1    2    0    0 -0.39465154243E+03 -0.41790667606E+03  0.62292244433E+03  0.84760144023E+03  0.00000000000E+00 0. -1.
<mgrwt>
<rscale>  0 0.11581780E+04</rscale>
<asrwt>0</asrwt>
<pdfrwt beam="1">  1        2 0.21724145E+00 0.11581780E+04</pdfrwt>
<pdfrwt beam="2">  1       -2 0.36536017E-01 0.11581780E+04</pdfrwt>
<totfact> 0.99318042E+01</totfact>
</mgrwt>
</event>
<event>
 6    1  0.1585031E-006  0.6203743E+04  0.7818608E-02  0.7665641E-01
         -2   -1    0    0    0  501 -0.00000000000E+00  0.00000000000E+00  0.25715384693E+04  0.25715384693E+04  0.00000000000E+00 0.  1.
          2   -1    0    0  501    0  0.00000000000E+00 -0.00000000000E+00 -0.37415761838E+04  0.37415761838E+04  0.00000000000E+00 0. -1.
         23    2    1    2    0    0  0.25764717236E+04 -0.16819729980E+04 -0.19069388483E+03  0.30841281178E+04  0.90787561885E+02 0.  0.
         11    1    3    3    0    0  0.10404499048E+04 -0.66038525422E+03 -0.11805993690E+03  0.12379752974E+04  0.00000000000E+00 0.  1.
        -11    1    3    3    0    0  0.15360218188E+04 -0.10215877437E+04 -0.72633947930E+02  0.18461528204E+04  0.00000000000E+00 0. -1.
         22    1    1    2    0    0 -0.25764717236E+04  0.16819729980E+04 -0.97934382974E+03  0.32289865353E+04  0.00000000000E+00 0. -1.
<mgrwt>
<rscale>  0 0.62037431E+04</rscale>
<asrwt>0</asrwt>
<pdfrwt beam="1">  1        2 0.57562710E+00 0.62037431E+04</pdfrwt>
<pdfrwt beam="2">  1       -2 0.39562130E+00 0.62037431E+04</pdfrwt>
<totfact> 0.28489442E-03</totfact>
</mgrwt>
</event>
<event>
 6    1  0.1585031E-006  0.7380884E+03  0.7818608E-02  0.9654225E-01
         -1   -1    0    0    0  501 -0.00000000000E+00  0.00000000000E+00  0.44153821903E+03  0.44153821903E+03  0.00000000000E+00 0.  1.
          1   -1    0    0  501    0  0.00000000000E+00 -0.00000000000E+00 -0.30845263148E+03  0.30845263148E+03  0.00000000000E+00 0. -1.
         23    2    1    2    0    0  0.25183336221E+03  0.22087835789E+03 -0.76928418426E+02  0.35462624155E+03  0.87375616327E+02 0.  0.
         11    1    3    3    0    0  0.19683160712E+03  0.20041776735E+03 -0.36287235909E+02  0.28324322856E+03  0.00000000000E+00 0.  1.
        -11    1    3    3    0    0  0.55001755086E+02  0.20460590539E+02 -0.40641182517E+02  0.71383012994E+02  0.00000000000E+00 0. -1.
         22    1    1    2    0    0 -0.25183336221E+03 -0.22087835789E+03  0.21001400598E+03  0.39536460895E+03  0.00000000000E+00 0.  1.
<mgrwt>
<rscale>  0 0.73808841E+03</rscale>
<asrwt>0</asrwt>
<pdfrwt beam="1">  1        1 0.47454251E-01 0.73808841E+03</pdfrwt>
<pdfrwt beam="2">  1       -1 0.67928957E-01 0.73808841E+03</pdfrwt>
<totfact> 0.18810512E+02</totfact>
</mgrwt>
</event>
<event>
 6    1  0.1585031E-006  0.1139754E+04  0.7818608E-02  0.9167288E-01
          2   -1    0    0  501    0  0.00000000000E+00  0.00000000000E+00  0.12581986837E+04  0.12581986837E+04  0.00000000000E+00 0. -1.
         -2   -1    0    0    0  501 -0.00000000000E+00 -0.00000000000E+00 -0.25811491468E+03  0.25811491468E+03  0.00000000000E+00 0.  1.
         23    2    1    2    0    0 -0.16026717007E+03 -0.46787248536E+03  0.13640077906E+03  0.52105557379E+03  0.91123597870E+02 0.  0.
         13    1    3    3    0    0 -0.13867228374E+03 -0.29316171175E+03  0.11319564887E+03  0.34349242559E+03  0.00000000000E+00 0.  1.
        -13    1    3    3    0    0 -0.21594886327E+02 -0.17471077361E+03  0.23205130186E+02  0.17756314820E+03  0.00000000000E+00 0. -1.
         22    1    1    2    0    0  0.16026717007E+03  0.46787248536E+03  0.86368298993E+03  0.99525802456E+03  0.00000000000E+00 0. -1.
<mgrwt>
<rscale>  0 0.11397541E+04</rscale>
<asrwt>0</asrwt>
<pdfrwt beam="1">  1        2 0.19356903E+00 0.11397541E+04</pdfrwt>
<pdfrwt beam="2">  1       -2 0.39709988E-01 0.11397541E+04</pdfrwt>
<totfact> 0.10386174E+02</totfact>
</mgrwt>
</event>
<event>
 6    1  0.3302315E-006  0.3247272E+04  0.7818608E-02  0.8176443E-01
          2   -1    0    0  501    0  0.00000000000E+00  0.00000000000E+00  0.15954344398E+04  0.15954344398E+04  0.00000000000E+00 0. -1.
         -2   -1    0    0    0  501 -0.00000000000E+00 -0.00000000000E+00 -0.16523363454E+04  0.16523363454E+04  0.00000000000E+00 0.  1.
         23    2    1    2    0    0  0.76950692056E+03 -0.14006862990E+04 -0.30792695218E+03  0.16300326782E+04  0.90136092455E+02 0.  0.
         11    1    3    3    0    0  0.56211508088E+03 -0.10162324194E+04 -0.26432330002E+03  0.11910367338E+04  0.00000000000E+00 0. -1.
        -11    1    3    3    0    0  0.20739183969E+03 -0.38445387957E+03 -0.43603652164E+02  0.43899594436E+03  0.00000000000E+00 0.  1.
         22    1    1    2    0    0 -0.76950692056E+03  0.14006862990E+04  0.25102504657E+03  0.16177381070E+04  0.00000000000E+00 0.  1.
<mgrwt>
<rscale>  0 0.32472723E+04</rscale>
<asrwt>0</asrwt>
<pdfrwt beam="1">  1        2 0.24545145E+00 0.32472723E+04</pdfrwt>
<pdfrwt beam="2">  1       -2 0.25420559E+00 0.32472723E+04</pdfrwt>
<totfact> 0.56973481E-01</totfact>
</mgrwt>
</event>
<event>
 6    1  0.1585031E-006  0.2292435E+04  0.7818608E-02  0.8480910E-01
         -1   -1    0    0    0  501 -0.00000000000E+00  0.00000000000E+00  0.46799034234E+03  0.46799034234E+03  0.00000000000E+00 0.  1.
          1   -1    0    0  501    0  0.00000000000E+00 -0.00000000000E+00 -0.28073544376E+04  0.28073544376E+04  0.00000000000E+00 0. -1.
         23    2    1    2    0    0  0.44955568242E+03 -0.43854556225E+03 -0.25385711503E+04  0.26164775911E+04  0.84787842463E+02 0.  0.
         13    1    3    3    0    0  0.37843930381E+03 -0.34080642413E+03 -0.19331787424E+04  0.19991361573E+04  0.00000000000E+00 0.  1.
        -13    1    3    3    0    0  0.71116378609E+02 -0.97739138128E+02 -0.60539240782E+03  0.61734143379E+03  0.00000000000E+00 0. -1.
         22    1    1    2    0    0 -0.44955568242E+03  0.43854556225E+03  0.19920705498E+03  0.65886718883E+03  0.00000000000E+00 0.  1.
<mgrwt>
<rscale>  0 0.22924352E+04</rscale>
<asrwt>0</asrwt>
<pdfrwt beam="1">  1        1 0.43190068E+00 0.22924352E+04</pdfrwt>
<pdfrwt beam="2">  1       -1 0.71998515E-01 0.22924352E+04</pdfrwt>
<totfact> 0.14501125E+00</totfact>
</mgrwt>
</event>
<event>
 6    1  0.1585031E-006  0.2338941E+04  0.7818608E-02  0.8462724E-01
         -2   -1    0    0    0  501 -0.00000000000E+00  0.00000000000E+00  0.10782019076E+04  0.10782019076E+04  0.00000000000E+00 0.  1.
          2   -1    0    0  501    0  0.00000000000E+00 -0.00000000000E+00 -0.12684646291E+04  0.12684646291E+04  0.00000000000E+00 0. -1.
         23    2    1    2    0    0 -0.28157321801E+03  0.21040199432E+03 -0.12124833755E+04  0.12657005143E+04  0.91265434988E+02 0.  0.
         11    1    3    3    0    0 -0.89012705183E+02  0.72055432502E+02 -0.25919897765E+03  0.28337141184E+03  0.00000000000E+00 0. -1.
        -11    1    3    3    0    0 -0.19256051283E+03  0.13834656182E+03 -0.95328439785E+03  0.98232910242E+03  0.00000000000E+00 0.  1.
         22    1    1    2    0    0  0.28157321801E+03 -0.21040199432E+03  0.10222206539E+04  0.10809660224E+04  0.00000000000E+00 0.  1.
<mgrwt>
<rscale>  0 0.23389408E+04</rscale>
<asrwt>0</asrwt>
<pdfrwt beam="1">  1        2 0.19514840E+00 0.23389408E+04</pdfrwt>
<pdfrwt beam="2">  1       -2 0.16587722E+00 0.23389408E+04</pdfrwt>
<totfact> 0.35571003E+00</totfact>
</mgrwt>
</event>
<event>
 6    1  0.1585031E-006  0.3383447E+04  0.7818608E-02  0.8141981E-01
          1   -1    0    0  501    0  0.00000000000E+00  0.00000000000E+00  0.31808387371E+04  0.31808387371E+04  0.00000000000E+00 0. -1.
         -1   -1    0    0    0  501 -0.00000000000E+00 -0.00000000000E+00 -0.89973999088E+03  0.89973999088E+03  0.00000000000E+00 0.  1.
         23    2    1    2    0    0  0.24278356850E+03  0.95628166832E+03  0.27969383466E+04  0.29672463501E+04  0.90930178216E+02 0.  0.
         13    1    3    3    0    0  0.17724025919E+02  0.21984595884E+03  0.59924259085E+03  0.63854370987E+03  0.00000000000E+00 0.  1.
        -13    1    3    3    0    0  0.22505954258E+03  0.73643570948E+03  0.21976957558E+04  0.23287026403E+04  0.00000000000E+00 0. -1.
         22    1    1    2    0    0 -0.24278356850E+03 -0.95628166832E+03 -0.51583960038E+03  0.11133323779E+04  0.00000000000E+00 0.  1.
<mgrwt>
<rscale>  0 0.33834467E+04</rscale>
<asrwt>0</asrwt>
<pdfrwt beam="1">  1        1 0.48935980E+00 0.33834467E+04</pdfrwt>
<pdfrwt beam="2">  1       -1 0.13842154E+00 0.33834467E+04</pdfrwt>
<totfact> 0.15612525E-01</totfact>
</mgrwt>
</event>
<event>
 6    1  0.1585031E-006  0.1716294E+04  0.7818608E-02  0.8752125E-01
          2   -1    0    0  501    0  0.00000000000E+00  0.00000000000E+00  0.37489426557E+04  0.37489426557E+04  0.00000000000E+00 0. -1.
         -2   -1    0    0    0  501 -0.00000000000E+00 -0.00000000000E+00 -0.19643314377E+03  0.19643314377E+03  0.00000000000E+00 0.  1.
         23    2    1    2    0    0 -0.27880508510E+03 -0.31706540376E+03  0.34923354764E+04  0.35188975933E+04  0.89277358037E+02 0.  0.
         13    1    3    3    0    0 -0.42759694036E+02 -0.51796683072E+02  0.33568524091E+03  0.34233882161E+03  0.00000000000E+00 0.  1.
        -13    1    3    3    0    0 -0.23604539107E+03 -0.26526872069E+03  0.31566502355E+04  0.31765587717E+04  0.00000000000E+00 0. -1.
         22    1    1    2    0    0  0.27880508510E+03  0.31706540376E+03  0.60174035466E+02  0.42647820611E+03  0.00000000000E+00 0.  1.
<mgrwt>
<rscale>  0 0.17162944E+04</rscale>
<asrwt>0</asrwt>
<pdfrwt beam="1">  1        2 0.57676035E+00 0.17162944E+04</pdfrwt>
<pdfrwt beam="2">  1       -2 0.30220487E-01 0.17162944E+04</pdfrwt>
<totfact> 0.52266164E+00</totfact>
</mgrwt>
</event>
<event>
 6    1  0.1585031E-006  0.2317263E+04  0.7818608E-02  0.8471146E-01
          1   -1    0    0  501    0  0.00000000000E+00  0.00000000000E+00  0.11603835762E+04  0.11603835762E+04  0.00000000000E+00 0. -1.
         -1   -1    0    0    0  501 -0.00000000000E+00 -0.00000000000E+00 -0.11568817604E+04  0.11568817604E+04  0.00000000000E+00 0.  1.
         23    2    1    2    0    0  0.77418421264E+03 -0.97091935694E+01 -0.85780711716E+03  0.11591165803E+04  0.90899576645E+02 0.  0.
         13    1    3    3    0    0  0.24135997267E+03  0.22342426645E+02 -0.21924910259E+03  0.32683939392E+03  0.00000000000E+00 0. -1.
        -13    1    3    3    0    0  0.53282423997E+03 -0.32051620214E+02 -0.63855801457E+03  0.83227718642E+03  0.00000000000E+00 0.  1.
         22    1    1    2    0    0 -0.77418421264E+03  0.97091935694E+01  0.86130893295E+03  0.11581487562E+04  0.00000000000E+00 0. -1.
<mgrwt>
<rscale>  0 0.23172627E+04</rscale>
<asrwt>0</asrwt>
<pdfrwt beam="1">  1        1 0.17852055E+00 0.23172627E+04</pdfrwt>
<pdfrwt beam="2">  1       -1 0.17798181E+00 0.23172627E+04</pdfrwt>
<totfact> 0.22197205E+00</totfact>
</mgrwt>
</event>
<event>
 6    1  0.1585031E-006  0.1530953E+04  0.7818608E-02  0.8864127E-01
          2   -1    0    0  501    0  0.00000000000E+00  0.00000000000E+00  0.72661266380E+03  0.72661266380E+03  0.00000000000E+00 0. -1.
         -2   -1    0    0    0  501 -0.00000000000E+00 -0.00000000000E+00 -0.80641873646E+03  0.80641873646E+03  0.00000000000E+00 0.  1.
         23    2    1    2    0    0 -0.24222980004E+03 -0.63354909773E+03 -0.38963991017E+03  0.78733927739E+03  0.89577580140E+02 0.  0.
         13    1    3    3    0    0 -0.20085487203E+03 -0.58079637028E+03 -0.37060941137E+03  0.71764785176E+03  0.00000000000E+00 0.  1.
        -13    1    3    3    0    0 -0.41374928006E+02 -0.52752727450E+02 -0.19030498800E+02  0.69691425623E+02  0.00000000000E+00 0. -1.
         22    1    1    2    0    0  0.24222980004E+03  0.63354909773E+03  0.30983383750E+03  0.74569212288E+03  0.00000000000E+00 0.  1.
<mgrwt>
<rscale>  0 0.15309527E+04</rscale>
<asrwt>0</asrwt>
<pdfrwt beam="1">  1        2 0.11178656E+00 0.15309527E+04</pdfrwt>
<pdfrwt beam="2">  1       -2 0.12406442E+00 0.15309527E+04</pdfrwt>
<totfact> 0.18397199E+01</totfact>
</mgrwt>
</event>
<event>
 6    1  0.1585031E-006  0.5783041E+03  0.7818608E-02  0.9951469E-01
          1   -1    0    0  501    0  0.00000000000E+00  0.00000000000E+00  0.42251538504E+03  0.42251538504E+03  0.00000000000E+00 0. -1.
         -1   -1    0    0    0  501 -0.00000000000E+00 -0.00000000000E+00 -0.19788367269E+03  0.19788367269E+03  0.00000000000E+00 0.  1.
         23    2    1    2    0    0  0.49860563544E+02  0.19182410678E+03  0.32984615211E+03  0.39600511379E+03  0.93482631226E+02 0.  0.
         13    1    3    3    0    0  0.56940824807E+02  0.10072693172E+03  0.24660692700E+03  0.27240254908E+03  0.00000000000E+00 0.  1.
        -13    1    3    3    0    0 -0.70802612623E+01  0.91097175059E+02  0.83239225118E+02  0.12360256470E+03  0.00000000000E+00 0. -1.
         22    1    1    2    0    0 -0.49860563544E+02 -0.19182410678E+03 -0.10521443976E+03  0.22439394394E+03  0.00000000000E+00 0.  1.
<mgrwt>
<rscale>  0 0.57830406E+03</rscale>
<asrwt>0</asrwt>
<pdfrwt beam="1">  1        1 0.65002367E-01 0.57830406E+03</pdfrwt>
<pdfrwt beam="2">  1       -1 0.30443642E-01 0.57830406E+03</pdfrwt>
<totfact> 0.55980374E+02</totfact>
</mgrwt>
</event>
<event>
 6    1  0.1585031E-006  0.2639232E+04  0.7818608E-02  0.8354996E-01
         -1   -1    0    0    0  501 -0.00000000000E+00  0.00000000000E+00  0.12554850072E+04  0.12554850072E+04  0.00000000000E+00 0.  1.
          1   -1    0    0  501    0  0.00000000000E+00 -0.00000000000E+00 -0.13870231224E+04  0.13870231224E+04  0.00000000000E+00 0. -1.
         23    2    1    2    0    0 -0.11992464559E+04  0.36380480962E+03  0.34323221590E+03  0.13023764686E+04  0.88487910966E+02 0.  0.
         11    1    3    3    0    0 -0.43415370390E+03  0.16488026567E+03  0.97478513117E+02  0.47452818793E+03  0.00000000000E+00 0. -1.
        -11    1    3    3    0    0 -0.76509275198E+03  0.19892454395E+03  0.24575370278E+03  0.82784828064E+03  0.00000000000E+00 0.  1.
         22    1    1    2    0    0  0.11992464559E+04 -0.36380480962E+03 -0.47477033112E+03  0.13401316610E+04  0.00000000000E+00 0. -1.
<mgrwt>
<rscale>  0 0.26392323E+04</rscale>
<asrwt>0</asrwt>
<pdfrwt beam="1">  1        1 0.21338817E+00 0.26392323E+04</pdfrwt>
<pdfrwt beam="2">  1       -1 0.19315154E+00 0.26392323E+04</pdfrwt>
<totfact> 0.11566297E+00</totfact>
</mgrwt>
</event>
<event>
 6    1  0.1585031E-006  0.4687282E+04  0.7818608E-02  0.7878645E-01
          1   -1    0    0  501    0  0.00000000000E+00  0.00000000000E+00  0.30543894022E+04  0.30543894022E+04  0.00000000000E+00 0. -1.
         -1   -1    0    0    0  501 -0.00000000000E+00 -0.00000000000E+00 -0.17982817030E+04  0.17982817030E+04  0.00000000000E+00 0.  1.
         23    2    1    2    0    0 -0.10139842825E+04 -0.20845022309E+04  0.97979259150E+03  0.25182196248E+04  0.90127024655E+02 0.  0.
         11    1    3    3    0    0 -0.77377057426E+03 -0.16723145781E+04  0.78601561398E+03  0.20032916650E+04  0.00000000000E+00 0.  1.
        -11    1    3    3    0    0 -0.24021370822E+03 -0.41218765284E+03  0.19377697752E+03  0.51492795981E+03  0.00000000000E+00 0. -1.
         22    1    1    2    0    0  0.10139842825E+04  0.20845022309E+04  0.27631510769E+03  0.23344514804E+04  0.00000000000E+00 0.  1.
<mgrwt>
<rscale>  0 0.46872818E+04</rscale>
<asrwt>0</asrwt>
<pdfrwt beam="1">  1        1 0.46990606E+00 0.46872818E+04</pdfrwt>
<pdfrwt beam="2">  1       -1 0.27665872E+00 0.46872818E+04</pdfrwt>
<totfact> 0.18875493E-02</totfact>
</mgrwt>
</event>
<event>
 6    1  0.1585031E-006  0.2278518E+04  0.7818608E-02  0.8486440E-01
         -2   -1    0    0    0  501 -0.00000000000E+00  0.00000000000E+00  0.17008213469E+04  0.17008213469E+04  0.00000000000E+00 0.  1.
          2   -1    0    0  501    0  0.00000000000E+00 -0.00000000000E+00 -0.76310831622E+03  0.76310831622E+03  0.00000000000E+00 0. -1.
         23    2    1    2    0    0  0.10607073173E+03 -0.70630336947E+03 -0.48815431827E+03  0.86918418290E+03  0.84089568373E+02 0.  0.
         13    1    3    3    0    0  0.71250107371E+02 -0.30625113331E+03 -0.25504219202E+03  0.40486152468E+03  0.00000000000E+00 0.  1.
        -13    1    3    3    0    0  0.34820624363E+02 -0.40005223616E+03 -0.23311212625E+03  0.46432265822E+03  0.00000000000E+00 0. -1.
         22    1    1    2    0    0 -0.10607073173E+03  0.70630336947E+03  0.14258673490E+04  0.15947454802E+04  0.00000000000E+00 0.  1.
<mgrwt>
<rscale>  0 0.22785179E+04</rscale>
<asrwt>0</asrwt>
<pdfrwt beam="1">  1        2 0.11740128E+00 0.22785179E+04</pdfrwt>
<pdfrwt beam="2">  1       -2 0.26166482E+00 0.22785179E+04</pdfrwt>
<totfact> 0.18145069E+00</totfact>
</mgrwt>
</event>
<event>
 6    1  0.1585031E-006  0.2214302E+04  0.7818608E-02  0.8512499E-01
         -2   -1    0    0    0  501 -0.00000000000E+00  0.00000000000E+00  0.56161707940E+03  0.56161707940E+03  0.00000000000E+00 0.  1.
          2   -1    0    0  501    0  0.00000000000E+00 -0.00000000000E+00 -0.21825965687E+04  0.21825965687E+04  0.00000000000E+00 0. -1.
         23    2    1    2    0    0 -0.10430325432E+04 -0.28831986719E+03 -0.10909741486E+04  0.15392443982E+04  0.89462240599E+02 0.  0.
         13    1    3    3    0    0 -0.90929978116E+03 -0.25121338870E+03 -0.90572304470E+03  0.13077723397E+04  0.00000000000E+00 0.  1.
        -13    1    3    3    0    0 -0.13373276205E+03 -0.37106478493E+02 -0.18525110393E+03  0.23147205857E+03  0.00000000000E+00 0. -1.
         22    1    1    2    0    0  0.10430325432E+04  0.28831986719E+03 -0.53000534067E+03  0.12049692499E+04  0.00000000000E+00 0.  1.
<mgrwt>
<rscale>  0 0.22143022E+04</rscale>
<asrwt>0</asrwt>
<pdfrwt beam="1">  1        2 0.33578408E+00 0.22143022E+04</pdfrwt>
<pdfrwt beam="2">  1       -2 0.86402629E-01 0.22143022E+04</pdfrwt>
<totfact> 0.55960937E+00</totfact>
</mgrwt>
</event>
<event>
 6    1  0.1585031E-006  0.2355927E+04  0.7818608E-02  0.8456191E-01
         -2   -1    0    0    0  501 -0.00000000000E+00  0.00000000000E+00  0.67007541945E+03  0.67007541945E+03  0.00000000000E+00 0. -1.
          2   -1    0    0  501    0  0.00000000000E+00 -0.00000000000E+00 -0.20708084105E+04  0.20708084105E+04  0.00000000000E+00 0.  1.
         23    2    1    2    0    0  0.85896015067E+02 -0.58929484793E+03  0.47867904166E+03  0.76937777317E+03  0.90343730990E+02 0.  0.
         13    1    3    3    0    0 -0.99303066525E+01 -0.15823266495E+03  0.98242658292E+02  0.18651489795E+03  0.00000000000E+00 0.  1.
        -13    1    3    3    0    0  0.95826321720E+02 -0.43106218297E+03  0.38043638337E+03  0.58286287523E+03  0.00000000000E+00 0. -1.
         22    1    1    2    0    0 -0.85896015067E+02  0.58929484793E+03 -0.18794120327E+04  0.19715060568E+04  0.00000000000E+00 0.  1.
<mgrwt>
<rscale>  0 0.23559268E+04</rscale>
<asrwt>0</asrwt>
<pdfrwt beam="1">  1        2 0.31858591E+00 0.23559268E+04</pdfrwt>
<pdfrwt beam="2">  1       -2 0.10308853E+00 0.23559268E+04</pdfrwt>
<totfact> 0.42292008E+00</totfact>
</mgrwt>
</event>
<event>
 6    1  0.1585031E-006  0.6310873E+04  0.7818608E-02  0.7653008E-01
         -2   -1    0    0    0  501 -0.00000000000E+00  0.00000000000E+00  0.56263841668E+04  0.56263841668E+04  0.00000000000E+00 0.  1.
          2   -1    0    0  501    0  0.00000000000E+00 -0.00000000000E+00 -0.17696585707E+04  0.17696585707E+04  0.00000000000E+00 0. -1.
         23    2    1    2    0    0  0.20369943399E+04 -0.22296106522E+04  0.29980462109E+04  0.42563230226E+04  0.86573605362E+02 0.  0.
         13    1    3    3    0    0  0.11698738145E+04 -0.12213111349E+04  0.17007170451E+04  0.23984670307E+04  0.00000000000E+00 0. -1.
        -13    1    3    3    0    0  0.86712052533E+03 -0.10082995174E+04  0.12973291658E+04  0.18578559919E+04  0.00000000000E+00 0.  1.
         22    1    1    2    0    0 -0.20369943399E+04  0.22296106522E+04  0.85867938523E+03  0.31397197149E+04  0.00000000000E+00 0. -1.
<mgrwt>
<rscale>  0 0.63108728E+04</rscale>
<asrwt>0</asrwt>
<pdfrwt beam="1">  1        2 0.27225517E+00 0.63108728E+04</pdfrwt>
<pdfrwt beam="2">  1       -2 0.86559756E+00 0.63108728E+04</pdfrwt>
<totfact> 0.13521463E-04</totfact>
</mgrwt>
</event>
<event>
 6    1  0.1585031E-006  0.4948378E+04  0.7818608E-02  0.7836520E-01
          2   -1    0    0  501    0  0.00000000000E+00  0.00000000000E+00  0.25844767563E+04  0.25844767563E+04  0.00000000000E+00 0. -1.
         -2   -1    0    0    0  501 -0.00000000000E+00 -0.00000000000E+00 -0.23686073865E+04  0.23686073865E+04  0.00000000000E+00 0.  1.
         23    2    1    2    0    0  0.78939973073E+03 -0.32227493623E+03  0.24319171255E+04  0.25786619553E+04  0.90903823612E+02 0.  0.
         13    1    3    3    0    0  0.70269582058E+03 -0.26490724306E+03  0.20655532396E+04  0.21978324434E+04  0.00000000000E+00 0.  1.
        -13    1    3    3    0    0  0.86703910155E+02 -0.57367693162E+02  0.36636388587E+03  0.38082951189E+03  0.00000000000E+00 0. -1.
         22    1    1    2    0    0 -0.78939973073E+03  0.32227493623E+03 -0.22160477556E+04  0.23744221875E+04  0.00000000000E+00 0.  1.
<mgrwt>
<rscale>  0 0.49483778E+04</rscale>
<asrwt>0</asrwt>
<pdfrwt beam="1">  1        2 0.39761181E+00 0.49483778E+04</pdfrwt>
<pdfrwt beam="2">  1       -2 0.36440114E+00 0.49483778E+04</pdfrwt>
<totfact> 0.28645067E-02</totfact>
</mgrwt>
</event>
<event>
 6    1  0.1585031E-006  0.5146967E+03  0.7818608E-02  0.1010012E+00
         -2   -1    0    0    0  501 -0.00000000000E+00  0.00000000000E+00  0.22207342054E+04  0.22207342054E+04  0.00000000000E+00 0.  1.
          2   -1    0    0  501    0  0.00000000000E+00 -0.00000000000E+00 -0.29822645931E+02  0.29822645931E+02  0.00000000000E+00 0. -1.
         23    2    1    2    0    0  0.22067114106E+03 -0.11550110508E+03  0.11986208275E+04  0.12274844421E+04  0.89386294885E+02 0.  0.
         13    1    3    3    0    0  0.10544059418E+03 -0.80674009913E+02  0.80477903353E+03  0.81565636612E+03  0.00000000000E+00 0.  1.
        -13    1    3    3    0    0  0.11523054689E+03 -0.34827095170E+02  0.39384179398E+03  0.41182807600E+03  0.00000000000E+00 0. -1.
         22    1    1    2    0    0 -0.22067114106E+03  0.11550110508E+03  0.99229073195E+03  0.10230724092E+04  0.00000000000E+00 0.  1.
<mgrwt>
<rscale>  0 0.51469669E+03</rscale>
<asrwt>0</asrwt>
<pdfrwt beam="1">  1        2 0.45881011E-02 0.51469669E+03</pdfrwt>
<pdfrwt beam="2">  1       -2 0.34165129E+00 0.51469669E+03</pdfrwt>
<totfact> 0.35246309E+01</totfact>
</mgrwt>
</event>
<event>
 6    1  0.1585031E-006  0.1879470E+04  0.7818608E-02  0.8665143E-01
         -2   -1    0    0    0  501 -0.00000000000E+00  0.00000000000E+00  0.89003010339E+03  0.89003010339E+03  0.00000000000E+00 0.  1.
          2   -1    0    0  501    0  0.00000000000E+00 -0.00000000000E+00 -0.99221571924E+03  0.99221571924E+03  0.00000000000E+00 0. -1.
         23    2    1    2    0    0 -0.37887323083E+03  0.21528040511E+03  0.78004801403E+03  0.89826068272E+03  0.92232163920E+02 0.  0.
         13    1    3    3    0    0 -0.33932962910E+03  0.16509584427E+03  0.61840724687E+03  0.72445065943E+03  0.00000000000E+00 0.  1.
        -13    1    3    3    0    0 -0.39543601736E+02  0.50184560840E+02  0.16164076717E+03  0.17381002329E+03  0.00000000000E+00 0. -1.
         22    1    1    2    0    0  0.37887323083E+03 -0.21528040511E+03 -0.88223362988E+03  0.98398513991E+03  0.00000000000E+00 0. -1.
<mgrwt>
<rscale>  0 0.18794700E+04</rscale>
<asrwt>0</asrwt>
<pdfrwt beam="1">  1        2 0.15264857E+00 0.18794700E+04</pdfrwt>
<pdfrwt beam="2">  1       -2 0.13692771E+00 0.18794700E+04</pdfrwt>
<totfact> 0.90933535E+00</totfact>
</mgrwt>
</event>
<event>
 6    1  0.1585031E-006  0.5025056E+03  0.7818608E-02  0.1013127E+00
          4   -1    0    0  501    0  0.00000000000E+00  0.00000000000E+00  0.48905509563E+03  0.48905509563E+03  0.00000000000E+00 0. -1.
         -4   -1    0    0    0  501 -0.00000000000E+00 -0.00000000000E+00 -0.12908153142E+03  0.12908153142E+03  0.00000000000E+00 0.  1.
         23    2    1    2    0    0 -0.43053364034E+02 -0.20426892873E+03  0.33835005418E+03  0.40826294221E+03  0.92835787396E+02 0.  0.
         11    1    3    3    0    0 -0.35167560809E+02 -0.19295318858E+03  0.24469341790E+03  0.31359617198E+03  0.00000000000E+00 0.  1.
        -11    1    3    3    0    0 -0.78858032251E+01 -0.11315740156E+02  0.93656636279E+02  0.94666770236E+02  0.00000000000E+00 0. -1.
         22    1    1    2    0    0  0.43053364034E+02  0.20426892873E+03  0.21623510038E+02  0.20987368484E+03  0.00000000000E+00 0. -1.
<mgrwt>
<rscale>  0 0.50250564E+03</rscale>
<asrwt>0</asrwt>
<pdfrwt beam="1">  1        4 0.75239245E-01 0.50250564E+03</pdfrwt>
<pdfrwt beam="2">  1       -4 0.19858697E-01 0.50250564E+03</pdfrwt>
<totfact> 0.72730958E+01</totfact>
</mgrwt>
</event>
<event>
 6    1  0.1585031E-006  0.1071245E+04  0.7818608E-02  0.9233681E-01
         -2   -1    0    0    0  501 -0.00000000000E+00  0.00000000000E+00  0.18124659216E+03  0.18124659216E+03  0.00000000000E+00 0.  1.
          2   -1    0    0  501    0  0.00000000000E+00 -0.00000000000E+00 -0.15828783730E+04  0.15828783730E+04  0.00000000000E+00 0. -1.
         23    2    1    2    0    0 -0.60018184698E+02  0.19468913137E+02 -0.15762563169E+04  0.15784506543E+04  0.54233481149E+02 0.  0.
         11    1    3    3    0    0 -0.56504736157E+02  0.14621605514E+02 -0.78321040631E+03  0.78538214718E+03  0.00000000000E+00 0. -1.
        -11    1    3    3    0    0 -0.35134485410E+01  0.48473076230E+01 -0.79304591060E+03  0.79306850715E+03  0.00000000000E+00 0.  1.
         22    1    1    2    0    0  0.60018184698E+02 -0.19468913137E+02  0.17462453612E+03  0.18567431079E+03  0.00000000000E+00 0.  1.
<mgrwt>
<rscale>  0 0.10712447E+04</rscale>
<asrwt>0</asrwt>
<pdfrwt beam="1">  1        2 0.24351976E+00 0.10712447E+04</pdfrwt>
<pdfrwt beam="2">  1       -2 0.27884089E-01 0.10712447E+04</pdfrwt>
<totfact> 0.13311983E+02</totfact>
</mgrwt>
</event>
<event>
 6    1  0.1585031E-006  0.1012132E+04  0.7818608E-02  0.9295338E-01
         -2   -1    0    0    0  501 -0.00000000000E+00  0.00000000000E+00  0.60775801458E+03  0.60775801458E+03  0.00000000000E+00 0.  1.
          2   -1    0    0  501    0  0.00000000000E+00 -0.00000000000E+00 -0.42138953568E+03  0.42138953568E+03  0.00000000000E+00 0. -1.
         23    2    1    2    0    0  0.80636953727E+02 -0.42720116714E+03 -0.16200975423E+03  0.47203845069E+03  0.87005648973E+02 0.  0.
         11    1    3    3    0    0  0.80240078069E+02 -0.19577769535E+03 -0.67898207693E+02  0.22221058196E+03  0.00000000000E+00 0. -1.
        -11    1    3    3    0    0  0.39687565819E+00 -0.23142347179E+03 -0.94111546533E+02  0.24982786873E+03  0.00000000000E+00 0.  1.
         22    1    1    2    0    0 -0.80636953727E+02  0.42720116714E+03  0.34837823313E+03  0.55710909958E+03  0.00000000000E+00 0.  1.
<mgrwt>
<rscale>  0 0.10121321E+04</rscale>
<asrwt>0</asrwt>
<pdfrwt beam="1">  1        2 0.64829159E-01 0.10121321E+04</pdfrwt>
<pdfrwt beam="2">  1       -2 0.93501234E-01 0.10121321E+04</pdfrwt>
<totfact> 0.72376543E+01</totfact>
</mgrwt>
</event>
<event>
 6    1  0.1585031E-006  0.6359130E+03  0.7818608E-02  0.9833578E-01
         -2   -1    0    0    0  501 -0.00000000000E+00  0.00000000000E+00  0.42324689204E+03  0.42324689204E+03  0.00000000000E+00 0. -1.
          2   -1    0    0  501    0  0.00000000000E+00 -0.00000000000E+00 -0.23885897865E+03  0.23885897865E+03  0.00000000000E+00 0.  1.
         23    2    1    2    0    0  0.17109132102E+03  0.19638401057E+03 -0.82452297077E+02  0.28922168269E+03  0.94930925981E+02 0.  0.
         11    1    3    3    0    0  0.14553252355E+03  0.20016771393E+03 -0.88244458113E+02  0.26274305604E+03  0.00000000000E+00 0. -1.
        -11    1    3    3    0    0  0.25558797474E+02 -0.37837033658E+01  0.57921610352E+01  0.26478626644E+02  0.00000000000E+00 0.  1.
         22    1    1    2    0    0 -0.17109132102E+03 -0.19638401057E+03  0.26684021047E+03  0.37288418800E+03  0.00000000000E+00 0. -1.
<mgrwt>
<rscale>  0 0.63591295E+03</rscale>
<asrwt>0</asrwt>
<pdfrwt beam="1">  1        2 0.36747535E-01 0.63591295E+03</pdfrwt>
<pdfrwt beam="2">  1       -2 0.65114906E-01 0.63591295E+03</pdfrwt>
<totfact> 0.31114793E+02</totfact>
</mgrwt>
</event>
<event>
 6    1  0.1585031E-006  0.1233463E+04  0.7818608E-02  0.9084061E-01
         -1   -1    0    0    0  501 -0.00000000000E+00  0.00000000000E+00  0.27838284012E+03  0.27838284012E+03  0.00000000000E+00 0.  1.
          1   -1    0    0  501    0  0.00000000000E+00 -0.00000000000E+00 -0.13663110482E+04  0.13663110482E+04  0.00000000000E+00 0. -1.
         23    2    1    2    0    0  0.16957570524E+03  0.13586384430E+03 -0.13118044448E+04  0.13327075532E+04  0.89797644201E+02 0.  0.
         11    1    3    3    0    0  0.30222772526E+02  0.26293769566E+01 -0.73979738264E+02  0.79958309612E+02  0.00000000000E+00 0. -1.
        -11    1    3    3    0    0  0.13935293271E+03  0.13323446735E+03 -0.12378247065E+04  0.12527492436E+04  0.00000000000E+00 0.  1.
         22    1    1    2    0    0 -0.16957570524E+03 -0.13586384430E+03  0.22387623668E+03  0.31198633519E+03  0.00000000000E+00 0.  1.
<mgrwt>
<rscale>  0 0.12334627E+04</rscale>
<asrwt>0</asrwt>
<pdfrwt beam="1">  1        1 0.21020170E+00 0.12334627E+04</pdfrwt>
<pdfrwt beam="2">  1       -1 0.42828128E-01 0.12334627E+04</pdfrwt>
<totfact> 0.43011017E+01</totfact>
</mgrwt>
</event>
<event>
 6    1  0.1585031E-006  0.1527917E+04  0.7818608E-02  0.8866098E-01
          1   -1    0    0  501    0  0.00000000000E+00  0.00000000000E+00  0.25947873124E+04  0.25947873124E+04  0.00000000000E+00 0. -1.
         -1   -1    0    0    0  501 -0.00000000000E+00 -0.00000000000E+00 -0.22492507219E+03  0.22492507219E+03  0.00000000000E+00 0.  1.
         23    2    1    2    0    0  0.18467812720E+02  0.59352888989E+03  0.31041334819E+03  0.67636282324E+03  0.92155405070E+02 0.  0.
         11    1    3    3    0    0  0.15742937791E+02  0.12286993303E+03  0.26440182964E+02  0.12666469046E+03  0.00000000000E+00 0.  1.
        -11    1    3    3    0    0  0.27248749294E+01  0.47065895686E+03  0.28397316522E+03  0.54969813278E+03  0.00000000000E+00 0. -1.
         22    1    1    2    0    0 -0.18467812720E+02 -0.59352888989E+03  0.20594488920E+04  0.21433495613E+04  0.00000000000E+00 0. -1.
<mgrwt>
<rscale>  0 0.15279172E+04</rscale>
<asrwt>0</asrwt>
<pdfrwt beam="1">  1        1 0.39919803E+00 0.15279172E+04</pdfrwt>
<pdfrwt beam="2">  1       -1 0.34603859E-01 0.15279172E+04</pdfrwt>
<totfact> 0.89206812E+00</totfact>
</mgrwt>
</event>
<event>
 6    1  0.1585031E-006  0.1070887E+04  0.7818608E-02  0.9234041E-01
          2   -1    0    0  501    0  0.00000000000E+00  0.00000000000E+00  0.73568114210E+03  0.73568114210E+03  0.00000000000E+00 0. -1.
         -2   -1    0    0    0  501 -0.00000000000E+00 -0.00000000000E+00 -0.38970647048E+03  0.38970647048E+03  0.00000000000E+00 0.  1.
         23    2    1    2    0    0 -0.44899112006E+02 -0.14215199189E+03  0.71046716073E+03  0.73158830624E+03  0.90745491873E+02 0.  0.
         11    1    3    3    0    0 -0.11925093202E+02 -0.14061631670E+03  0.59400840827E+03  0.61054168201E+03  0.00000000000E+00 0. -1.
        -11    1    3    3    0    0 -0.32974018805E+02 -0.15356751925E+01  0.11645875246E+03  0.12104662423E+03  0.00000000000E+00 0.  1.
         22    1    1    2    0    0  0.44899112006E+02  0.14215199189E+03 -0.36449248911E+03  0.39379930634E+03  0.00000000000E+00 0.  1.
<mgrwt>
<rscale>  0 0.10708869E+04</rscale>
<asrwt>0</asrwt>
<pdfrwt beam="1">  1        2 0.11318171E+00 0.10708869E+04</pdfrwt>
<pdfrwt beam="2">  1       -2 0.59954841E-01 0.10708869E+04</pdfrwt>
<totfact> 0.99235193E+01</totfact>
</mgrwt>
</event>
<event>
 6    1  0.1585031E-006  0.1424374E+04  0.7818608E-02  0.8936362E-01
         -1   -1    0    0    0  501 -0.00000000000E+00  0.00000000000E+00  0.97282123155E+03  0.97282123155E+03  0.00000000000E+00 0.  1.
          1   -1    0    0  501    0  0.00000000000E+00 -0.00000000000E+00 -0.52138093106E+03  0.52138093106E+03  0.00000000000E+00 0. -1.
         23    2    1    2    0    0  0.64395010986E+03 -0.24598666766E+03  0.40121334940E+03  0.80304087082E+03  0.93387921111E+02 0.  0.
         11    1    3    3    0    0  0.48705672368E+03 -0.18632045318E+03  0.34807996870E+03  0.62697625790E+03  0.00000000000E+00 0. -1.
        -11    1    3    3    0    0  0.15689338618E+03 -0.59666214485E+02  0.53133380693E+02  0.17606461292E+03  0.00000000000E+00 0.  1.
         22    1    1    2    0    0 -0.64395010986E+03  0.24598666766E+03  0.50226951098E+02  0.69116129179E+03  0.00000000000E+00 0.  1.
<mgrwt>
<rscale>  0 0.14243742E+04</rscale>
<asrwt>0</asrwt>
<pdfrwt beam="1">  1        1 0.80212451E-01 0.14243742E+04</pdfrwt>
<pdfrwt beam="2">  1       -1 0.14966480E+00 0.14243742E+04</pdfrwt>
<totfact> 0.14285861E+01</totfact>
</mgrwt>
</event>
<event>
 6    1  0.1585031E-006  0.3853287E+04  0.7818608E-02  0.8034815E-01
          2   -1    0    0  501    0  0.00000000000E+00  0.00000000000E+00  0.40519427561E+04  0.40519427561E+04  0.00000000000E+00 0. -1.
         -2   -1    0    0    0  501 -0.00000000000E+00 -0.00000000000E+00 -0.91609277385E+03  0.91609277385E+03  0.00000000000E+00 0.  1.
         23    2    1    2    0    0 -0.18622291452E+04  0.46132843162E+03  0.17818787191E+04  0.26198533623E+04  0.88422616519E+02 0.  0.
         11    1    3    3    0    0 -0.64701748111E+03  0.11715087795E+03  0.61366758920E+03  0.89941306368E+03  0.00000000000E+00 0. -1.
        -11    1    3    3    0    0 -0.12152116641E+04  0.34417755367E+03  0.11682111299E+04  0.17204402986E+04  0.00000000000E+00 0.  1.
         22    1    1    2    0    0  0.18622291452E+04 -0.46132843162E+03  0.13539712631E+04  0.23481821677E+04  0.00000000000E+00 0.  1.
<mgrwt>
<rscale>  0 0.38532872E+04</rscale>
<asrwt>0</asrwt>
<pdfrwt beam="1">  1        2 0.62337580E+00 0.38532872E+04</pdfrwt>
<pdfrwt beam="2">  1       -2 0.14093735E+00 0.38532872E+04</pdfrwt>
<totfact> 0.87104771E-02</totfact>
</mgrwt>
</event>
<event>
 6    1  0.1585031E-006  0.2145755E+04  0.7818608E-02  0.8541352E-01
          2   -1    0    0  501    0  0.00000000000E+00  0.00000000000E+00  0.31913555039E+04  0.31913555039E+04  0.00000000000E+00 0. -1.
         -2   -1    0    0    0  501 -0.00000000000E+00 -0.00000000000E+00 -0.36068243118E+03  0.36068243118E+03  0.00000000000E+00 0.  1.
         23    2    1    2    0    0  0.31013009189E+03  0.96793868235E+03  0.19763583558E+04  0.22242805768E+04  0.91355172125E+02 0.  0.
         11    1    3    3    0    0  0.25725111551E+03  0.71058137125E+03  0.14027741812E+04  0.15933861507E+04  0.00000000000E+00 0. -1.
        -11    1    3    3    0    0  0.52878976378E+02  0.25735731111E+03  0.57358417453E+03  0.63089442619E+03  0.00000000000E+00 0.  1.
         22    1    1    2    0    0 -0.31013009189E+03 -0.96793868235E+03  0.85431471695E+03  0.13277573582E+04  0.00000000000E+00 0.  1.
<mgrwt>
<rscale>  0 0.21457548E+04</rscale>
<asrwt>0</asrwt>
<pdfrwt beam="1">  1        2 0.49097775E+00 0.21457548E+04</pdfrwt>
<pdfrwt beam="2">  1       -2 0.55489607E-01 0.21457548E+04</pdfrwt>
<totfact> 0.36898918E+00</totfact>
</mgrwt>
</event>
<event>
 6    1  0.1585031E-006  0.1665692E+04  0.7818608E-02  0.8781177E-01
         -1   -1    0    0    0  501 -0.00000000000E+00  0.00000000000E+00  0.53475615369E+03  0.53475615369E+03  0.00000000000E+00 0.  1.
          1   -1    0    0  501    0  0.00000000000E+00 -0.00000000000E+00 -0.12971003846E+04  0.12971003846E+04  0.00000000000E+00 0. -1.
         23    2    1    2    0    0  0.61478645116E+03  0.68323638770E+02  0.22662966164E+03  0.66536613529E+03  0.93384100944E+02 0.  0.
         13    1    3    3    0    0  0.22205256672E+03  0.15419432669E+02  0.35497865035E+02  0.22540008810E+03  0.00000000000E+00 0. -1.
        -13    1    3    3    0    0  0.39273388444E+03  0.52904206101E+02  0.19113179660E+03  0.43996604719E+03  0.00000000000E+00 0.  1.
         22    1    1    2    0    0 -0.61478645116E+03 -0.68323638770E+02 -0.98897389254E+03  0.11664904030E+04  0.00000000000E+00 0. -1.
<mgrwt>
<rscale>  0 0.16656919E+04</rscale>
<asrwt>0</asrwt>
<pdfrwt beam="1">  1        1 0.19955391E+00 0.16656919E+04</pdfrwt>
<pdfrwt beam="2">  1       -1 0.82270178E-01 0.16656919E+04</pdfrwt>
<totfact> 0.12744023E+01</totfact>
</mgrwt>
</event>
<event>
 6    1  0.1585031E-006  0.3127287E+04  0.7818608E-02  0.8208289E-01
         -1   -1    0    0    0  501 -0.00000000000E+00  0.00000000000E+00  0.91257540369E+03  0.91257540369E+03  0.00000000000E+00 0.  1.
          1   -1    0    0  501    0  0.00000000000E+00 -0.00000000000E+00 -0.26792100155E+04  0.26792100155E+04  0.00000000000E+00 0. -1.
         23    2    1    2    0    0 -0.70842766298E+03  0.97066307581E+03  0.26269841178E+03  0.12333433315E+04  0.89826262091E+02 0.  0.
         11    1    3    3    0    0 -0.21340012544E+03  0.33280875968E+03  0.50870316771E+02  0.39860892261E+03  0.00000000000E+00 0.  1.
        -11    1    3    3    0    0 -0.49502753755E+03  0.63785431613E+03  0.21182809501E+03  0.83473440888E+03  0.00000000000E+00 0. -1.
         22    1    1    2    0    0  0.70842766298E+03 -0.97066307581E+03 -0.20293330236E+04  0.23584420877E+04  0.00000000000E+00 0. -1.
<mgrwt>
<rscale>  0 0.31272871E+04</rscale>
<asrwt>0</asrwt>
<pdfrwt beam="1">  1        1 0.41218615E+00 0.31272871E+04</pdfrwt>
<pdfrwt beam="2">  1       -1 0.14039622E+00 0.31272871E+04</pdfrwt>
<totfact> 0.35537454E-01</totfact>
</mgrwt>
</event>
<event>
 6    1  0.2503878E-006  0.2956816E+04  0.7818608E-02  0.8256171E-01
          2   -1    0    0  501    0  0.00000000000E+00  0.00000000000E+00  0.27050620566E+04  0.27050620566E+04  0.00000000000E+00 0. -1.
         -2   -1    0    0    0  501 -0.00000000000E+00 -0.00000000000E+00 -0.80799980710E+03  0.80799980710E+03  0.00000000000E+00 0.  1.
         23    2    1    2    0    0 -0.64152837588E+03 -0.57081855697E+03 -0.47843259348E+03  0.98712278465E+03  0.90117497955E+02 0.  0.
         11    1    3    3    0    0 -0.23010233534E+03 -0.21663394422E+03 -0.22535086888E+03  0.38814992544E+03  0.00000000000E+00 0.  1.
        -11    1    3    3    0    0 -0.41142604054E+03 -0.35418461275E+03 -0.25308172460E+03  0.59897285921E+03  0.00000000000E+00 0. -1.
         22    1    1    2    0    0  0.64152837588E+03  0.57081855697E+03  0.23754948430E+04  0.25259390790E+04  0.00000000000E+00 0. -1.
<mgrwt>
<rscale>  0 0.29568156E+04</rscale>
<asrwt>0</asrwt>
<pdfrwt beam="1">  1        2 0.41616339E+00 0.29568156E+04</pdfrwt>
<pdfrwt beam="2">  1       -2 0.12430766E+00 0.29568156E+04</pdfrwt>
<totfact> 0.11010744E+00</totfact>
</mgrwt>
</event>
<event>
 6    1  0.1585031E-006  0.2772842E+04  0.7818608E-02  0.8311750E-01
          2   -1    0    0  501    0  0.00000000000E+00  0.00000000000E+00  0.23596303508E+04  0.23596303508E+04  0.00000000000E+00 0. -1.
         -2   -1    0    0    0  501 -0.00000000000E+00 -0.00000000000E+00 -0.81460337190E+03  0.81460337190E+03  0.00000000000E+00 0.  1.
         23    2    1    2    0    0 -0.13796930832E+04  0.80620083132E+02  0.67088597583E+03  0.15389431996E+04  0.90584642121E+02 0.  0.
         13    1    3    3    0    0 -0.10416636519E+04  0.71541711941E+02  0.54773065883E+03  0.11790632955E+04  0.00000000000E+00 0.  1.
        -13    1    3    3    0    0 -0.33802943130E+03  0.90783711910E+01  0.12315531700E+03  0.35987990407E+03  0.00000000000E+00 0. -1.
         22    1    1    2    0    0  0.13796930832E+04 -0.80620083132E+02  0.87414100305E+03  0.16352905231E+04  0.00000000000E+00 0.  1.
<mgrwt>
<rscale>  0 0.27728417E+04</rscale>
<asrwt>0</asrwt>
<pdfrwt beam="1">  1        2 0.36302005E+00 0.27728417E+04</pdfrwt>
<pdfrwt beam="2">  1       -2 0.12532360E+00 0.27728417E+04</pdfrwt>
<totfact> 0.17415558E+00</totfact>
</mgrwt>
</event>
<event>
 6    1  0.1585031E-006  0.7560832E+03  0.7818608E-02  0.9625855E-01
          1   -1    0    0  501    0  0.00000000000E+00  0.00000000000E+00  0.77368039612E+03  0.77368039612E+03  0.00000000000E+00 0. -1.
         -1   -1    0    0    0  501 -0.00000000000E+00 -0.00000000000E+00 -0.18472155185E+03  0.18472155185E+03  0.00000000000E+00 0.  1.
         23    2    1    2    0    0  0.20862210227E+03  0.57572349748E+02  0.68310266336E+03  0.72239174547E+03  0.91557786240E+02 0.  0.
         13    1    3    3    0    0  0.94586360287E+02 -0.13451814830E+02  0.36024112445E+03  0.37269451112E+03  0.00000000000E+00 0.  1.
        -13    1    3    3    0    0  0.11403574198E+03  0.71024164577E+02  0.32286153891E+03  0.34969723435E+03  0.00000000000E+00 0. -1.
         22    1    1    2    0    0 -0.20862210227E+03 -0.57572349748E+02 -0.94143819087E+02  0.23601020250E+03  0.00000000000E+00 0.  1.
<mgrwt>
<rscale>  0 0.75608318E+03</rscale>
<asrwt>0</asrwt>
<pdfrwt beam="1">  1        1 0.11902775E+00 0.75608318E+03</pdfrwt>
<pdfrwt beam="2">  1       -1 0.28418701E-01 0.75608318E+03</pdfrwt>
<totfact> 0.26443146E+02</totfact>
</mgrwt>
</event>
<event>
 6    1  0.1585031E-006  0.1520473E+04  0.7818608E-02  0.8870952E-01
         -2   -1    0    0    0  501 -0.00000000000E+00  0.00000000000E+00  0.97760515177E+03  0.97760515177E+03  0.00000000000E+00 0.  1.
          2   -1    0    0  501    0  0.00000000000E+00 -0.00000000000E+00 -0.59119916015E+03  0.59119916015E+03  0.00000000000E+00 0. -1.
         23    2    1    2    0    0  0.45286498559E+03  0.63632571039E+02  0.81660400879E+03  0.94094594155E+03  0.96960602677E+02 0.  0.
         13    1    3    3    0    0  0.24242192073E+03 -0.12575126571E+01  0.36008804553E+03  0.43408912624E+03  0.00000000000E+00 0. -1.
        -13    1    3    3    0    0  0.21044306486E+03  0.64890083697E+02  0.45651596326E+03  0.50685681531E+03  0.00000000000E+00 0.  1.
         22    1    1    2    0    0 -0.45286498559E+03 -0.63632571039E+02 -0.43019801717E+03  0.62785837037E+03  0.00000000000E+00 0. -1.
<mgrwt>
<rscale>  0 0.15204727E+04</rscale>
<asrwt>0</asrwt>
<pdfrwt beam="1">  1        2 0.90953717E-01 0.15204727E+04</pdfrwt>
<pdfrwt beam="2">  1       -2 0.15040079E+00 0.15204727E+04</pdfrwt>
<totfact> 0.14480338E+01</totfact>
</mgrwt>
</event>
<event>
 6    1  0.1585031E-006  0.2410336E+04  0.7818608E-02  0.8435644E-01
         -2   -1    0    0    0  501 -0.00000000000E+00  0.00000000000E+00  0.53946891857E+03  0.53946891857E+03  0.00000000000E+00 0. -1.
          2   -1    0    0  501    0  0.00000000000E+00 -0.00000000000E+00 -0.26923322087E+04  0.26923322087E+04  0.00000000000E+00 0.  1.
         23    2    1    2    0    0  0.83751748386E+02  0.39143508988E+03 -0.25996929150E+04  0.26318907184E+04  0.90607483799E+02 0.  0.
         13    1    3    3    0    0  0.87165004548E+02  0.19452099771E+03 -0.14030614499E+04  0.14191608749E+04  0.00000000000E+00 0.  1.
        -13    1    3    3    0    0 -0.34132561622E+01  0.19691409217E+03 -0.11966314651E+04  0.12127298435E+04  0.00000000000E+00 0. -1.
         22    1    1    2    0    0 -0.83751748386E+02 -0.39143508988E+03  0.44682962493E+03  0.59991040886E+03  0.00000000000E+00 0. -1.
<mgrwt>
<rscale>  0 0.24103357E+04</rscale>
<asrwt>0</asrwt>
<pdfrwt beam="1">  1        2 0.41420496E+00 0.24103357E+04</pdfrwt>
<pdfrwt beam="2">  1       -2 0.82995218E-01 0.24103357E+04</pdfrwt>
<totfact> 0.30672019E+00</totfact>
</mgrwt>
</event>
<event>
 6    1  0.1585031E-006  0.3026739E+04  0.7818608E-02  0.8236136E-01
         -1   -1    0    0    0  501 -0.00000000000E+00  0.00000000000E+00  0.12388191813E+04  0.12388191813E+04  0.00000000000E+00 0.  1.
          1   -1    0    0  501    0  0.00000000000E+00 -0.00000000000E+00 -0.18487663827E+04  0.18487663827E+04  0.00000000000E+00 0. -1.
         23    2    1    2    0    0 -0.13431851253E+04  0.66752693686E+03 -0.50054333212E+03  0.15836880613E+04  0.88236930281E+02 0.  0.
         13    1    3    3    0    0 -0.11169441193E+04  0.58957608921E+03 -0.41097115218E+03  0.13281797388E+04  0.00000000000E+00 0.  1.
        -13    1    3    3    0    0 -0.22624100598E+03  0.77950847645E+02 -0.89572179941E+02  0.25550832247E+03  0.00000000000E+00 0. -1.
         22    1    1    2    0    0  0.13431851253E+04 -0.66752693686E+03 -0.10940386926E+03  0.15038975028E+04  0.00000000000E+00 0.  1.
<mgrwt>
<rscale>  0 0.30267390E+04</rscale>
<asrwt>0</asrwt>
<pdfrwt beam="1">  1        1 0.28442560E+00 0.30267390E+04</pdfrwt>
<pdfrwt beam="2">  1       -1 0.19058757E+00 0.30267390E+04</pdfrwt>
<totfact> 0.56101539E-01</totfact>
</mgrwt>
</event>
<event>
 6    1  0.1585031E-006  0.1725605E+04  0.7818608E-02  0.8746894E-01
          1   -1    0    0  501    0  0.00000000000E+00  0.00000000000E+00  0.18606220062E+04  0.18606220062E+04  0.00000000000E+00 0. -1.
         -1   -1    0    0    0  501 -0.00000000000E+00 -0.00000000000E+00 -0.40009644936E+03  0.40009644936E+03  0.00000000000E+00 0.  1.
         23    2    1    2    0    0 -0.57722829190E+03 -0.41730354122E+03  0.13648182712E+04  0.15420428465E+04  0.88501302400E+02 0.  0.
         13    1    3    3    0    0 -0.32825610629E+03 -0.20439826596E+03  0.81377989341E+03  0.90098192954E+03  0.00000000000E+00 0. -1.
        -13    1    3    3    0    0 -0.24897218562E+03 -0.21290527526E+03  0.55103837783E+03  0.64106091698E+03  0.00000000000E+00 0.  1.
         22    1    1    2    0    0  0.57722829190E+03  0.41730354122E+03  0.95707285589E+02  0.71867560902E+03  0.00000000000E+00 0.  1.
<mgrwt>
<rscale>  0 0.17256051E+04</rscale>
<asrwt>0</asrwt>
<pdfrwt beam="1">  1        1 0.28624953E+00 0.17256051E+04</pdfrwt>
<pdfrwt beam="2">  1       -1 0.61553301E-01 0.17256051E+04</pdfrwt>
<totfact> 0.94194409E+00</totfact>
</mgrwt>
</event>
<event>
 6    1  0.1585031E-006  0.7005235E+03  0.7818608E-02  0.9716337E-01
          1   -1    0    0  501    0  0.00000000000E+00  0.00000000000E+00  0.59924490606E+02  0.59924490606E+02  0.00000000000E+00 0. -1.
         -1   -1    0    0    0  501 -0.00000000000E+00 -0.00000000000E+00 -0.20472980649E+04  0.20472980649E+04  0.00000000000E+00 0.  1.
         23    2    1    2    0    0 -0.11083817952E+03  0.30826328130E+03 -0.13294608331E+04  0.13722664155E+04  0.91310765324E+02 0.  0.
         11    1    3    3    0    0  0.66037701174E+01  0.10580569220E+03 -0.41810169577E+03  0.43133221801E+03  0.00000000000E+00 0. -1.
        -11    1    3    3    0    0 -0.11744194964E+03  0.20245758909E+03 -0.91135913728E+03  0.94093419750E+03  0.00000000000E+00 0.  1.
         22    1    1    2    0    0  0.11083817952E+03 -0.30826328130E+03 -0.65791274122E+03  0.73495613998E+03  0.00000000000E+00 0. -1.
<mgrwt>
<rscale>  0 0.70052350E+03</rscale>
<asrwt>0</asrwt>
<pdfrwt beam="1">  1        1 0.92191522E-02 0.70052350E+03</pdfrwt>
<pdfrwt beam="2">  1       -1 0.31496894E+00 0.70052350E+03</pdfrwt>
<totfact> 0.20826645E+01</totfact>
</mgrwt>
</event>
<event>
 6    1  0.1585031E-006  0.9200754E+03  0.7818608E-02  0.9400828E-01
         -2   -1    0    0    0  501 -0.00000000000E+00  0.00000000000E+00  0.56581355236E+03  0.56581355236E+03  0.00000000000E+00 0. -1.
          2   -1    0    0  501    0  0.00000000000E+00 -0.00000000000E+00 -0.37403605619E+03  0.37403605619E+03  0.00000000000E+00 0.  1.
         23    2    1    2    0    0  0.41672853602E+02 -0.34548314216E+03  0.39712142579E+03  0.53579347671E+03  0.90961500751E+02 0.  0.
         11    1    3    3    0    0  0.52979149603E+01 -0.26796906890E+03  0.25545020834E+03  0.37025707114E+03  0.00000000000E+00 0.  1.
        -11    1    3    3    0    0  0.36374938641E+02 -0.77514073263E+02  0.14167121745E+03  0.16553640557E+03  0.00000000000E+00 0. -1.
         22    1    1    2    0    0 -0.41672853602E+02  0.34548314216E+03 -0.20534392962E+03  0.40405613184E+03  0.00000000000E+00 0.  1.
<mgrwt>
<rscale>  0 0.92007537E+03</rscale>
<asrwt>0</asrwt>
<pdfrwt beam="1">  1        2 0.57544009E-01 0.92007537E+03</pdfrwt>
<pdfrwt beam="2">  1       -2 0.87048239E-01 0.92007537E+03</pdfrwt>
<totfact> 0.98150545E+01</totfact>
</mgrwt>
</event>
<event>
 6    1  0.1585031E-006  0.6006450E+04  0.7818608E-02  0.7689603E-01
         -1   -1    0    0    0  501 -0.00000000000E+00  0.00000000000E+00  0.33267270423E+04  0.33267270423E+04  0.00000000000E+00 0.  1.
          1   -1    0    0  501    0  0.00000000000E+00 -0.00000000000E+00 -0.27111810575E+04  0.27111810575E+04  0.00000000000E+00 0. -1.
         23    2    1    2    0    0 -0.40252971181E+03 -0.76276616468E+03  0.31989090193E+04  0.33143796975E+04  0.90837626364E+02 0.  0.
         11    1    3    3    0    0 -0.29006347250E+03 -0.47048050779E+03  0.21292666532E+04  0.21998329952E+04  0.00000000000E+00 0.  1.
        -11    1    3    3    0    0 -0.11246623931E+03 -0.29228565689E+03  0.10696423661E+04  0.11145467022E+04  0.00000000000E+00 0. -1.
         22    1    1    2    0    0  0.40252971181E+03  0.76276616468E+03 -0.25833630344E+04  0.27235284023E+04  0.00000000000E+00 0. -1.
<mgrwt>
<rscale>  0 0.60064496E+04</rscale>
<asrwt>0</asrwt>
<pdfrwt beam="1">  1        1 0.41710478E+00 0.60064496E+04</pdfrwt>
<pdfrwt beam="2">  1       -1 0.51180416E+00 0.60064496E+04</pdfrwt>
<totfact> 0.81617964E-04</totfact>
</mgrwt>
</event>
<event>
 6    1  0.1585031E-006  0.4940103E+04  0.7818608E-02  0.7837814E-01
          2   -1    0    0  501    0  0.00000000000E+00  0.00000000000E+00  0.29233786748E+04  0.29233786748E+04  0.00000000000E+00 0. -1.
         -2   -1    0    0    0  501 -0.00000000000E+00 -0.00000000000E+00 -0.20870216643E+04  0.20870216643E+04  0.00000000000E+00 0.  1.
         23    2    1    2    0    0  0.39574241375E+03  0.23925976464E+04 -0.52832468024E+02  0.24274188284E+04  0.91844124343E+02 0.  0.
         13    1    3    3    0    0  0.31298530405E+03  0.20827102424E+04 -0.45920853248E+02  0.21065968953E+04  0.00000000000E+00 0. -1.
        -13    1    3    3    0    0  0.82757109698E+02  0.30988740400E+03 -0.69116147759E+01  0.32082193314E+03  0.00000000000E+00 0.  1.
         22    1    1    2    0    0 -0.39574241375E+03 -0.23925976464E+04  0.88918947858E+03  0.25829815107E+04  0.00000000000E+00 0.  1.
<mgrwt>
<rscale>  0 0.49401031E+04</rscale>
<asrwt>0</asrwt>
<pdfrwt beam="1">  1        2 0.44975056E+00 0.49401031E+04</pdfrwt>
<pdfrwt beam="2">  1       -2 0.32108026E+00 0.49401031E+04</pdfrwt>
<totfact> 0.33507332E-02</totfact>
</mgrwt>
</event>
<event>
 6    1  0.1585031E-006  0.4086449E+04  0.7818608E-02  0.7987331E-01
         -2   -1    0    0    0  501 -0.00000000000E+00  0.00000000000E+00  0.16069626209E+04  0.16069626209E+04  0.00000000000E+00 0.  1.
          2   -1    0    0  501    0  0.00000000000E+00 -0.00000000000E+00 -0.25979241556E+04  0.25979241556E+04  0.00000000000E+00 0. -1.
         23    2    1    2    0    0  0.15698614977E+04 -0.12991511757E+04 -0.37233150574E+03  0.20753417517E+04  0.12709735167E+03 0.  0.
         13    1    3    3    0    0  0.69433485322E+03 -0.54255578947E+03 -0.21992147623E+03  0.90820324201E+03  0.00000000000E+00 0.  1.
        -13    1    3    3    0    0  0.87552664451E+03 -0.75659538627E+03 -0.15241002951E+03  0.11671385097E+04  0.00000000000E+00 0. -1.
         22    1    1    2    0    0 -0.15698614977E+04  0.12991511757E+04 -0.61863002894E+03  0.21295450247E+04  0.00000000000E+00 0. -1.
<mgrwt>
<rscale>  0 0.40864493E+04</rscale>
<asrwt>0</asrwt>
<pdfrwt beam="1">  1        2 0.39968064E+00 0.40864493E+04</pdfrwt>
<pdfrwt beam="2">  1       -2 0.24722502E+00 0.40864493E+04</pdfrwt>
<totfact> 0.15979653E-01</totfact>
</mgrwt>
</event>
<event>
 6    1  0.2896440E-006  0.3536061E+04  0.7818608E-02  0.8105297E-01
          1   -1    0    0  501    0  0.00000000000E+00  0.00000000000E+00  0.27391638597E+04  0.27391638597E+04  0.00000000000E+00 0. -1.
         -1   -1    0    0    0  501 -0.00000000000E+00 -0.00000000000E+00 -0.11411994031E+04  0.11411994031E+04  0.00000000000E+00 0.  1.
         23    2    1    2    0    0 -0.52358847382E+03 -0.25128162902E+03 -0.10318341789E+04  0.11872000278E+04  0.86456846477E+02 0.  0.
         11    1    3    3    0    0 -0.42236391011E+03 -0.16262975442E+03 -0.79896172783E+03  0.91824808855E+03  0.00000000000E+00 0. -1.
        -11    1    3    3    0    0 -0.10122456370E+03 -0.88651874606E+02 -0.23287245107E+03  0.26895193927E+03  0.00000000000E+00 0.  1.
         22    1    1    2    0    0  0.52358847382E+03  0.25128162902E+03  0.26297986355E+04  0.26931632350E+04  0.00000000000E+00 0. -1.
<mgrwt>
<rscale>  0 0.35360612E+04</rscale>
<asrwt>0</asrwt>
<pdfrwt beam="1">  1        1 0.42140982E+00 0.35360612E+04</pdfrwt>
<pdfrwt beam="2">  1       -1 0.17556914E+00 0.35360612E+04</pdfrwt>
<totfact> 0.16771597E-01</totfact>
</mgrwt>
</event>
<event>
 6    1  0.1585031E-006  0.1187199E+04  0.7818608E-02  0.9124135E-01
          1   -1    0    0  501    0  0.00000000000E+00  0.00000000000E+00  0.24496780283E+04  0.24496780283E+04  0.00000000000E+00 0. -1.
         -1   -1    0    0    0  501 -0.00000000000E+00 -0.00000000000E+00 -0.14383957281E+03  0.14383957281E+03  0.00000000000E+00 0.  1.
         23    2    1    2    0    0  0.24241092293E+03 -0.52534724231E+03  0.14147089698E+04  0.15310372292E+04  0.88998579937E+02 0.  0.
         11    1    3    3    0    0  0.39547813523E+02 -0.15965213164E+03  0.46851839963E+03  0.49655042391E+03  0.00000000000E+00 0. -1.
        -11    1    3    3    0    0  0.20286310941E+03 -0.36569511067E+03  0.94619057020E+03  0.10344868053E+04  0.00000000000E+00 0.  1.
         22    1    1    2    0    0 -0.24241092293E+03  0.52534724231E+03  0.89112948568E+03  0.10624803720E+04  0.00000000000E+00 0.  1.
<mgrwt>
<rscale>  0 0.11871995E+04</rscale>
<asrwt>0</asrwt>
<pdfrwt beam="1">  1        1 0.37687351E+00 0.11871995E+04</pdfrwt>
<pdfrwt beam="2">  1       -1 0.22129167E-01 0.11871995E+04</pdfrwt>
<totfact> 0.25235213E+01</totfact>
</mgrwt>
</event>
<event>
 6    1  0.1585031E-006  0.1269936E+04  0.7818608E-02  0.9053752E-01
          1   -1    0    0  501    0  0.00000000000E+00  0.00000000000E+00  0.30496133891E+04  0.30496133891E+04  0.00000000000E+00 0. -1.
         -1   -1    0    0    0  501 -0.00000000000E+00 -0.00000000000E+00 -0.13220833217E+03  0.13220833217E+03  0.00000000000E+00 0.  1.
         23    2    1    2    0    0 -0.74210135489E+02  0.99843715484E+02  0.30178804815E+04  0.30219116758E+04  0.94189509786E+02 0.  0.
         13    1    3    3    0    0 -0.82195584828E+02  0.11339688103E+03  0.27612089541E+04  0.27647585528E+04  0.00000000000E+00 0. -1.
        -13    1    3    3    0    0  0.79854493387E+01 -0.13553165549E+02  0.25667152736E+03  0.25715312297E+03  0.00000000000E+00 0.  1.
         22    1    1    2    0    0  0.74210135489E+02 -0.99843715484E+02 -0.10047542454E+03  0.15991004555E+03  0.00000000000E+00 0.  1.
<mgrwt>
<rscale>  0 0.12699359E+04</rscale>
<asrwt>0</asrwt>
<pdfrwt beam="1">  1        1 0.46917124E+00 0.12699359E+04</pdfrwt>
<pdfrwt beam="2">  1       -1 0.20339746E-01 0.12699359E+04</pdfrwt>
<totfact> 0.10889858E+01</totfact>
</mgrwt>
</event>
<event>
 6    1  0.1585031E-006  0.9436493E+03  0.7818608E-02  0.9372605E-01
         -1   -1    0    0    0  501 -0.00000000000E+00  0.00000000000E+00  0.11470082524E+03  0.11470082524E+03  0.00000000000E+00 0.  1.
          1   -1    0    0  501    0  0.00000000000E+00 -0.00000000000E+00 -0.19408620469E+04  0.19408620469E+04  0.00000000000E+00 0. -1.
         23    2    1    2    0    0  0.22108042677E+03 -0.25032056797E+03 -0.20937760330E+03  0.40464609337E+03  0.91446915040E+02 0.  0.
         11    1    3    3    0    0  0.38849858067E+02 -0.50020406670E+02 -0.16511603340E+01  0.63356758801E+02  0.00000000000E+00 0. -1.
        -11    1    3    3    0    0  0.18223056870E+03 -0.20030016130E+03 -0.20772644297E+03  0.34128933457E+03  0.00000000000E+00 0.  1.
         22    1    1    2    0    0 -0.22108042677E+03  0.25032056797E+03 -0.16167836184E+04  0.16509167788E+04  0.00000000000E+00 0. -1.
<mgrwt>
<rscale>  0 0.94364925E+03</rscale>
<asrwt>0</asrwt>
<pdfrwt beam="1">  1        1 0.29859415E+00 0.94364925E+03</pdfrwt>
<pdfrwt beam="2">  1       -1 0.17646281E-01 0.94364925E+03</pdfrwt>
<totfact> 0.83286833E+01</totfact>
</mgrwt>
</event>
<event>
 6    1  0.1585031E-006  0.5368483E+04  0.7818608E-02  0.7774050E-01
         -2   -1    0    0    0  501 -0.00000000000E+00  0.00000000000E+00  0.38377064796E+04  0.38377064796E+04  0.00000000000E+00 0.  1.
          2   -1    0    0  501    0  0.00000000000E+00 -0.00000000000E+00 -0.18774631397E+04  0.18774631397E+04  0.00000000000E+00 0. -1.
         23    2    1    2    0    0  0.14185643255E+04  0.20410099383E+04  0.20572518082E+04  0.32277096786E+04  0.88195539861E+02 0.  0.
         11    1    3    3    0    0  0.97052453672E+03  0.14340490106E+04  0.14772024696E+04  0.22760803100E+04  0.00000000000E+00 0.  1.
        -11    1    3    3    0    0  0.44803978876E+03  0.60696092768E+03  0.58004933865E+03  0.95162936866E+03  0.00000000000E+00 0. -1.
         22    1    1    2    0    0 -0.14185643255E+04 -0.20410099383E+04 -0.97008468294E+02  0.24874599407E+04  0.00000000000E+00 0. -1.
<mgrwt>
<rscale>  0 0.53684830E+04</rscale>
<asrwt>0</asrwt>
<pdfrwt beam="1">  1        2 0.28884048E+00 0.53684830E+04</pdfrwt>
<pdfrwt beam="2">  1       -2 0.59041638E+00 0.53684830E+04</pdfrwt>
<totfact> 0.31115989E-03</totfact>
</mgrwt>
</event>
<event>
 6    1  0.1585031E-006  0.7261209E+03  0.7818608E-02  0.9673576E-01
         -2   -1    0    0    0  501 -0.00000000000E+00  0.00000000000E+00  0.71843987156E+02  0.71843987156E+02  0.00000000000E+00 0.  1.
          2   -1    0    0  501    0  0.00000000000E+00 -0.00000000000E+00 -0.18347099096E+04  0.18347099096E+04  0.00000000000E+00 0. -1.
         23    2    1    2    0    0 -0.16164757231E+03 -0.23918634555E+03 -0.34397272965E+03  0.45859052080E+03  0.92994524031E+02 0.  0.
         11    1    3    3    0    0 -0.20423910135E+01 -0.63054876630E+02 -0.97909548061E+02  0.11647475447E+03  0.00000000000E+00 0.  1.
        -11    1    3    3    0    0 -0.15960518130E+03 -0.17613146892E+03 -0.24606318159E+03  0.34211576633E+03  0.00000000000E+00 0. -1.
         22    1    1    2    0    0  0.16164757231E+03  0.23918634555E+03 -0.14188931928E+04  0.14479633759E+04  0.00000000000E+00 0. -1.
<mgrwt>
<rscale>  0 0.72612086E+03</rscale>
<asrwt>0</asrwt>
<pdfrwt beam="1">  1        2 0.28226305E+00 0.72612086E+03</pdfrwt>
<pdfrwt beam="2">  1       -2 0.11052922E-01 0.72612086E+03</pdfrwt>
<totfact> 0.49118139E+02</totfact>
</mgrwt>
</event>
<event>
 6    1  0.1585031E-006  0.1435076E+04  0.7818608E-02  0.8928813E-01
         -1   -1    0    0    0  501 -0.00000000000E+00  0.00000000000E+00  0.53593859186E+03  0.53593859186E+03  0.00000000000E+00 0.  1.
          1   -1    0    0  501    0  0.00000000000E+00 -0.00000000000E+00 -0.96067085537E+03  0.96067085537E+03  0.00000000000E+00 0. -1.
         23    2    1    2    0    0 -0.60577534106E+03 -0.36882020627E+03 -0.12234808305E+03  0.72561768270E+03  0.92519509464E+02 0.  0.
         11    1    3    3    0    0 -0.40622457460E+03 -0.20328994712E+03 -0.53712098212E+02  0.45741687453E+03  0.00000000000E+00 0. -1.
        -11    1    3    3    0    0 -0.19955076646E+03 -0.16553025915E+03 -0.68635984837E+02  0.26820080817E+03  0.00000000000E+00 0.  1.
         22    1    1    2    0    0  0.60577534106E+03  0.36882020627E+03 -0.30238418046E+03  0.77099176453E+03  0.00000000000E+00 0. -1.
<mgrwt>
<rscale>  0 0.14350757E+04</rscale>
<asrwt>0</asrwt>
<pdfrwt beam="1">  1        1 0.14779551E+00 0.14350757E+04</pdfrwt>
<pdfrwt beam="2">  1       -1 0.82452092E-01 0.14350757E+04</pdfrwt>
<totfact> 0.23114544E+01</totfact>
</mgrwt>
</event>
<event>
 6    1  0.1585031E-006  0.2944480E+04  0.7818608E-02  0.8259765E-01
         -2   -1    0    0    0  501 -0.00000000000E+00  0.00000000000E+00  0.11043135957E+04  0.11043135957E+04  0.00000000000E+00 0.  1.
          2   -1    0    0  501    0  0.00000000000E+00 -0.00000000000E+00 -0.19627496748E+04  0.19627496748E+04  0.00000000000E+00 0. -1.
         23    2    1    2    0    0  0.78609309428E+03  0.11390953528E+04  0.88972447334E+02  0.13898442950E+04  0.90942247622E+02 0.  0.
         11    1    3    3    0    0  0.51675091802E+03  0.81032172660E+03  0.38449015152E+02  0.96183737640E+03  0.00000000000E+00 0.  1.
        -11    1    3    3    0    0  0.26934217625E+03  0.32877362620E+03  0.50523432182E+02  0.42800691863E+03  0.00000000000E+00 0. -1.
         22    1    1    2    0    0 -0.78609309428E+03 -0.11390953528E+04 -0.94740852648E+03  0.16772189755E+04  0.00000000000E+00 0. -1.
<mgrwt>
<rscale>  0 0.29444804E+04</rscale>
<asrwt>0</asrwt>
<pdfrwt beam="1">  1        2 0.30196149E+00 0.29444804E+04</pdfrwt>
<pdfrwt beam="2">  1       -2 0.16989440E+00 0.29444804E+04</pdfrwt>
<totfact> 0.12867130E+00</totfact>
</mgrwt>
</event>
<event>
 6    1  0.1585031E-006  0.2143804E+04  0.7818608E-02  0.8542189E-01
         -3   -1    0    0    0  501 -0.00000000000E+00  0.00000000000E+00  0.11517506129E+04  0.11517506129E+04  0.00000000000E+00 0. -1.
          3   -1    0    0  501    0  0.00000000000E+00 -0.00000000000E+00 -0.99758911672E+03  0.99758911672E+03  0.00000000000E+00 0.  1.
         23    2    1    2    0    0 -0.22086754019E+03  0.70774865871E+02 -0.97000151514E+03  0.10015008786E+04  0.91156560320E+02 0.  0.
         13    1    3    3    0    0 -0.10252775281E+03  0.41214407855E+02 -0.28400970067E+03  0.30474920440E+03  0.00000000000E+00 0. -1.
        -13    1    3    3    0    0 -0.11833978738E+03  0.29560458016E+02 -0.68599181447E+03  0.69675167418E+03  0.00000000000E+00 0.  1.
         22    1    1    2    0    0  0.22086754019E+03 -0.70774865871E+02  0.11241630113E+04  0.11478388511E+04  0.00000000000E+00 0. -1.
<mgrwt>
<rscale>  0 0.21438040E+04</rscale>
<asrwt>0</asrwt>
<pdfrwt beam="1">  1        3 0.15347525E+00 0.21438040E+04</pdfrwt>
<pdfrwt beam="2">  1       -3 0.17719240E+00 0.21438040E+04</pdfrwt>
<totfact> 0.15088830E-01</totfact>
</mgrwt>
</event>
<event>
 6    1  0.1585031E-006  0.1124360E+04  0.7818608E-02  0.9181769E-01
          2   -1    0    0  501    0  0.00000000000E+00  0.00000000000E+00  0.27767407803E+03  0.27767407803E+03  0.00000000000E+00 0.  1.
         -2   -1    0    0    0  501 -0.00000000000E+00 -0.00000000000E+00 -0.11381915709E+04  0.11381915709E+04  0.00000000000E+00 0. -1.
         23    2    1    2    0    0  0.47238969660E+03 -0.18414135967E+02 -0.59396968641E+02  0.48565857510E+03  0.94048635448E+02 0.  0.
         13    1    3    3    0    0  0.26601314722E+03  0.20927845213E+02  0.17753941030E+01  0.26684100364E+03  0.00000000000E+00 0. -1.
        -13    1    3    3    0    0  0.20637654937E+03 -0.39341981181E+02 -0.61172362744E+02  0.21881757146E+03  0.00000000000E+00 0.  1.
         22    1    1    2    0    0 -0.47238969660E+03  0.18414135967E+02 -0.80112052425E+03  0.93020707384E+03  0.00000000000E+00 0. -1.
<mgrwt>
<rscale>  0 0.11243599E+04</rscale>
<asrwt>0</asrwt>
<pdfrwt beam="1">  1        2 0.42719090E-01 0.11243599E+04</pdfrwt>
<pdfrwt beam="2">  1       -2 0.17510639E+00 0.11243599E+04</pdfrwt>
<totfact> 0.23250471E+01</totfact>
</mgrwt>
</event>
<event>
 6    1  0.1585031E-006  0.4314204E+04  0.7818608E-02  0.7943997E-01
         -2   -1    0    0    0  501 -0.00000000000E+00  0.00000000000E+00  0.14665155811E+04  0.14665155811E+04  0.00000000000E+00 0.  1.
          2   -1    0    0  501    0  0.00000000000E+00 -0.00000000000E+00 -0.31728869697E+04  0.31728869697E+04  0.00000000000E+00 0. -1.
         23    2    1    2    0    0  0.73356067605E+03  0.15883175988E+04  0.50161113220E+03  0.18223028238E+04  0.91158068733E+02 0.  0.
         11    1    3    3    0    0  0.62818812039E+02  0.16300826210E+03  0.76446896725E+02  0.19068829193E+03  0.00000000000E+00 0.  1.
        -11    1    3    3    0    0  0.67074186401E+03  0.14253093367E+04  0.42516423548E+03  0.16316145318E+04  0.00000000000E+00 0. -1.
         22    1    1    2    0    0 -0.73356067605E+03 -0.15883175988E+04 -0.22079825208E+04  0.28170997270E+04  0.00000000000E+00 0. -1.
<mgrwt>
<rscale>  0 0.43142036E+04</rscale>
<asrwt>0</asrwt>
<pdfrwt beam="1">  1        2 0.48813645E+00 0.43142036E+04</pdfrwt>
<pdfrwt beam="2">  1       -2 0.22561779E+00 0.43142036E+04</pdfrwt>
<totfact> 0.94531715E-02</totfact>
</mgrwt>
</event>
<event>
 6    1  0.1585031E-006  0.4246820E+04  0.7818608E-02  0.7956525E-01
         -2   -1    0    0    0  501 -0.00000000000E+00  0.00000000000E+00  0.17586267540E+04  0.17586267540E+04  0.00000000000E+00 0.  1.
          2   -1    0    0  501    0  0.00000000000E+00 -0.00000000000E+00 -0.25638584329E+04  0.25638584329E+04  0.00000000000E+00 0. -1.
         23    2    1    2    0    0 -0.15666520883E+04  0.23192646446E+03  0.10353014245E+04  0.18943684772E+04  0.92705109014E+02 0.  0.
         13    1    3    3    0    0 -0.34290449928E+03  0.51917205012E+02  0.27350425218E+03  0.44168254184E+03  0.00000000000E+00 0. -1.
        -13    1    3    3    0    0 -0.12237475890E+04  0.18000925944E+03  0.76179717232E+03  0.14526859354E+04  0.00000000000E+00 0.  1.
         22    1    1    2    0    0  0.15666520883E+04 -0.23192646446E+03 -0.18405331034E+04  0.24281167096E+04  0.00000000000E+00 0.  1.
<mgrwt>
<rscale>  0 0.42468200E+04</rscale>
<asrwt>0</asrwt>
<pdfrwt beam="1">  1        2 0.39443976E+00 0.42468200E+04</pdfrwt>
<pdfrwt beam="2">  1       -2 0.27055796E+00 0.42468200E+04</pdfrwt>
<totfact> 0.11882902E-01</totfact>
</mgrwt>
</event>
<event>
 6    1  0.1585031E-006  0.2064612E+04  0.7818608E-02  0.8576994E-01
          2   -1    0    0  501    0  0.00000000000E+00  0.00000000000E+00  0.11956085879E+04  0.11956085879E+04  0.00000000000E+00 0. -1.
         -2   -1    0    0    0  501 -0.00000000000E+00 -0.00000000000E+00 -0.89130774765E+03  0.89130774765E+03  0.00000000000E+00 0.  1.
         23    2    1    2    0    0  0.11804248960E+03  0.10121190803E+04 -0.13948052981E+01  0.10230700638E+04  0.91385709543E+02 0.  0.
         13    1    3    3    0    0  0.11748508468E+03  0.62941999885E+03 -0.70191281985E+01  0.64032924986E+03  0.00000000000E+00 0. -1.
        -13    1    3    3    0    0  0.55740491367E+00  0.38269908148E+03  0.56243229004E+01  0.38274081396E+03  0.00000000000E+00 0.  1.
         22    1    1    2    0    0 -0.11804248960E+03 -0.10121190803E+04  0.30569564550E+03  0.10638462717E+04  0.00000000000E+00 0. -1.
<mgrwt>
<rscale>  0 0.20646115E+04</rscale>
<asrwt>0</asrwt>
<pdfrwt beam="1">  1        2 0.18393978E+00 0.20646115E+04</pdfrwt>
<pdfrwt beam="2">  1       -2 0.13712427E+00 0.20646115E+04</pdfrwt>
<totfact> 0.66759333E+00</totfact>
</mgrwt>
</event>
<event>
 6    1  0.1585031E-006  0.1681894E+04  0.7818608E-02  0.8771759E-01
          2   -1    0    0  501    0  0.00000000000E+00  0.00000000000E+00  0.20998225042E+04  0.20998225042E+04  0.00000000000E+00 0.  1.
         -2   -1    0    0    0  501 -0.00000000000E+00 -0.00000000000E+00 -0.33678660356E+03  0.33678660356E+03  0.00000000000E+00 0. -1.
         23    2    1    2    0    0 -0.83311632195E+03 -0.48699385714E+02  0.10038019691E+04  0.13083845739E+04  0.88302683506E+02 0.  0.
         13    1    3    3    0    0 -0.24365074231E+03 -0.50206744274E+02  0.26978606798E+03  0.36697537231E+03  0.00000000000E+00 0. -1.
        -13    1    3    3    0    0 -0.58946557964E+03  0.15073585602E+01  0.73401590116E+03  0.94140920160E+03  0.00000000000E+00 0.  1.
         22    1    1    2    0    0  0.83311632195E+03  0.48699385714E+02  0.75923393153E+03  0.11282245339E+04  0.00000000000E+00 0.  1.
<mgrwt>
<rscale>  0 0.16818943E+04</rscale>
<asrwt>0</asrwt>
<pdfrwt beam="1">  1        2 0.32304961E+00 0.16818943E+04</pdfrwt>
<pdfrwt beam="2">  1       -2 0.51813325E-01 0.16818943E+04</pdfrwt>
<totfact> 0.19706565E+01</totfact>
</mgrwt>
</event>
<event>
 6    1  0.1585031E-006  0.9699900E+03  0.7818608E-02  0.9342086E-01
          1   -1    0    0  501    0  0.00000000000E+00  0.00000000000E+00  0.15399413269E+04  0.15399413269E+04  0.00000000000E+00 0. -1.
         -1   -1    0    0    0  501 -0.00000000000E+00 -0.00000000000E+00 -0.15274618354E+03  0.15274618354E+03  0.00000000000E+00 0.  1.
         23    2    1    2    0    0 -0.18825472766E+03 -0.18336281802E+03 -0.26427179209E+01  0.27822257763E+03  0.91318416672E+02 0.  0.
         11    1    3    3    0    0 -0.54017572278E+02 -0.12406561548E+02 -0.22797451507E+02  0.59929497574E+02  0.00000000000E+00 0. -1.
        -11    1    3    3    0    0 -0.13423715538E+03 -0.17095625647E+03  0.20154733586E+02  0.21829308005E+03  0.00000000000E+00 0.  1.
         22    1    1    2    0    0  0.18825472766E+03  0.18336281802E+03  0.13898378612E+04  0.14144649328E+04  0.00000000000E+00 0. -1.
<mgrwt>
<rscale>  0 0.96999002E+03</rscale>
<asrwt>0</asrwt>
<pdfrwt beam="1">  1        1 0.23691404E+00 0.96999002E+03</pdfrwt>
<pdfrwt beam="2">  1       -1 0.23499414E-01 0.96999002E+03</pdfrwt>
<totfact> 0.96044289E+01</totfact>
</mgrwt>
</event>
<event>
 6    1  0.1585031E-006  0.2325024E+04  0.7818608E-02  0.8468119E-01
         -1   -1    0    0    0  501 -0.00000000000E+00  0.00000000000E+00  0.74340888523E+03  0.74340888523E+03  0.00000000000E+00 0.  1.
          1   -1    0    0  501    0  0.00000000000E+00 -0.00000000000E+00 -0.18178877824E+04  0.18178877824E+04  0.00000000000E+00 0. -1.
         23    2    1    2    0    0 -0.68970397313E+02 -0.97262364456E+03 -0.12321976012E+04  0.15735574008E+04  0.83775267683E+02 0.  0.
         11    1    3    3    0    0 -0.72840791264E+02 -0.44290194871E+03 -0.57460358849E+03  0.72913455614E+03  0.00000000000E+00 0. -1.
        -11    1    3    3    0    0  0.38703939502E+01 -0.52972169585E+03 -0.65759401269E+03  0.84442284463E+03  0.00000000000E+00 0.  1.
         22    1    1    2    0    0  0.68970397313E+02  0.97262364456E+03  0.15771870403E+03  0.98773926685E+03  0.00000000000E+00 0. -1.
<mgrwt>
<rscale>  0 0.23250238E+04</rscale>
<asrwt>0</asrwt>
<pdfrwt beam="1">  1        1 0.27967504E+00 0.23250238E+04</pdfrwt>
<pdfrwt beam="2">  1       -1 0.11437060E+00 0.23250238E+04</pdfrwt>
<totfact> 0.24847741E+00</totfact>
</mgrwt>
</event>
<event>
 6    1  0.1585031E-006  0.6098885E+04  0.7818608E-02  0.7678261E-01
         -2   -1    0    0    0  501 -0.00000000000E+00  0.00000000000E+00  0.19662396403E+04  0.19662396403E+04  0.00000000000E+00 0.  1.
          2   -1    0    0  501    0  0.00000000000E+00 -0.00000000000E+00 -0.47293830487E+04  0.47293830487E+04  0.00000000000E+00 0. -1.
         23    2    1    2    0    0  0.20316079393E+04  0.22328933676E+04 -0.18497370122E+04  0.35416482352E+04  0.92204108248E+02 0.  0.
         13    1    3    3    0    0  0.10736740981E+04  0.12468669959E+04 -0.10186589532E+04  0.19352311070E+04  0.00000000000E+00 0. -1.
        -13    1    3    3    0    0  0.95793384120E+03  0.98602637173E+03 -0.83107805896E+03  0.16064171283E+04  0.00000000000E+00 0.  1.
         22    1    1    2    0    0 -0.20316079393E+04 -0.22328933676E+04 -0.91340639627E+03  0.31539744538E+04  0.00000000000E+00 0. -1.
<mgrwt>
<rscale>  0 0.60988853E+04</rscale>
<asrwt>0</asrwt>
<pdfrwt beam="1">  1        2 0.72759739E+00 0.60988853E+04</pdfrwt>
<pdfrwt beam="2">  1       -2 0.30249841E+00 0.60988853E+04</pdfrwt>
<totfact> 0.14384923E-03</totfact>
</mgrwt>
</event>
<event>
 6    1  0.1585031E-006  0.1913684E+04  0.7818608E-02  0.8648075E-01
          1   -1    0    0  501    0  0.00000000000E+00  0.00000000000E+00  0.61651171688E+03  0.61651171688E+03  0.00000000000E+00 0. -1.
         -1   -1    0    0    0  501 -0.00000000000E+00 -0.00000000000E+00 -0.14850431494E+04  0.14850431494E+04  0.00000000000E+00 0.  1.
         23    2    1    2    0    0  0.73899578925E+03 -0.57211714475E+03 -0.64914165276E+03  0.11415732627E+04  0.91497676766E+02 0.  0.
         13    1    3    3    0    0  0.21092443684E+03 -0.20981720714E+03 -0.18016157160E+03  0.34780823790E+03  0.00000000000E+00 0.  1.
        -13    1    3    3    0    0  0.52807135241E+03 -0.36229993761E+03 -0.46898008117E+03  0.79376502478E+03  0.00000000000E+00 0. -1.
         22    1    1    2    0    0 -0.73899578925E+03  0.57211714475E+03 -0.21938977979E+03  0.95998160364E+03  0.00000000000E+00 0. -1.
<mgrwt>
<rscale>  0 0.19136839E+04</rscale>
<asrwt>0</asrwt>
<pdfrwt beam="1">  1        1 0.94847957E-01 0.19136839E+04</pdfrwt>
<pdfrwt beam="2">  1       -1 0.22846818E+00 0.19136839E+04</pdfrwt>
<totfact> 0.29726526E+00</totfact>
</mgrwt>
</event>
<event>
 6    1  0.1585031E-006  0.7893228E+03  0.7818608E-02  0.9575602E-01
         -2   -1    0    0    0  501 -0.00000000000E+00  0.00000000000E+00  0.71865383883E+02  0.71865383883E+02  0.00000000000E+00 0.  1.
          2   -1    0    0  501    0  0.00000000000E+00 -0.00000000000E+00 -0.21673527520E+04  0.21673527520E+04  0.00000000000E+00 0. -1.
         23    2    1    2    0    0  0.41921774887E+02 -0.35358036402E+03 -0.15111774922E+04  0.15549707098E+04  0.86602461348E+02 0.  0.
         11    1    3    3    0    0 -0.60217701547E+01 -0.24543935593E+03 -0.11032660066E+04  0.11302533435E+04  0.00000000000E+00 0.  1.
        -11    1    3    3    0    0  0.47943545041E+02 -0.10814100810E+03 -0.40791148558E+03  0.42471736627E+03  0.00000000000E+00 0. -1.
         22    1    1    2    0    0 -0.41921774887E+02  0.35358036402E+03 -0.58430987591E+03  0.68424742609E+03  0.00000000000E+00 0.  1.
<mgrwt>
<rscale>  0 0.78932284E+03</rscale>
<asrwt>0</asrwt>
<pdfrwt beam="1">  1        2 0.33343892E+00 0.78932284E+03</pdfrwt>
<pdfrwt beam="2">  1       -2 0.11056212E-01 0.78932284E+03</pdfrwt>
<totfact> 0.32154382E+02</totfact>
</mgrwt>
</event>
<event>
 6    1  0.1585031E-006  0.2715599E+04  0.7818608E-02  0.8329961E-01
         -1   -1    0    0    0  501 -0.00000000000E+00  0.00000000000E+00  0.16713751749E+04  0.16713751749E+04  0.00000000000E+00 0.  1.
          1   -1    0    0  501    0  0.00000000000E+00 -0.00000000000E+00 -0.11030553345E+04  0.11030553345E+04  0.00000000000E+00 0. -1.
         23    2    1    2    0    0  0.67086593980E+03 -0.11411950417E+03  0.14830630246E+04  0.16343254864E+04  0.91975486457E+02 0.  0.
         13    1    3    3    0    0  0.24537486431E+03 -0.86420768394E+02  0.57862601104E+03  0.63441739722E+03  0.00000000000E+00 0.  1.
        -13    1    3    3    0    0  0.42549107550E+03 -0.27698735773E+02  0.90443701360E+03  0.99990808920E+03  0.00000000000E+00 0. -1.
         22    1    1    2    0    0 -0.67086593980E+03  0.11411950417E+03 -0.91474318426E+03  0.11401050230E+04  0.00000000000E+00 0. -1.
<mgrwt>
<rscale>  0 0.27155989E+04</rscale>
<asrwt>0</asrwt>
<pdfrwt beam="1">  1        1 0.16970082E+00 0.27155989E+04</pdfrwt>
<pdfrwt beam="2">  1       -1 0.25713464E+00 0.27155989E+04</pdfrwt>
<totfact> 0.68876196E-01</totfact>
</mgrwt>
</event>
<event>
 6    1  0.1585031E-006  0.2695042E+04  0.7818608E-02  0.8336615E-01
         -2   -1    0    0    0  501 -0.00000000000E+00  0.00000000000E+00  0.45410887235E+03  0.45410887235E+03  0.00000000000E+00 0.  1.
          2   -1    0    0  501    0  0.00000000000E+00 -0.00000000000E+00 -0.39986295230E+04  0.39986295230E+04  0.00000000000E+00 0. -1.
         23    2    1    2    0    0  0.80901500303E+03 -0.79438648183E+03 -0.29726055866E+04  0.31828399749E+04  0.92364359180E+02 0.  0.
         11    1    3    3    0    0  0.21971367068E+03 -0.21884601181E+03 -0.93257413445E+03  0.98278288050E+03  0.00000000000E+00 0. -1.
        -11    1    3    3    0    0  0.58930133235E+03 -0.57554047003E+03 -0.20400314521E+04  0.22000570944E+04  0.00000000000E+00 0.  1.
         22    1    1    2    0    0 -0.80901500303E+03  0.79438648183E+03 -0.57191506401E+03  0.12698984204E+04  0.00000000000E+00 0.  1.
<mgrwt>
<rscale>  0 0.26950422E+04</rscale>
<asrwt>0</asrwt>
<pdfrwt beam="1">  1        2 0.61517380E+00 0.26950422E+04</pdfrwt>
<pdfrwt beam="2">  1       -2 0.69862901E-01 0.26950422E+04</pdfrwt>
<totfact> 0.56283944E-01</totfact>
</mgrwt>
</event>
<event>
 6    1  0.1585031E-006  0.1049150E+04  0.7818608E-02  0.9256222E-01
          1   -1    0    0  501    0  0.00000000000E+00  0.00000000000E+00  0.82196580356E+03  0.82196580356E+03  0.00000000000E+00 0. -1.
         -1   -1    0    0    0  501 -0.00000000000E+00 -0.00000000000E+00 -0.33478164083E+03  0.33478164083E+03  0.00000000000E+00 0.  1.
         23    2    1    2    0    0 -0.38136034784E+03 -0.20435800509E+03 -0.76044377322E+02  0.44651910260E+03  0.79991577744E+02 0.  0.
         13    1    3    3    0    0 -0.99293929478E+02 -0.86794167542E+02 -0.45061481767E+02  0.13936659962E+03  0.00000000000E+00 0. -1.
        -13    1    3    3    0    0 -0.28206641836E+03 -0.11756383755E+03 -0.30982895555E+02  0.30715250298E+03  0.00000000000E+00 0.  1.
         22    1    1    2    0    0  0.38136034784E+03  0.20435800509E+03  0.56322854005E+03  0.71022834179E+03  0.00000000000E+00 0. -1.
<mgrwt>
<rscale>  0 0.10491502E+04</rscale>
<asrwt>0</asrwt>
<pdfrwt beam="1">  1        1 0.12645628E+00 0.10491502E+04</pdfrwt>
<pdfrwt beam="2">  1       -1 0.51504868E-01 0.10491502E+04</pdfrwt>
<totfact> 0.80208333E+01</totfact>
</mgrwt>
</event>
<event>
 6    1  0.1585031E-006  0.2810111E+04  0.7818608E-02  0.8300136E-01
         -2   -1    0    0    0  501 -0.00000000000E+00  0.00000000000E+00  0.43049109002E+03  0.43049109002E+03  0.00000000000E+00 0.  1.
          2   -1    0    0  501    0  0.00000000000E+00 -0.00000000000E+00 -0.45858796324E+04  0.45858796324E+04  0.00000000000E+00 0. -1.
         23    2    1    2    0    0  0.30251302923E+03  0.80332036791E+03 -0.40620851561E+04  0.41529222478E+04  0.96900125335E+02 0.  0.
         13    1    3    3    0    0  0.47297573320E+01  0.97464521432E+02 -0.43372370640E+03  0.44456490756E+03  0.00000000000E+00 0. -1.
        -13    1    3    3    0    0  0.29778327189E+03  0.70585584648E+03 -0.36283614498E+04  0.37083573403E+04  0.00000000000E+00 0.  1.
         22    1    1    2    0    0 -0.30251302923E+03 -0.80332036791E+03 -0.93303386192E+02  0.86344847456E+03  0.00000000000E+00 0.  1.
<mgrwt>
<rscale>  0 0.28101105E+04</rscale>
<asrwt>0</asrwt>
<pdfrwt beam="1">  1        2 0.70551995E+00 0.28101105E+04</pdfrwt>
<pdfrwt beam="2">  1       -2 0.66229398E-01 0.28101105E+04</pdfrwt>
<totfact> 0.18444586E-01</totfact>
</mgrwt>
</event>
<event>
 6    1  0.1585031E-006  0.1236734E+04  0.7818608E-02  0.9081297E-01
          2   -1    0    0  501    0  0.00000000000E+00  0.00000000000E+00  0.51653804957E+03  0.51653804957E+03  0.00000000000E+00 0. -1.
         -2   -1    0    0    0  501 -0.00000000000E+00 -0.00000000000E+00 -0.74027022525E+03  0.74027022525E+03  0.00000000000E+00 0.  1.
         23    2    1    2    0    0 -0.42580668138E+03 -0.18373149392E+03 -0.52296329859E+03  0.70489536803E+03  0.91204585617E+02 0.  0.
         11    1    3    3    0    0 -0.25842156419E+03 -0.12760593591E+03 -0.25993746775E+03  0.38811398694E+03  0.00000000000E+00 0. -1.
        -11    1    3    3    0    0 -0.16738511718E+03 -0.56125558009E+02 -0.26302583084E+03  0.31678138109E+03  0.00000000000E+00 0.  1.
         22    1    1    2    0    0  0.42580668138E+03  0.18373149392E+03  0.29923112291E+03  0.55191290679E+03  0.00000000000E+00 0. -1.
<mgrwt>
<rscale>  0 0.12367340E+04</rscale>
<asrwt>0</asrwt>
<pdfrwt beam="1">  1        2 0.79467393E-01 0.12367340E+04</pdfrwt>
<pdfrwt beam="2">  1       -2 0.11388773E+00 0.12367340E+04</pdfrwt>
<totfact> 0.35231513E+01</totfact>
</mgrwt>
</event>
<event>
 6    1  0.1585031E-006  0.1398833E+04  0.7818608E-02  0.8954663E-01
         -2   -1    0    0    0  501 -0.00000000000E+00  0.00000000000E+00  0.75183845413E+03  0.75183845413E+03  0.00000000000E+00 0.  1.
          2   -1    0    0  501    0  0.00000000000E+00 -0.00000000000E+00 -0.65065002802E+03  0.65065002802E+03  0.00000000000E+00 0. -1.
         23    2    1    2    0    0  0.17329607995E+03  0.16600988665E+03  0.70633867813E+03  0.75149106178E+03  0.90739594036E+02 0.  0.
         13    1    3    3    0    0  0.12685647524E+02  0.49825769382E+02  0.22760684479E+03  0.23334182810E+03  0.00000000000E+00 0. -1.
        -13    1    3    3    0    0  0.16061043242E+03  0.11618411726E+03  0.47873183334E+03  0.51814923368E+03  0.00000000000E+00 0.  1.
         22    1    1    2    0    0 -0.17329607995E+03 -0.16600988665E+03 -0.60515025203E+03  0.65099742036E+03  0.00000000000E+00 0. -1.
<mgrwt>
<rscale>  0 0.13988334E+04</rscale>
<asrwt>0</asrwt>
<pdfrwt beam="1">  1        2 0.10010000E+00 0.13988334E+04</pdfrwt>
<pdfrwt beam="2">  1       -2 0.11566746E+00 0.13988334E+04</pdfrwt>
<totfact> 0.25410449E+01</totfact>
</mgrwt>
</event>
<event>
 6    1  0.1585031E-006  0.1188029E+04  0.7818608E-02  0.9123400E-01
         -1   -1    0    0    0  501 -0.00000000000E+00  0.00000000000E+00  0.42438275849E+03  0.42438275849E+03  0.00000000000E+00 0.  1.
          1   -1    0    0  501    0  0.00000000000E+00 -0.00000000000E+00 -0.83145058534E+03  0.83145058534E+03  0.00000000000E+00 0. -1.
         23    2    1    2    0    0  0.23270713084E+02 -0.67366607243E+02 -0.82425919120E+03  0.83259768801E+03  0.93466089819E+02 0.  0.
         11    1    3    3    0    0 -0.99471100207E+01 -0.74565379385E+02 -0.69058166820E+03  0.69466681313E+03  0.00000000000E+00 0.  1.
        -11    1    3    3    0    0  0.33217823105E+02  0.71987721417E+01 -0.13367752300E+03  0.13793087489E+03  0.00000000000E+00 0. -1.
         22    1    1    2    0    0 -0.23270713084E+02  0.67366607243E+02  0.41719136435E+03  0.42323565581E+03  0.00000000000E+00 0.  1.
<mgrwt>
<rscale>  0 0.11880291E+04</rscale>
<asrwt>0</asrwt>
<pdfrwt beam="1">  1        1 0.12791547E+00 0.11880291E+04</pdfrwt>
<pdfrwt beam="2">  1       -1 0.65289656E-01 0.11880291E+04</pdfrwt>
<totfact> 0.48935051E+01</totfact>
</mgrwt>
</event>
<event>
 6    1  0.1585031E-006  0.4815701E+04  0.7818608E-02  0.7857583E-01
          2   -1    0    0  501    0  0.00000000000E+00  0.00000000000E+00  0.36096851361E+04  0.36096851361E+04  0.00000000000E+00 0. -1.
         -2   -1    0    0    0  501 -0.00000000000E+00 -0.00000000000E+00 -0.16061634881E+04  0.16061634881E+04  0.00000000000E+00 0.  1.
         23    2    1    2    0    0 -0.86801597561E+03  0.14042599449E+04  0.28993429611E+04  0.33375798597E+04  0.88611436900E+02 0.  0.
         13    1    3    3    0    0 -0.44609355869E+03  0.74177356981E+03  0.14330961889E+04  0.16742138987E+04  0.00000000000E+00 0.  1.
        -13    1    3    3    0    0 -0.42192241692E+03  0.66248637513E+03  0.14662467722E+04  0.16633659610E+04  0.00000000000E+00 0. -1.
         22    1    1    2    0    0  0.86801597561E+03 -0.14042599449E+04 -0.89582131310E+03  0.18782687646E+04  0.00000000000E+00 0.  1.
<mgrwt>
<rscale>  0 0.48157012E+04</rscale>
<asrwt>0</asrwt>
<pdfrwt beam="1">  1        2 0.55533617E+00 0.48157012E+04</pdfrwt>
<pdfrwt beam="2">  1       -2 0.24710208E+00 0.48157012E+04</pdfrwt>
<totfact> 0.33525714E-02</totfact>
</mgrwt>
</event>
<event>
 6    1  0.1585031E-006  0.3035761E+04  0.7818608E-02  0.8233592E-01
          1   -1    0    0  501    0  0.00000000000E+00  0.00000000000E+00  0.28101135286E+04  0.28101135286E+04  0.00000000000E+00 0. -1.
         -1   -1    0    0    0  501 -0.00000000000E+00 -0.00000000000E+00 -0.81988174189E+03  0.81988174189E+03  0.00000000000E+00 0.  1.
         23    2    1    2    0    0 -0.48289492729E+03 -0.19187306058E+02  0.27148094029E+04  0.27590369560E+04  0.92407612590E+02 0.  0.
         11    1    3    3    0    0 -0.41924626348E+03  0.82341126194E+01  0.22025879061E+04  0.22421482365E+04  0.00000000000E+00 0. -1.
        -11    1    3    3    0    0 -0.63648663815E+02 -0.27421418677E+02  0.51222149681E+03  0.51688871955E+03  0.00000000000E+00 0.  1.
         22    1    1    2    0    0  0.48289492729E+03  0.19187306058E+02 -0.72457761626E+03  0.87095831445E+03  0.00000000000E+00 0.  1.
<mgrwt>
<rscale>  0 0.30357607E+04</rscale>
<asrwt>0</asrwt>
<pdfrwt beam="1">  1        1 0.43232515E+00 0.30357607E+04</pdfrwt>
<pdfrwt beam="2">  1       -1 0.12613565E+00 0.30357607E+04</pdfrwt>
<totfact> 0.38025680E-01</totfact>
</mgrwt>
</event>
<event>
 6    1  0.1585031E-006  0.6876668E+03  0.7818608E-02  0.9738559E-01
         -1   -1    0    0    0  501 -0.00000000000E+00  0.00000000000E+00  0.74802939045E+03  0.74802939045E+03  0.00000000000E+00 0.  1.
          1   -1    0    0  501    0  0.00000000000E+00 -0.00000000000E+00 -0.15804379813E+03  0.15804379813E+03  0.00000000000E+00 0. -1.
         23    2    1    2    0    0  0.70998215764E+02 -0.30107627555E+03  0.12145120596E+03  0.34463562166E+03  0.91299758769E+02 0.  0.
         13    1    3    3    0    0 -0.65720358495E+01 -0.12329757217E+03  0.17910048024E+02  0.12476478981E+03  0.00000000000E+00 0.  1.
        -13    1    3    3    0    0  0.77570251613E+02 -0.17777870338E+03  0.10354115794E+03  0.21987083185E+03  0.00000000000E+00 0. -1.
         22    1    1    2    0    0 -0.70998215764E+02  0.30107627555E+03  0.46853438636E+03  0.56143756691E+03  0.00000000000E+00 0.  1.
<mgrwt>
<rscale>  0 0.68766680E+03</rscale>
<asrwt>0</asrwt>
<pdfrwt beam="1">  1        1 0.24314431E-01 0.68766680E+03</pdfrwt>
<pdfrwt beam="2">  1       -1 0.11508144E+00 0.68766680E+03</pdfrwt>
<totfact> 0.14118091E+02</totfact>
</mgrwt>
</event>
<event>
 6    1  0.1585031E-006  0.2884002E+04  0.7818608E-02  0.8277653E-01
          2   -1    0    0  501    0  0.00000000000E+00  0.00000000000E+00  0.16525874468E+04  0.16525874468E+04  0.00000000000E+00 0. -1.
         -2   -1    0    0    0  501 -0.00000000000E+00 -0.00000000000E+00 -0.12582494081E+04  0.12582494081E+04  0.00000000000E+00 0.  1.
         23    2    1    2    0    0 -0.78823726523E+03  0.10667735771E+04 -0.37024944831E+03  0.13798509385E+04  0.87063812438E+02 0.  0.
         11    1    3    3    0    0 -0.30159851310E+03  0.35169395120E+03 -0.10390679418E+03  0.47481251068E+03  0.00000000000E+00 0. -1.
        -11    1    3    3    0    0 -0.48663875212E+03  0.71507962589E+03 -0.26634265413E+03  0.90503842782E+03  0.00000000000E+00 0.  1.
         22    1    1    2    0    0  0.78823726523E+03 -0.10667735771E+04  0.76458748696E+03  0.15309859164E+04  0.00000000000E+00 0. -1.
<mgrwt>
<rscale>  0 0.28840022E+04</rscale>
<asrwt>0</asrwt>
<pdfrwt beam="1">  1        2 0.25424422E+00 0.28840022E+04</pdfrwt>
<pdfrwt beam="2">  1       -2 0.19357683E+00 0.28840022E+04</pdfrwt>
<totfact> 0.13213342E+00</totfact>
</mgrwt>
</event>
<event>
 6    1  0.1585031E-006  0.1064240E+04  0.7818608E-02  0.9240764E-01
          2   -1    0    0  501    0  0.00000000000E+00  0.00000000000E+00  0.74246485509E+03  0.74246485509E+03  0.00000000000E+00 0. -1.
         -2   -1    0    0    0  501 -0.00000000000E+00 -0.00000000000E+00 -0.38136715714E+03  0.38136715714E+03  0.00000000000E+00 0.  1.
         23    2    1    2    0    0  0.13439502159E+03  0.75481113066E+02 -0.35120594628E+03  0.39504130027E+03  0.94618137591E+02 0.  0.
         13    1    3    3    0    0  0.69708721076E+02 -0.89567993961E+01 -0.18292592471E+03  0.19596281275E+03  0.00000000000E+00 0. -1.
        -13    1    3    3    0    0  0.64686300513E+02  0.84437912462E+02 -0.16828002156E+03  0.19907848752E+03  0.00000000000E+00 0.  1.
         22    1    1    2    0    0 -0.13439502159E+03 -0.75481113066E+02  0.71230364423E+03  0.72879071196E+03  0.00000000000E+00 0. -1.
<mgrwt>
<rscale>  0 0.10642400E+04</rscale>
<asrwt>0</asrwt>
<pdfrwt beam="1">  1        2 0.11422536E+00 0.10642400E+04</pdfrwt>
<pdfrwt beam="2">  1       -2 0.58671870E-01 0.10642400E+04</pdfrwt>
<totfact> 0.10268405E+02</totfact>
</mgrwt>
</event>
<event>
 6    1  0.1585031E-006  0.1832175E+04  0.7818608E-02  0.8689374E-01
         -2   -1    0    0    0  501 -0.00000000000E+00  0.00000000000E+00  0.37655357260E+03  0.37655357260E+03  0.00000000000E+00 0.  1.
          2   -1    0    0  501    0  0.00000000000E+00 -0.00000000000E+00 -0.22286766419E+04  0.22286766419E+04  0.00000000000E+00 0. -1.
         23    2    1    2    0    0 -0.34865937220E+03 -0.20082595950E+03  0.23822228721E+03  0.47651272894E+03  0.91761096777E+02 0.  0.
         13    1    3    3    0    0 -0.15045125590E+03 -0.35498654888E+02  0.89887280651E+02  0.17881682841E+03  0.00000000000E+00 0. -1.
        -13    1    3    3    0    0 -0.19820811630E+03 -0.16532730461E+03  0.14833500656E+03  0.29769590053E+03  0.00000000000E+00 0.  1.
         22    1    1    2    0    0  0.34865937220E+03  0.20082595950E+03 -0.20903453565E+04  0.21287174856E+04  0.00000000000E+00 0. -1.
<mgrwt>
<rscale>  0 0.18321748E+04</rscale>
<asrwt>0</asrwt>
<pdfrwt beam="1">  1        2 0.34287334E+00 0.18321748E+04</pdfrwt>
<pdfrwt beam="2">  1       -2 0.57931318E-01 0.18321748E+04</pdfrwt>
<totfact> 0.13069430E+01</totfact>
</mgrwt>
</event>
<event>
 6    1  0.1585031E-006  0.2645008E+04  0.7818608E-02  0.8353072E-01
         -2   -1    0    0    0  501 -0.00000000000E+00  0.00000000000E+00  0.12631068749E+04  0.12631068749E+04  0.00000000000E+00 0.  1.
          2   -1    0    0  501    0  0.00000000000E+00 -0.00000000000E+00 -0.13846939655E+04  0.13846939655E+04  0.00000000000E+00 0. -1.
         23    2    1    2    0    0  0.11965008037E+04  0.25562481949E+02  0.49867832743E+03  0.12998406027E+04  0.92940327654E+02 0.  0.
         11    1    3    3    0    0  0.85357849377E+03 -0.23778755843E+02  0.35192600102E+03  0.92358734533E+03  0.00000000000E+00 0. -1.
        -11    1    3    3    0    0  0.34292230991E+03  0.49341237792E+02  0.14675232641E+03  0.37625325738E+03  0.00000000000E+00 0.  1.
         22    1    1    2    0    0 -0.11965008037E+04 -0.25562481949E+02 -0.62026541802E+03  0.13479602377E+04  0.00000000000E+00 0. -1.
<mgrwt>
<rscale>  0 0.26450077E+04</rscale>
<asrwt>0</asrwt>
<pdfrwt beam="1">  1        2 0.21302984E+00 0.26450077E+04</pdfrwt>
<pdfrwt beam="2">  1       -2 0.19432414E+00 0.26450077E+04</pdfrwt>
<totfact> 0.18872397E+00</totfact>
</mgrwt>
</event>
<event>
 6    1  0.1614182E-006  0.3037347E+04  0.7818608E-02  0.8233146E-01
          2   -1    0    0  501    0  0.00000000000E+00  0.00000000000E+00  0.11980150105E+04  0.11980150105E+04  0.00000000000E+00 0. -1.
         -2   -1    0    0    0  501 -0.00000000000E+00 -0.00000000000E+00 -0.19251593524E+04  0.19251593524E+04  0.00000000000E+00 0.  1.
         23    2    1    2    0    0  0.21043540329E+03 -0.50699952073E+03 -0.18184291362E+04  0.19016040313E+04  0.89898807612E+02 0.  0.
         11    1    3    3    0    0  0.10769868193E+03 -0.34769804432E+03 -0.11041664711E+04  0.11626162445E+04  0.00000000000E+00 0. -1.
        -11    1    3    3    0    0  0.10273672136E+03 -0.15930147641E+03 -0.71426266508E+03  0.73898778680E+03  0.00000000000E+00 0.  1.
         22    1    1    2    0    0 -0.21043540329E+03  0.50699952073E+03  0.10912847942E+04  0.12215703316E+04  0.00000000000E+00 0. -1.
<mgrwt>
<rscale>  0 0.30373474E+04</rscale>
<asrwt>0</asrwt>
<pdfrwt beam="1">  1        2 0.18431000E+00 0.30373474E+04</pdfrwt>
<pdfrwt beam="2">  1       -2 0.29617836E+00 0.30373474E+04</pdfrwt>
<totfact> 0.54362397E-01</totfact>
</mgrwt>
</event>
<event>
 6    1  0.1585031E-006  0.2526672E+04  0.7818608E-02  0.8393545E-01
         -2   -1    0    0    0  501 -0.00000000000E+00  0.00000000000E+00  0.12758029723E+04  0.12758029723E+04  0.00000000000E+00 0.  1.
          2   -1    0    0  501    0  0.00000000000E+00 -0.00000000000E+00 -0.12509906977E+04  0.12509906977E+04  0.00000000000E+00 0. -1.
         23    2    1    2    0    0 -0.77516512607E+03 -0.48669216709E+03 -0.85603163856E+03  0.12565038458E+04  0.90892850204E+02 0.  0.
         13    1    3    3    0    0 -0.66704896724E+03 -0.44255491894E+03 -0.77630935702E+03  0.11151077969E+04  0.00000000000E+00 0. -1.
        -13    1    3    3    0    0 -0.10811615883E+03 -0.44137248149E+02 -0.79722281535E+02  0.14139604891E+03  0.00000000000E+00 0.  1.
         22    1    1    2    0    0  0.77516512607E+03  0.48669216709E+03  0.88084391312E+03  0.12702898242E+04  0.00000000000E+00 0.  1.
<mgrwt>
<rscale>  0 0.25266718E+04</rscale>
<asrwt>0</asrwt>
<pdfrwt beam="1">  1        2 0.19246011E+00 0.25266718E+04</pdfrwt>
<pdfrwt beam="2">  1       -2 0.19627738E+00 0.25266718E+04</pdfrwt>
<totfact> 0.22124238E+00</totfact>
</mgrwt>
</event>
<event>
 6    1  0.1585031E-006  0.2471578E+04  0.7818608E-02  0.8413182E-01
          2   -1    0    0  501    0  0.00000000000E+00  0.00000000000E+00  0.27810001358E+04  0.27810001358E+04  0.00000000000E+00 0. -1.
         -2   -1    0    0    0  501 -0.00000000000E+00 -0.00000000000E+00 -0.54914562855E+03  0.54914562855E+03  0.00000000000E+00 0.  1.
         23    2    1    2    0    0 -0.11449639658E+03 -0.38729739375E+03  0.26887316534E+04  0.27203544700E+04  0.89117014910E+02 0.  0.
         13    1    3    3    0    0  0.12614752835E+01 -0.91553815369E+02  0.45126563487E+03  0.46046103596E+03  0.00000000000E+00 0.  1.
        -13    1    3    3    0    0 -0.11575787187E+03 -0.29574357838E+03  0.22374660185E+04  0.22598934340E+04  0.00000000000E+00 0. -1.
         22    1    1    2    0    0  0.11449639658E+03  0.38729739375E+03 -0.45687714614E+03  0.60979129438E+03  0.00000000000E+00 0.  1.
<mgrwt>
<rscale>  0 0.24715777E+04</rscale>
<asrwt>0</asrwt>
<pdfrwt beam="1">  1        2 0.42784617E+00 0.24715777E+04</pdfrwt>
<pdfrwt beam="2">  1       -2 0.84483945E-01 0.24715777E+04</pdfrwt>
<totfact> 0.25932668E+00</totfact>
</mgrwt>
</event>
<event>
 6    1  0.1585031E-006  0.4749808E+04  0.7818608E-02  0.7868305E-01
          1   -1    0    0  501    0  0.00000000000E+00  0.00000000000E+00  0.43801840187E+04  0.43801840187E+04  0.00000000000E+00 0. -1.
         -1   -1    0    0    0  501 -0.00000000000E+00 -0.00000000000E+00 -0.12876557515E+04  0.12876557515E+04  0.00000000000E+00 0.  1.
         23    2    1    2    0    0 -0.18247378480E+04 -0.41654668621E+02  0.33583916485E+04  0.38233651396E+04  0.89012362867E+02 0.  0.
         11    1    3    3    0    0 -0.13890063415E+04 -0.26140676499E+02  0.26327088155E+04  0.29767730277E+04  0.00000000000E+00 0.  1.
        -11    1    3    3    0    0 -0.43573150652E+03 -0.15513992122E+02  0.72568283305E+03  0.84659211189E+03  0.00000000000E+00 0. -1.
         22    1    1    2    0    0  0.18247378480E+04  0.41654668621E+02 -0.26586338131E+03  0.18444746306E+04  0.00000000000E+00 0.  1.
<mgrwt>
<rscale>  0 0.47498081E+04</rscale>
<asrwt>0</asrwt>
<pdfrwt beam="1">  1        1 0.67387446E+00 0.47498081E+04</pdfrwt>
<pdfrwt beam="2">  1       -1 0.19810089E+00 0.47498081E+04</pdfrwt>
<totfact> 0.48268858E-03</totfact>
</mgrwt>
</event>
<event>
 6    1  0.1585031E-006  0.1193592E+04  0.7818608E-02  0.9118484E-01
          1   -1    0    0  501    0  0.00000000000E+00  0.00000000000E+00  0.63479471009E+03  0.63479471009E+03  0.00000000000E+00 0. -1.
         -1   -1    0    0    0  501 -0.00000000000E+00 -0.00000000000E+00 -0.56107168302E+03  0.56107168302E+03  0.00000000000E+00 0.  1.
         23    2    1    2    0    0  0.26749459214E+02  0.50477261628E+03 -0.27412181458E+03  0.58226476210E+03  0.91534453814E+02 0.  0.
         11    1    3    3    0    0  0.48221131838E+02  0.25727517233E+03 -0.17460177433E+03  0.31464515164E+03  0.00000000000E+00 0. -1.
        -11    1    3    3    0    0 -0.21471672624E+02  0.24749744395E+03 -0.99520040248E+02  0.26761961045E+03  0.00000000000E+00 0.  1.
         22    1    1    2    0    0 -0.26749459214E+02 -0.50477261628E+03  0.34784484165E+03  0.61360163101E+03  0.00000000000E+00 0. -1.
<mgrwt>
<rscale>  0 0.11935918E+04</rscale>
<asrwt>0</asrwt>
<pdfrwt beam="1">  1        1 0.97660725E-01 0.11935918E+04</pdfrwt>
<pdfrwt beam="2">  1       -1 0.86318720E-01 0.11935918E+04</pdfrwt>
<totfact> 0.41372216E+01</totfact>
</mgrwt>
</event>
<event>
 6    1  0.1585031E-006  0.3994515E+04  0.7818608E-02  0.8005654E-01
          2   -1    0    0  501    0  0.00000000000E+00  0.00000000000E+00  0.25886740164E+04  0.25886740164E+04  0.00000000000E+00 0. -1.
         -2   -1    0    0    0  501 -0.00000000000E+00 -0.00000000000E+00 -0.15409580335E+04  0.15409580335E+04  0.00000000000E+00 0.  1.
         23    2    1    2    0    0 -0.14203517642E+03 -0.14986265821E+04  0.18794647940E+04  0.24097885371E+04  0.92936848974E+02 0.  0.
         11    1    3    3    0    0 -0.55947855207E+02 -0.10288641282E+04  0.12641604531E+04  0.16308872456E+04  0.00000000000E+00 0. -1.
        -11    1    3    3    0    0 -0.86087321215E+02 -0.46976245394E+03  0.61530434083E+03  0.77890129146E+03  0.00000000000E+00 0.  1.
         22    1    1    2    0    0  0.14203517642E+03  0.14986265821E+04 -0.83174881107E+03  0.17198435128E+04  0.00000000000E+00 0.  1.
<mgrwt>
<rscale>  0 0.39945153E+04</rscale>
<asrwt>0</asrwt>
<pdfrwt beam="1">  1        2 0.39825754E+00 0.39945153E+04</pdfrwt>
<pdfrwt beam="2">  1       -2 0.23707047E+00 0.39945153E+04</pdfrwt>
<totfact> 0.18837204E-01</totfact>
</mgrwt>
</event>
<event>
 6    1  0.1585031E-006  0.4178648E+04  0.7818608E-02  0.7969446E-01
          1   -1    0    0  501    0  0.00000000000E+00  0.00000000000E+00  0.21284996418E+04  0.21284996418E+04  0.00000000000E+00 0. -1.
         -1   -1    0    0    0  501 -0.00000000000E+00 -0.00000000000E+00 -0.20508696466E+04  0.20508696466E+04  0.00000000000E+00 0.  1.
         23    2    1    2    0    0  0.66167967588E+03 -0.50073449933E+03  0.19553956850E+04  0.21264301714E+04  0.97867035529E+02 0.  0.
         11    1    3    3    0    0  0.32293916918E+03 -0.27387138319E+03  0.11052144078E+04  0.11835514897E+04  0.00000000000E+00 0.  1.
        -11    1    3    3    0    0  0.33874050670E+03 -0.22686311614E+03  0.85018127726E+03  0.94287868178E+03  0.00000000000E+00 0. -1.
         22    1    1    2    0    0 -0.66167967588E+03  0.50073449933E+03 -0.18777656898E+04  0.20529391170E+04  0.00000000000E+00 0.  1.
<mgrwt>
<rscale>  0 0.41786483E+04</rscale>
<asrwt>0</asrwt>
<pdfrwt beam="1">  1        1 0.32746148E+00 0.41786483E+04</pdfrwt>
<pdfrwt beam="2">  1       -1 0.31551841E+00 0.41786483E+04</pdfrwt>
<totfact> 0.49210821E-02</totfact>
</mgrwt>
</event>
<event>
 6    1  0.1585031E-006  0.1923152E+04  0.7818608E-02  0.8643417E-01
          2   -1    0    0  501    0  0.00000000000E+00  0.00000000000E+00  0.16577488647E+04  0.16577488647E+04  0.00000000000E+00 0. -1.
         -2   -1    0    0    0  501 -0.00000000000E+00 -0.00000000000E+00 -0.55776168425E+03  0.55776168425E+03  0.00000000000E+00 0.  1.
         23    2    1    2    0    0 -0.12292373921E+03 -0.75522410702E+03 -0.11566430002E+03  0.77909757927E+03  0.90228101139E+02 0.  0.
         11    1    3    3    0    0 -0.73030421676E+00 -0.21068005412E+03 -0.87471661582E+01  0.21086282618E+03  0.00000000000E+00 0.  1.
        -11    1    3    3    0    0 -0.12219343500E+03 -0.54454405290E+03 -0.10691713386E+03  0.56823475309E+03  0.00000000000E+00 0. -1.
         22    1    1    2    0    0  0.12292373921E+03  0.75522410702E+03  0.12156514804E+04  0.14364129697E+04  0.00000000000E+00 0. -1.
<mgrwt>
<rscale>  0 0.19231524E+04</rscale>
<asrwt>0</asrwt>
<pdfrwt beam="1">  1        2 0.25503829E+00 0.19231524E+04</pdfrwt>
<pdfrwt beam="2">  1       -2 0.85809490E-01 0.19231524E+04</pdfrwt>
<totfact> 0.11411954E+01</totfact>
</mgrwt>
</event>
<event>
 6    1  0.1585031E-006  0.8716525E+03  0.7818608E-02  0.9461728E-01
          3   -1    0    0  501    0  0.00000000000E+00  0.00000000000E+00  0.14013815479E+04  0.14013815479E+04  0.00000000000E+00 0. -1.
         -3   -1    0    0    0  501 -0.00000000000E+00 -0.00000000000E+00 -0.13554090143E+03  0.13554090143E+03  0.00000000000E+00 0.  1.
         23    2    1    2    0    0  0.41719098962E+03 -0.10699885854E+03  0.66252194114E+03  0.79564615958E+03  0.92846169658E+02 0.  0.
         13    1    3    3    0    0  0.35780412706E+03 -0.91590727132E+02  0.61757291291E+03  0.71958943669E+03  0.00000000000E+00 0.  1.
        -13    1    3    3    0    0  0.59386862563E+02 -0.15408131409E+02  0.44949028229E+02  0.76056722894E+02  0.00000000000E+00 0. -1.
         22    1    1    2    0    0 -0.41719098962E+03  0.10699885854E+03  0.60331870535E+03  0.74127628977E+03  0.00000000000E+00 0. -1.
<mgrwt>
<rscale>  0 0.87165250E+03</rscale>
<asrwt>0</asrwt>
<pdfrwt beam="1">  1        3 0.21559715E+00 0.87165250E+03</pdfrwt>
<pdfrwt beam="2">  1       -3 0.20852447E-01 0.87165250E+03</pdfrwt>
<totfact> 0.66529275E+00</totfact>
</mgrwt>
</event>
<event>
 6    1  0.1585031E-006  0.1559569E+04  0.7818608E-02  0.8845779E-01
         -1   -1    0    0    0  501 -0.00000000000E+00  0.00000000000E+00  0.29903730752E+03  0.29903730752E+03  0.00000000000E+00 0.  1.
          1   -1    0    0  501    0  0.00000000000E+00 -0.00000000000E+00 -0.20334052284E+04  0.20334052284E+04  0.00000000000E+00 0. -1.
         23    2    1    2    0    0 -0.13078642963E+03 -0.99096472919E+02 -0.20060657253E+04  0.20150391679E+04  0.95697192079E+02 0.  0.
         11    1    3    3    0    0 -0.10883632422E+03 -0.41427322189E+02 -0.16088563113E+04  0.16130654665E+04  0.00000000000E+00 0. -1.
        -11    1    3    3    0    0 -0.21950105403E+02 -0.57669150730E+02 -0.39720941399E+03  0.40197370142E+03  0.00000000000E+00 0.  1.
         22    1    1    2    0    0  0.13078642963E+03  0.99096472919E+02  0.27169780444E+03  0.31740336806E+03  0.00000000000E+00 0.  1.
<mgrwt>
<rscale>  0 0.15595692E+04</rscale>
<asrwt>0</asrwt>
<pdfrwt beam="1">  1        1 0.31283159E+00 0.15595692E+04</pdfrwt>
<pdfrwt beam="2">  1       -1 0.46005738E-01 0.15595692E+04</pdfrwt>
<totfact> 0.12801290E+01</totfact>
</mgrwt>
</event>
<event>
 6    1  0.1585031E-006  0.4740767E+03  0.7818608E-02  0.1020776E+00
          2   -1    0    0  501    0  0.00000000000E+00  0.00000000000E+00  0.30026128343E+03  0.30026128343E+03  0.00000000000E+00 0. -1.
         -2   -1    0    0    0  501 -0.00000000000E+00 -0.00000000000E+00 -0.18712762812E+03  0.18712762812E+03  0.00000000000E+00 0.  1.
         23    2    1    2    0    0  0.57447376207E+02  0.21301547667E+03 -0.11868951588E+01  0.23890353453E+03  0.91638942338E+02 0.  0.
         13    1    3    3    0    0  0.89295572054E+01  0.17954525593E+03  0.32240769418E+01  0.17979608058E+03  0.00000000000E+00 0. -1.
        -13    1    3    3    0    0  0.48517819002E+02  0.33470220744E+02 -0.44109721006E+01  0.59107453948E+02  0.00000000000E+00 0.  1.
         22    1    1    2    0    0 -0.57447376207E+02 -0.21301547667E+03  0.11432055046E+03  0.24848537702E+03  0.00000000000E+00 0. -1.
<mgrwt>
<rscale>  0 0.47407671E+03</rscale>
<asrwt>0</asrwt>
<pdfrwt beam="1">  1        2 0.46194043E-01 0.47407671E+03</pdfrwt>
<pdfrwt beam="2">  1       -2 0.28788866E-01 0.47407671E+03</pdfrwt>
<totfact> 0.12124481E+03</totfact>
</mgrwt>
</event>
<event>
 6    1  0.1585031E-006  0.2516848E+04  0.7818608E-02  0.8397008E-01
          1   -1    0    0  501    0  0.00000000000E+00  0.00000000000E+00  0.77147094733E+03  0.77147094733E+03  0.00000000000E+00 0. -1.
         -1   -1    0    0    0  501 -0.00000000000E+00 -0.00000000000E+00 -0.20527419270E+04  0.20527419270E+04  0.00000000000E+00 0.  1.
         23    2    1    2    0    0  0.27029711696E+03  0.29544087957E+03  0.69528900124E+03  0.80749891273E+03  0.91004692460E+02 0.  0.
         11    1    3    3    0    0  0.61239384275E+02  0.19214769142E+02  0.11288169749E+03  0.12985279037E+03  0.00000000000E+00 0.  1.
        -11    1    3    3    0    0  0.20905773269E+03  0.27622611043E+03  0.58240730375E+03  0.67764612235E+03  0.00000000000E+00 0. -1.
         22    1    1    2    0    0 -0.27029711696E+03 -0.29544087957E+03 -0.19765599810E+04  0.20167139616E+04  0.00000000000E+00 0.  1.
<mgrwt>
<rscale>  0 0.25168478E+04</rscale>
<asrwt>0</asrwt>
<pdfrwt beam="1">  1        1 0.11868784E+00 0.25168478E+04</pdfrwt>
<pdfrwt beam="2">  1       -1 0.31580644E+00 0.25168478E+04</pdfrwt>
<totfact> 0.54183949E-01</totfact>
</mgrwt>
</event>
<event>
 6    1  0.1585031E-006  0.3074203E+04  0.7818608E-02  0.8222854E-01
         -2   -1    0    0    0  501 -0.00000000000E+00  0.00000000000E+00  0.75707396509E+03  0.75707396509E+03  0.00000000000E+00 0. -1.
          2   -1    0    0  501    0  0.00000000000E+00 -0.00000000000E+00 -0.31208051721E+04  0.31208051721E+04  0.00000000000E+00 0.  1.
         23    2    1    2    0    0  0.14903878439E+04  0.37015134268E+03 -0.11483183628E+04  0.19194368165E+04  0.85642794019E+02 0.  0.
         11    1    3    3    0    0  0.43566292499E+03  0.88289000065E+02 -0.29078372272E+03  0.53118010612E+03  0.00000000000E+00 0. -1.
        -11    1    3    3    0    0  0.10547249189E+04  0.28186234262E+03 -0.85753464013E+03  0.13882567104E+04  0.00000000000E+00 0.  1.
         22    1    1    2    0    0 -0.14903878439E+04 -0.37015134268E+03 -0.12154128442E+04  0.19584423207E+04  0.00000000000E+00 0. -1.
<mgrwt>
<rscale>  0 0.30742026E+04</rscale>
<asrwt>0</asrwt>
<pdfrwt beam="1">  1        2 0.48012388E+00 0.30742026E+04</pdfrwt>
<pdfrwt beam="2">  1       -2 0.11647292E+00 0.30742026E+04</pdfrwt>
<totfact> 0.70914898E-01</totfact>
</mgrwt>
</event>
<event>
 6    1  0.1585031E-006  0.2497894E+04  0.7818608E-02  0.8403736E-01
         -1   -1    0    0    0  501 -0.00000000000E+00  0.00000000000E+00  0.96599081569E+03  0.96599081569E+03  0.00000000000E+00 0.  1.
          1   -1    0    0  501    0  0.00000000000E+00 -0.00000000000E+00 -0.16147856954E+04  0.16147856954E+04  0.00000000000E+00 0. -1.
         23    2    1    2    0    0  0.61718350252E+02 -0.85438568356E+03  0.61202797307E+03  0.10564870645E+04  0.88332477203E+02 0.  0.
         11    1    3    3    0    0  0.81804932332E+02 -0.54569465585E+03  0.38887624454E+03  0.67505513697E+03  0.00000000000E+00 0.  1.
        -11    1    3    3    0    0 -0.20086582080E+02 -0.30869102770E+03  0.22315172854E+03  0.38143192750E+03  0.00000000000E+00 0. -1.
         22    1    1    2    0    0 -0.61718350252E+02  0.85438568356E+03 -0.12608228528E+04  0.15242894466E+04  0.00000000000E+00 0. -1.
<mgrwt>
<rscale>  0 0.24978936E+04</rscale>
<asrwt>0</asrwt>
<pdfrwt beam="1">  1        1 0.24842857E+00 0.24978936E+04</pdfrwt>
<pdfrwt beam="2">  1       -1 0.14861397E+00 0.24978936E+04</pdfrwt>
<totfact> 0.17327897E+00</totfact>
</mgrwt>
</event>
<event>
 6    1  0.1585031E-006  0.7309149E+03  0.7818608E-02  0.9665777E-01
         -1   -1    0    0    0  501 -0.00000000000E+00  0.00000000000E+00  0.10210975964E+03  0.10210975964E+03  0.00000000000E+00 0.  1.
          1   -1    0    0  501    0  0.00000000000E+00 -0.00000000000E+00 -0.13079958996E+04  0.13079958996E+04  0.00000000000E+00 0. -1.
         23    2    1    2    0    0  0.32329210420E+03  0.99044779212E+02 -0.37803272173E+03  0.51586355835E+03  0.94227486488E+02 0.  0.
         13    1    3    3    0    0  0.81538206675E+02  0.60621980413E+02 -0.74864258994E+02  0.12620681809E+03  0.00000000000E+00 0.  1.
        -13    1    3    3    0    0  0.24175389752E+03  0.38422798799E+02 -0.30316846273E+03  0.38965674026E+03  0.00000000000E+00 0. -1.
         22    1    1    2    0    0 -0.32329210420E+03 -0.99044779212E+02 -0.82785341822E+03  0.89424210088E+03  0.00000000000E+00 0. -1.
<mgrwt>
<rscale>  0 0.73091490E+03</rscale>
<asrwt>0</asrwt>
<pdfrwt beam="1">  1        1 0.20123012E+00 0.73091490E+03</pdfrwt>
<pdfrwt beam="2">  1       -1 0.15709195E-01 0.73091490E+03</pdfrwt>
<totfact> 0.27666127E+02</totfact>
</mgrwt>
</event>
<event>
 6    1  0.1585031E-006  0.2538290E+04  0.7818608E-02  0.8389470E-01
         -2   -1    0    0    0  501 -0.00000000000E+00  0.00000000000E+00  0.89723077096E+03  0.89723077096E+03  0.00000000000E+00 0.  1.
          2   -1    0    0  501    0  0.00000000000E+00 -0.00000000000E+00 -0.17952233472E+04  0.17952233472E+04  0.00000000000E+00 0. -1.
         23    2    1    2    0    0 -0.64652642179E+03  0.89738037441E+03  0.20751980586E+03  0.11286620676E+04  0.86750461388E+02 0.  0.
         11    1    3    3    0    0 -0.37464526743E+03  0.48283091324E+03  0.15243856462E+03  0.62985893911E+03  0.00000000000E+00 0. -1.
        -11    1    3    3    0    0 -0.27188115437E+03  0.41454946117E+03  0.55081241238E+02  0.49880312849E+03  0.00000000000E+00 0.  1.
         22    1    1    2    0    0  0.64652642179E+03 -0.89738037441E+03 -0.11055123821E+04  0.15637920506E+04  0.00000000000E+00 0. -1.
<mgrwt>
<rscale>  0 0.25382905E+04</rscale>
<asrwt>0</asrwt>
<pdfrwt beam="1">  1        2 0.27618821E+00 0.25382905E+04</pdfrwt>
<pdfrwt beam="2">  1       -2 0.13803550E+00 0.25382905E+04</pdfrwt>
<totfact> 0.28761637E+00</totfact>
</mgrwt>
</event>
<event>
 6    1  0.1585031E-006  0.9582495E+03  0.7818608E-02  0.9355560E-01
          2   -1    0    0  501    0  0.00000000000E+00  0.00000000000E+00  0.12260722718E+04  0.12260722718E+04  0.00000000000E+00 0. -1.
         -2   -1    0    0    0  501 -0.00000000000E+00 -0.00000000000E+00 -0.18723245960E+03  0.18723245960E+03  0.00000000000E+00 0.  1.
         23    2    1    2    0    0  0.32962489158E+03  0.34205714298E+03  0.54368063177E+03  0.72712817092E+03  0.86435463581E+02 0.  0.
         11    1    3    3    0    0 -0.33229480456E+01  0.58719042223E+01  0.49746996865E+00  0.67652582567E+01  0.00000000000E+00 0.  1.
        -11    1    3    3    0    0  0.33294783962E+03  0.33618523876E+03  0.54318316180E+03  0.72036291266E+03  0.00000000000E+00 0. -1.
         22    1    1    2    0    0 -0.32962489158E+03 -0.34205714298E+03  0.49515918046E+03  0.68617656052E+03  0.00000000000E+00 0.  1.
<mgrwt>
<rscale>  0 0.95824950E+03</rscale>
<asrwt>0</asrwt>
<pdfrwt beam="1">  1        2 0.18862650E+00 0.95824950E+03</pdfrwt>
<pdfrwt beam="2">  1       -2 0.28804995E-01 0.95824950E+03</pdfrwt>
<totfact> 0.20189139E+02</totfact>
</mgrwt>
</event>
<event>
 6    1  0.1585031E-006  0.1974415E+04  0.7818608E-02  0.8618677E-01
         -2   -1    0    0    0  501 -0.00000000000E+00  0.00000000000E+00  0.51128876287E+03  0.51128876287E+03  0.00000000000E+00 0.  1.
          2   -1    0    0  501    0  0.00000000000E+00 -0.00000000000E+00 -0.19061226782E+04  0.19061226782E+04  0.00000000000E+00 0. -1.
         23    2    1    2    0    0  0.31371127417E+02  0.64888563352E+03  0.20783927768E+03  0.68807686481E+03  0.90641566179E+02 0.  0.
         11    1    3    3    0    0 -0.28038310659E+02  0.34741930911E+03  0.10380652152E+03  0.36367859041E+03  0.00000000000E+00 0. -1.
        -11    1    3    3    0    0  0.59409438076E+02  0.30146632441E+03  0.10403275616E+03  0.32439827441E+03  0.00000000000E+00 0.  1.
         22    1    1    2    0    0 -0.31371127417E+02 -0.64888563352E+03 -0.16026731930E+04  0.17293345762E+04  0.00000000000E+00 0. -1.
<mgrwt>
<rscale>  0 0.19744155E+04</rscale>
<asrwt>0</asrwt>
<pdfrwt beam="1">  1        2 0.29324965E+00 0.19744155E+04</pdfrwt>
<pdfrwt beam="2">  1       -2 0.78659808E-01 0.19744155E+04</pdfrwt>
<totfact> 0.10070020E+01</totfact>
</mgrwt>
</event>
<event>
 6    1  0.1585031E-006  0.1277157E+04  0.7818608E-02  0.9047878E-01
          2   -1    0    0  501    0  0.00000000000E+00  0.00000000000E+00  0.21107035145E+03  0.21107035145E+03  0.00000000000E+00 0. -1.
         -2   -1    0    0    0  501 -0.00000000000E+00 -0.00000000000E+00 -0.19319750070E+04  0.19319750070E+04  0.00000000000E+00 0.  1.
         23    2    1    2    0    0  0.21724863540E+03 -0.90234925362E+00 -0.18665167550E+04  0.18815101461E+04  0.94856995915E+02 0.  0.
         11    1    3    3    0    0  0.47749263251E+02 -0.36053147419E+02 -0.34168019337E+03  0.34687919529E+03  0.00000000000E+00 0. -1.
        -11    1    3    3    0    0  0.16949937215E+03  0.35150798165E+02 -0.15248365616E+04  0.15346309508E+04  0.00000000000E+00 0.  1.
         22    1    1    2    0    0 -0.21724863540E+03  0.90234925362E+00  0.14561209936E+03  0.26153521235E+03  0.00000000000E+00 0. -1.
<mgrwt>
<rscale>  0 0.12771572E+04</rscale>
<asrwt>0</asrwt>
<pdfrwt beam="1">  1        2 0.32472363E-01 0.12771572E+04</pdfrwt>
<pdfrwt beam="2">  1       -2 0.29722691E+00 0.12771572E+04</pdfrwt>
<totfact> 0.53166491E+00</totfact>
</mgrwt>
</event>
<event>
 6    1  0.1585031E-006  0.4646907E+04  0.7818608E-02  0.7885411E-01
          2   -1    0    0  501    0  0.00000000000E+00  0.00000000000E+00  0.37190021504E+04  0.37190021504E+04  0.00000000000E+00 0. -1.
         -2   -1    0    0    0  501 -0.00000000000E+00 -0.00000000000E+00 -0.14515819603E+04  0.14515819603E+04  0.00000000000E+00 0.  1.
         23    2    1    2    0    0  0.25167610323E+02  0.89719469467E+03  0.35177068432E+04  0.36314907270E+04  0.88722805868E+02 0.  0.
         13    1    3    3    0    0  0.45711869651E+02  0.33163610084E+03  0.12174619123E+04  0.12626502233E+04  0.00000000000E+00 0. -1.
        -13    1    3    3    0    0 -0.20544259328E+02  0.56555859382E+03  0.23002449309E+04  0.23688405037E+04  0.00000000000E+00 0.  1.
         22    1    1    2    0    0 -0.25167610323E+02 -0.89719469467E+03 -0.12502866531E+04  0.15390933837E+04  0.00000000000E+00 0.  1.
<mgrwt>
<rscale>  0 0.46469071E+04</rscale>
<asrwt>0</asrwt>
<pdfrwt beam="1">  1        2 0.57215417E+00 0.46469071E+04</pdfrwt>
<pdfrwt beam="2">  1       -2 0.22332030E+00 0.46469071E+04</pdfrwt>
<totfact> 0.39731321E-02</totfact>
</mgrwt>
</event>
<event>
 6    1  0.1585031E-006  0.2752565E+04  0.7818608E-02  0.8318148E-01
         -1   -1    0    0    0  501 -0.00000000000E+00  0.00000000000E+00  0.20625375072E+04  0.20625375072E+04  0.00000000000E+00 0.  1.
          1   -1    0    0  501    0  0.00000000000E+00 -0.00000000000E+00 -0.91836055183E+03  0.91836055183E+03  0.00000000000E+00 0. -1.
         23    2    1    2    0    0  0.16755432308E+03  0.30885624618E+03  0.20120685818E+04  0.20445741261E+04  0.91633767843E+02 0.  0.
         13    1    3    3    0    0  0.42260537656E+02  0.19333441868E+02  0.31867770908E+03  0.32204847039E+03  0.00000000000E+00 0.  1.
        -13    1    3    3    0    0  0.12529378542E+03  0.28952280432E+03  0.16933908727E+04  0.17225256557E+04  0.00000000000E+00 0. -1.
         22    1    1    2    0    0 -0.16755432308E+03 -0.30885624618E+03 -0.86789162646E+03  0.93632393287E+03  0.00000000000E+00 0. -1.
<mgrwt>
<rscale>  0 0.27525647E+04</rscale>
<asrwt>0</asrwt>
<pdfrwt beam="1">  1        1 0.14128624E+00 0.27525647E+04</pdfrwt>
<pdfrwt beam="2">  1       -1 0.31731346E+00 0.27525647E+04</pdfrwt>
<totfact> 0.38936304E-01</totfact>
</mgrwt>
</event>
<event>
 6    1  0.1585031E-006  0.1886339E+04  0.7818608E-02  0.8661686E-01
         -2   -1    0    0    0  501 -0.00000000000E+00  0.00000000000E+00  0.86851252380E+03  0.86851252380E+03  0.00000000000E+00 0.  1.
          2   -1    0    0  501    0  0.00000000000E+00 -0.00000000000E+00 -0.10242438371E+04  0.10242438371E+04  0.00000000000E+00 0. -1.
         23    2    1    2    0    0  0.97718458646E+02 -0.10647658549E+03 -0.10110346055E+04  0.10253291985E+04  0.90679828731E+02 0.  0.
         11    1    3    3    0    0  0.91800745696E+02 -0.87035444365E+02 -0.57185516566E+03  0.58567984085E+03  0.00000000000E+00 0.  1.
        -11    1    3    3    0    0  0.59177129496E+01 -0.19441141127E+02 -0.43917943983E+03  0.43964935763E+03  0.00000000000E+00 0. -1.
         22    1    1    2    0    0 -0.97718458646E+02  0.10647658549E+03  0.85530329221E+03  0.86742716241E+03  0.00000000000E+00 0.  1.
<mgrwt>
<rscale>  0 0.18863389E+04</rscale>
<asrwt>0</asrwt>
<pdfrwt beam="1">  1        2 0.15757597E+00 0.18863389E+04</pdfrwt>
<pdfrwt beam="2">  1       -2 0.13361731E+00 0.18863389E+04</pdfrwt>
<totfact> 0.92295314E+00</totfact>
</mgrwt>
</event>
<event>
 6    1  0.1585031E-006  0.8003381E+03  0.7818608E-02  0.9559528E-01
          1   -1    0    0  501    0  0.00000000000E+00  0.00000000000E+00  0.32174554893E+04  0.32174554893E+04  0.00000000000E+00 0. -1.
         -1   -1    0    0    0  501 -0.00000000000E+00 -0.00000000000E+00 -0.49770774805E+02  0.49770774805E+02  0.00000000000E+00 0.  1.
         23    2    1    2    0    0 -0.59675037886E+02  0.28595602510E+03  0.26900958998E+04  0.27073842914E+04  0.89340880782E+02 0.  0.
         11    1    3    3    0    0  0.50137228345E+01  0.13966192916E+03  0.15188883531E+04  0.15253040422E+04  0.00000000000E+00 0.  1.
        -11    1    3    3    0    0 -0.64688760720E+02  0.14629409594E+03  0.11712075467E+04  0.11820802493E+04  0.00000000000E+00 0. -1.
         22    1    1    2    0    0  0.59675037886E+02 -0.28595602510E+03  0.47758881471E+03  0.55984197268E+03  0.00000000000E+00 0.  1.
<mgrwt>
<rscale>  0 0.80033806E+03</rscale>
<asrwt>0</asrwt>
<pdfrwt beam="1">  1        1 0.49499299E+00 0.80033806E+03</pdfrwt>
<pdfrwt beam="2">  1       -1 0.76570448E-02 0.80033806E+03</pdfrwt>
<totfact> 0.41903632E+01</totfact>
</mgrwt>
</event>
<event>
 6    1  0.1585031E-006  0.5512735E+03  0.7818608E-02  0.1001200E+00
         -1   -1    0    0    0  501 -0.00000000000E+00  0.00000000000E+00  0.10183553882E+04  0.10183553882E+04  0.00000000000E+00 0.  1.
          1   -1    0    0  501    0  0.00000000000E+00 -0.00000000000E+00 -0.74606201020E+02  0.74606201020E+02  0.00000000000E+00 0. -1.
         23    2    1    2    0    0 -0.10713633549E+03 -0.55678011939E+02  0.95934975471E+03  0.97121754168E+03  0.91287052723E+02 0.  0.
         13    1    3    3    0    0 -0.75636919888E+01 -0.46857026302E+02  0.21440023228E+03  0.21959109716E+03  0.00000000000E+00 0. -1.
        -13    1    3    3    0    0 -0.99572643502E+02 -0.88209856372E+01  0.74494952244E+03  0.75162644452E+03  0.00000000000E+00 0.  1.
         22    1    1    2    0    0  0.10713633549E+03  0.55678011939E+02 -0.15600567566E+02  0.12174404751E+03  0.00000000000E+00 0. -1.
<mgrwt>
<rscale>  0 0.55127353E+03</rscale>
<asrwt>0</asrwt>
<pdfrwt beam="1">  1        1 0.11477878E-01 0.55127353E+03</pdfrwt>
<pdfrwt beam="2">  1       -1 0.15667005E+00 0.55127353E+03</pdfrwt>
<totfact> 0.17650120E+02</totfact>
</mgrwt>
</event>
<event>
 6    1  0.1585031E-006  0.1389027E+04  0.7818608E-02  0.8961800E-01
          4   -1    0    0  501    0  0.00000000000E+00  0.00000000000E+00  0.85586520188E+03  0.85586520188E+03  0.00000000000E+00 0. -1.
         -4   -1    0    0    0  501 -0.00000000000E+00 -0.00000000000E+00 -0.56358027023E+03  0.56358027023E+03  0.00000000000E+00 0.  1.
         23    2    1    2    0    0  0.12646892709E+03  0.56248256190E+03  0.53707352426E+03  0.79310492813E+03  0.90478917985E+02 0.  0.
         11    1    3    3    0    0  0.91621257381E+02  0.43488498193E+03  0.46177963375E+03  0.64090547857E+03  0.00000000000E+00 0. -1.
        -11    1    3    3    0    0  0.34847669713E+02  0.12759757996E+03  0.75293890508E+02  0.15219944956E+03  0.00000000000E+00 0.  1.
         22    1    1    2    0    0 -0.12646892709E+03 -0.56248256190E+03 -0.24478859261E+03  0.62634054398E+03  0.00000000000E+00 0.  1.
<mgrwt>
<rscale>  0 0.13890266E+04</rscale>
<asrwt>0</asrwt>
<pdfrwt beam="1">  1        4 0.13167157E+00 0.13890266E+04</pdfrwt>
<pdfrwt beam="2">  1       -4 0.86704657E-01 0.13890266E+04</pdfrwt>
<totfact> 0.94025767E-01</totfact>
</mgrwt>
</event>
<event>
 6    1  0.1585031E-006  0.1808234E+04  0.7818608E-02  0.8701933E-01
         -2   -1    0    0    0  501 -0.00000000000E+00  0.00000000000E+00  0.65791799563E+03  0.65791799563E+03  0.00000000000E+00 0.  1.
          2   -1    0    0  501    0  0.00000000000E+00 -0.00000000000E+00 -0.12424458322E+04  0.12424458322E+04  0.00000000000E+00 0. -1.
         23    2    1    2    0    0  0.80324207060E+03  0.38551423140E+03 -0.14656731374E+03  0.90757559958E+03  0.91610288158E+02 0.  0.
         11    1    3    3    0    0  0.45455653060E+03  0.20856819974E+03 -0.36938916320E+02  0.50148461291E+03  0.00000000000E+00 0. -1.
        -11    1    3    3    0    0  0.34868554000E+03  0.17694603166E+03 -0.10962839742E+03  0.40609098666E+03  0.00000000000E+00 0.  1.
         22    1    1    2    0    0 -0.80324207060E+03 -0.38551423140E+03 -0.43796052282E+03  0.99278822824E+03  0.00000000000E+00 0.  1.
<mgrwt>
<rscale>  0 0.18082339E+04</rscale>
<asrwt>0</asrwt>
<pdfrwt beam="1">  1        2 0.19114551E+00 0.18082339E+04</pdfrwt>
<pdfrwt beam="2">  1       -2 0.10121815E+00 0.18082339E+04</pdfrwt>
<totfact> 0.13533179E+01</totfact>
</mgrwt>
</event>
<event>
 6    1  0.1585031E-006  0.1540872E+04  0.7818608E-02  0.8857720E-01
         -1   -1    0    0    0  501 -0.00000000000E+00  0.00000000000E+00  0.57602040865E+03  0.57602040865E+03  0.00000000000E+00 0.  1.
          1   -1    0    0  501    0  0.00000000000E+00 -0.00000000000E+00 -0.10304693660E+04  0.10304693660E+04  0.00000000000E+00 0. -1.
         23    2    1    2    0    0 -0.70935940403E+03  0.29197000497E+03 -0.26782977254E+03  0.81701908615E+03  0.85733028530E+02 0.  0.
         13    1    3    3    0    0 -0.60967253582E+03  0.23346684464E+03 -0.19904499262E+03  0.68251467205E+03  0.00000000000E+00 0. -1.
        -13    1    3    3    0    0 -0.99686868207E+02  0.58503160327E+02 -0.68784779921E+02  0.13450441409E+03  0.00000000000E+00 0.  1.
         22    1    1    2    0    0  0.70935940403E+03 -0.29197000497E+03 -0.18661918482E+03  0.78947068852E+03  0.00000000000E+00 0. -1.
<mgrwt>
<rscale>  0 0.15408717E+04</rscale>
<asrwt>0</asrwt>
<pdfrwt beam="1">  1        1 0.15853375E+00 0.15408717E+04</pdfrwt>
<pdfrwt beam="2">  1       -1 0.88618525E-01 0.15408717E+04</pdfrwt>
<totfact> 0.17268861E+01</totfact>
</mgrwt>
</event>
<event>
 6    1  0.1585031E-006  0.1126275E+04  0.7818608E-02  0.9179954E-01
          1   -1    0    0  501    0  0.00000000000E+00  0.00000000000E+00  0.21171317894E+04  0.21171317894E+04  0.00000000000E+00 0. -1.
         -1   -1    0    0    0  501 -0.00000000000E+00 -0.00000000000E+00 -0.14978942436E+03  0.14978942436E+03  0.00000000000E+00 0.  1.
         23    2    1    2    0    0  0.37626262216E+03  0.23460163134E+03  0.16769658028E+04  0.17368928804E+04  0.89280949893E+02 0.  0.
         13    1    3    3    0    0  0.16796929408E+03  0.69674999495E+02  0.56098194793E+03  0.58971945467E+03  0.00000000000E+00 0. -1.
        -13    1    3    3    0    0  0.20829332808E+03  0.16492663185E+03  0.11159838548E+04  0.11471734257E+04  0.00000000000E+00 0.  1.
         22    1    1    2    0    0 -0.37626262216E+03 -0.23460163134E+03  0.29037656228E+03  0.53002833338E+03  0.00000000000E+00 0.  1.
<mgrwt>
<rscale>  0 0.11262752E+04</rscale>
<asrwt>0</asrwt>
<pdfrwt beam="1">  1        1 0.32571256E+00 0.11262752E+04</pdfrwt>
<pdfrwt beam="2">  1       -1 0.23044528E-01 0.11262752E+04</pdfrwt>
<totfact> 0.39881974E+01</totfact>
</mgrwt>
</event>
<event>
 6    1  0.1585031E-006  0.2234147E+04  0.7818608E-02  0.8504348E-01
         -1   -1    0    0    0  501 -0.00000000000E+00  0.00000000000E+00  0.90423901619E+03  0.90423901619E+03  0.00000000000E+00 0.  1.
          1   -1    0    0  501    0  0.00000000000E+00 -0.00000000000E+00 -0.13800042758E+04  0.13800042758E+04  0.00000000000E+00 0. -1.
         23    2    1    2    0    0 -0.28793099420E+02 -0.11125879902E+04 -0.17084047400E+03  0.11302674675E+04  0.98168233578E+02 0.  0.
         13    1    3    3    0    0  0.20411123319E+02 -0.76495872794E+02 -0.23562397615E+02  0.82603989559E+02  0.00000000000E+00 0.  1.
        -13    1    3    3    0    0 -0.49204222740E+02 -0.10360921174E+04 -0.14727807639E+03  0.10476634780E+04  0.00000000000E+00 0. -1.
         22    1    1    2    0    0  0.28793099420E+02  0.11125879902E+04 -0.30492478560E+03  0.11539758245E+04  0.00000000000E+00 0.  1.
<mgrwt>
<rscale>  0 0.22341475E+04</rscale>
<asrwt>0</asrwt>
<pdfrwt beam="1">  1        1 0.21230835E+00 0.22341475E+04</pdfrwt>
<pdfrwt beam="2">  1       -1 0.13911370E+00 0.22341475E+04</pdfrwt>
<totfact> 0.30746862E+00</totfact>
</mgrwt>
</event>
<event>
 6    1  0.1585031E-006  0.1711306E+04  0.7818608E-02  0.8754942E-01
          1   -1    0    0  501    0  0.00000000000E+00  0.00000000000E+00  0.96860543367E+03  0.96860543367E+03  0.00000000000E+00 0. -1.
         -1   -1    0    0    0  501 -0.00000000000E+00 -0.00000000000E+00 -0.75587248988E+03  0.75587248988E+03  0.00000000000E+00 0.  1.
         23    2    1    2    0    0  0.76783720184E+03  0.34931972592E+03 -0.22696478622E+02  0.84867814484E+03  0.90228731256E+02 0.  0.
         11    1    3    3    0    0  0.30715629810E+03  0.15491203112E+03  0.32881186780E+02  0.34557763425E+03  0.00000000000E+00 0.  1.
        -11    1    3    3    0    0  0.46068090375E+03  0.19440769480E+03 -0.55577665402E+02  0.50310051060E+03  0.00000000000E+00 0. -1.
         22    1    1    2    0    0 -0.76783720184E+03 -0.34931972592E+03  0.23542942241E+03  0.87579977871E+03  0.00000000000E+00 0. -1.
<mgrwt>
<rscale>  0 0.17113062E+04</rscale>
<asrwt>0</asrwt>
<pdfrwt beam="1">  1        1 0.14901622E+00 0.17113062E+04</pdfrwt>
<pdfrwt beam="2">  1       -1 0.11628807E+00 0.17113062E+04</pdfrwt>
<totfact> 0.10178551E+01</totfact>
</mgrwt>
</event>
<event>
 6    1  0.1585031E-006  0.1201396E+04  0.7818608E-02  0.9111636E-01
          2   -1    0    0  501    0  0.00000000000E+00  0.00000000000E+00  0.17762990644E+04  0.17762990644E+04  0.00000000000E+00 0. -1.
         -2   -1    0    0    0  501 -0.00000000000E+00 -0.00000000000E+00 -0.20314031962E+03  0.20314031962E+03  0.00000000000E+00 0.  1.
         23    2    1    2    0    0 -0.21777539058E+03  0.42684391350E+03  0.13784219033E+04  0.14621925526E+04  0.91314127802E+02 0.  0.
         11    1    3    3    0    0 -0.12874048976E+03  0.15389924973E+03  0.55528364757E+03  0.59042274857E+03  0.00000000000E+00 0.  1.
        -11    1    3    3    0    0 -0.89034900820E+02  0.27294466377E+03  0.82313825576E+03  0.87176980399E+03  0.00000000000E+00 0. -1.
         22    1    1    2    0    0  0.21777539058E+03 -0.42684391350E+03  0.19473684143E+03  0.51724683145E+03  0.00000000000E+00 0.  1.
<mgrwt>
<rscale>  0 0.12013958E+04</rscale>
<asrwt>0</asrwt>
<pdfrwt beam="1">  1        2 0.27327677E+00 0.12013958E+04</pdfrwt>
<pdfrwt beam="2">  1       -2 0.31252358E-01 0.12013958E+04</pdfrwt>
<totfact> 0.83359413E+01</totfact>
</mgrwt>
</event>
<event>
 6    1  0.1585031E-006  0.5315474E+04  0.7818608E-02  0.7781603E-01
          2   -1    0    0  501    0  0.00000000000E+00  0.00000000000E+00  0.19825524846E+04  0.19825524846E+04  0.00000000000E+00 0. -1.
         -2   -1    0    0    0  501 -0.00000000000E+00 -0.00000000000E+00 -0.35628650632E+04  0.35628650632E+04  0.00000000000E+00 0.  1.
         23    2    1    2    0    0 -0.15789410189E+04 -0.14886783350E+04 -0.23897890789E+04  0.32292849673E+04  0.89283997690E+02 0.  0.
         11    1    3    3    0    0 -0.24536795998E+03 -0.27663186848E+03 -0.41619065774E+03  0.55672730311E+03  0.00000000000E+00 0.  1.
        -11    1    3    3    0    0 -0.13335730589E+04 -0.12120464666E+04 -0.19735984211E+04  0.26725576642E+04  0.00000000000E+00 0. -1.
         22    1    1    2    0    0  0.15789410189E+04  0.14886783350E+04  0.80947650028E+03  0.23161325806E+04  0.00000000000E+00 0. -1.
<mgrwt>
<rscale>  0 0.53154744E+04</rscale>
<asrwt>0</asrwt>
<pdfrwt beam="1">  1        2 0.30500807E+00 0.53154744E+04</pdfrwt>
<pdfrwt beam="2">  1       -2 0.54813309E+00 0.53154744E+04</pdfrwt>
<totfact> 0.42888722E-03</totfact>
</mgrwt>
</event>
<event>
 6    1  0.1585031E-006  0.1430954E+04  0.7818608E-02  0.8931712E-01
          2   -1    0    0  501    0  0.00000000000E+00  0.00000000000E+00  0.18511265780E+04  0.18511265780E+04  0.00000000000E+00 0. -1.
         -2   -1    0    0    0  501 -0.00000000000E+00 -0.00000000000E+00 -0.27653817968E+03  0.27653817968E+03  0.00000000000E+00 0.  1.
         23    2    1    2    0    0 -0.19831418633E+02  0.60918619928E+03  0.24166499570E+03  0.66199565866E+03  0.91297159723E+02 0.  0.
         11    1    3    3    0    0  0.31047321406E+02  0.38155641450E+03  0.14110116790E+03  0.40799359456E+03  0.00000000000E+00 0. -1.
        -11    1    3    3    0    0 -0.50878740040E+02  0.22762978478E+03  0.10056382780E+03  0.25400206410E+03  0.00000000000E+00 0.  1.
         22    1    1    2    0    0  0.19831418633E+02 -0.60918619928E+03  0.13329234026E+04  0.14656690990E+04  0.00000000000E+00 0.  1.
<mgrwt>
<rscale>  0 0.14309538E+04</rscale>
<asrwt>0</asrwt>
<pdfrwt beam="1">  1        2 0.28478870E+00 0.14309538E+04</pdfrwt>
<pdfrwt beam="2">  1       -2 0.42544336E-01 0.14309538E+04</pdfrwt>
<totfact> 0.41114962E+01</totfact>
</mgrwt>
</event>
<event>
 6    1  0.1585031E-006  0.2190085E+04  0.7818608E-02  0.8522566E-01
         -2   -1    0    0    0  501 -0.00000000000E+00  0.00000000000E+00  0.70828989788E+03  0.70828989788E+03  0.00000000000E+00 0.  1.
          2   -1    0    0  501    0  0.00000000000E+00 -0.00000000000E+00 -0.16929757995E+04  0.16929757995E+04  0.00000000000E+00 0. -1.
         23    2    1    2    0    0 -0.10305564034E+04  0.20596043872E+03 -0.16404903138E+03  0.10678823782E+04  0.94839264500E+02 0.  0.
         11    1    3    3    0    0 -0.92248166577E+03  0.19724755387E+03 -0.12034178667E+03  0.95097905698E+03  0.00000000000E+00 0.  1.
        -11    1    3    3    0    0 -0.10807473767E+03  0.87128848491E+01 -0.43707244703E+02  0.11690332127E+03  0.00000000000E+00 0. -1.
         22    1    1    2    0    0  0.10305564034E+04 -0.20596043872E+03 -0.82063687027E+03  0.13333833192E+04  0.00000000000E+00 0.  1.
<mgrwt>
<rscale>  0 0.21900846E+04</rscale>
<asrwt>0</asrwt>
<pdfrwt beam="1">  1        2 0.26045781E+00 0.21900846E+04</pdfrwt>
<pdfrwt beam="2">  1       -2 0.10896768E+00 0.21900846E+04</pdfrwt>
<totfact> 0.60854295E+00</totfact>
</mgrwt>
</event>
<event>
 6    1  0.1585031E-006  0.2838384E+04  0.7818608E-02  0.8291450E-01
          2   -1    0    0  501    0  0.00000000000E+00  0.00000000000E+00  0.13643497269E+04  0.13643497269E+04  0.00000000000E+00 0. -1.
         -2   -1    0    0    0  501 -0.00000000000E+00 -0.00000000000E+00 -0.14762384785E+04  0.14762384785E+04  0.00000000000E+00 0.  1.
         23    2    1    2    0    0 -0.71962826935E+03 -0.70267071526E+03  0.94354914048E+03  0.13826581233E+04  0.99234697503E+02 0.  0.
         11    1    3    3    0    0 -0.43713772528E+03 -0.35802247296E+03  0.52513827345E+03  0.77138815667E+03  0.00000000000E+00 0. -1.
        -11    1    3    3    0    0 -0.28249054407E+03 -0.34464824230E+03  0.41841086703E+03  0.61126996660E+03  0.00000000000E+00 0.  1.
         22    1    1    2    0    0  0.71962826935E+03  0.70267071526E+03 -0.10554378921E+04  0.14579300821E+04  0.00000000000E+00 0.  1.
<mgrwt>
<rscale>  0 0.28383837E+04</rscale>
<asrwt>0</asrwt>
<pdfrwt beam="1">  1        2 0.20989996E+00 0.28383837E+04</pdfrwt>
<pdfrwt beam="2">  1       -2 0.22711361E+00 0.28383837E+04</pdfrwt>
<totfact> 0.11729555E+00</totfact>
</mgrwt>
</event>
<event>
 6    1  0.1585031E-006  0.1545708E+04  0.7818608E-02  0.8854614E-01
         -2   -1    0    0    0  501 -0.00000000000E+00  0.00000000000E+00  0.38673781688E+03  0.38673781688E+03  0.00000000000E+00 0.  1.
          2   -1    0    0  501    0  0.00000000000E+00 -0.00000000000E+00 -0.15444647592E+04  0.15444647592E+04  0.00000000000E+00 0. -1.
         23    2    1    2    0    0 -0.39023517542E+03  0.13745116295E+03  0.23062956576E+03  0.48251002489E+03  0.91921777526E+02 0.  0.
         13    1    3    3    0    0 -0.29215402500E+03  0.58996583341E+02  0.16851312609E+03  0.34239048590E+03  0.00000000000E+00 0.  1.
        -13    1    3    3    0    0 -0.98081150425E+02  0.78454579610E+02  0.62116439671E+02  0.14011953899E+03  0.00000000000E+00 0. -1.
         22    1    1    2    0    0  0.39023517542E+03 -0.13745116295E+03 -0.13883565080E+04  0.14486925511E+04  0.00000000000E+00 0. -1.
<mgrwt>
<rscale>  0 0.15457075E+04</rscale>
<asrwt>0</asrwt>
<pdfrwt beam="1">  1        2 0.23760996E+00 0.15457075E+04</pdfrwt>
<pdfrwt beam="2">  1       -2 0.59498126E-01 0.15457075E+04</pdfrwt>
<totfact> 0.30411609E+01</totfact>
</mgrwt>
</event>
<event>
 6    1  0.1585031E-006  0.2956195E+04  0.7818608E-02  0.8256351E-01
         -1   -1    0    0    0  501 -0.00000000000E+00  0.00000000000E+00  0.11886363636E+04  0.11886363636E+04  0.00000000000E+00 0.  1.
          1   -1    0    0  501    0  0.00000000000E+00 -0.00000000000E+00 -0.18380497359E+04  0.18380497359E+04  0.00000000000E+00 0. -1.
         23    2    1    2    0    0 -0.31796124967E+03 -0.43052517959E+03 -0.17340639498E+04  0.18171745610E+04  0.93243319361E+02 0.  0.
         11    1    3    3    0    0 -0.17170949774E+03 -0.28425914957E+03 -0.11768157196E+04  0.12227766164E+04  0.00000000000E+00 0. -1.
        -11    1    3    3    0    0 -0.14625175193E+03 -0.14626603002E+03 -0.55724823019E+03  0.59439794459E+03  0.00000000000E+00 0.  1.
         22    1    1    2    0    0  0.31796124967E+03  0.43052517959E+03  0.10846505775E+04  0.12095115386E+04  0.00000000000E+00 0.  1.
<mgrwt>
<rscale>  0 0.29561954E+04</rscale>
<asrwt>0</asrwt>
<pdfrwt beam="1">  1        1 0.28277688E+00 0.29561954E+04</pdfrwt>
<pdfrwt beam="2">  1       -1 0.18286713E+00 0.29561954E+04</pdfrwt>
<totfact> 0.65089025E-01</totfact>
</mgrwt>
</event>
<event>
 6    1  0.1585031E-006  0.1989695E+04  0.7818608E-02  0.8611454E-01
          1   -1    0    0  501    0  0.00000000000E+00  0.00000000000E+00  0.36274952187E+04  0.36274952187E+04  0.00000000000E+00 0. -1.
         -1   -1    0    0    0  501 -0.00000000000E+00 -0.00000000000E+00 -0.27283890421E+03  0.27283890421E+03  0.00000000000E+00 0.  1.
         23    2    1    2    0    0 -0.70783210472E+03  0.69573841994E+03  0.17426001939E+04  0.20072405770E+04  0.85329132836E+02 0.  0.
         13    1    3    3    0    0 -0.36002261507E+03  0.29597158830E+03  0.83639262504E+03  0.95748007168E+03  0.00000000000E+00 0. -1.
        -13    1    3    3    0    0 -0.34780948965E+03  0.39976683163E+03  0.90620756885E+03  0.10497605054E+04  0.00000000000E+00 0.  1.
         22    1    1    2    0    0  0.70783210472E+03 -0.69573841994E+03  0.16120561206E+04  0.18930935459E+04  0.00000000000E+00 0. -1.
<mgrwt>
<rscale>  0 0.19896953E+04</rscale>
<asrwt>0</asrwt>
<pdfrwt beam="1">  1        1 0.55807615E+00 0.19896953E+04</pdfrwt>
<pdfrwt beam="2">  1       -1 0.41975219E-01 0.19896953E+04</pdfrwt>
<totfact> 0.10284659E+00</totfact>
</mgrwt>
</event>
<event>
 6    1  0.1585031E-006  0.1779327E+04  0.7818608E-02  0.8717371E-01
          1   -1    0    0  501    0  0.00000000000E+00  0.00000000000E+00  0.11632469294E+04  0.11632469294E+04  0.00000000000E+00 0. -1.
         -1   -1    0    0    0  501 -0.00000000000E+00 -0.00000000000E+00 -0.68042430265E+03  0.68042430265E+03  0.00000000000E+00 0.  1.
         23    2    1    2    0    0  0.46422585840E+03  0.35875628164E+03 -0.44783206654E+03  0.74352129891E+03  0.89769955388E+02 0.  0.
         11    1    3    3    0    0  0.28732810343E+03  0.21994282845E+03 -0.32967284141E+03  0.48950635254E+03  0.00000000000E+00 0.  1.
        -11    1    3    3    0    0  0.17689775497E+03  0.13881345319E+03 -0.11815922513E+03  0.25401494638E+03  0.00000000000E+00 0. -1.
         22    1    1    2    0    0 -0.46422585840E+03 -0.35875628164E+03  0.93065469330E+03  0.11001499331E+04  0.00000000000E+00 0. -1.
<mgrwt>
<rscale>  0 0.17793274E+04</rscale>
<asrwt>0</asrwt>
<pdfrwt beam="1">  1        1 0.17896107E+00 0.17793274E+04</pdfrwt>
<pdfrwt beam="2">  1       -1 0.10468066E+00 0.17793274E+04</pdfrwt>
<totfact> 0.92184485E+00</totfact>
</mgrwt>
</event>
<event>
 6    1  0.1585031E-006  0.2610775E+04  0.7818608E-02  0.8364550E-01
         -1   -1    0    0    0  501 -0.00000000000E+00  0.00000000000E+00  0.87852983110E+03  0.87852983110E+03  0.00000000000E+00 0.  1.
          1   -1    0    0  501    0  0.00000000000E+00 -0.00000000000E+00 -0.19396454647E+04  0.19396454647E+04  0.00000000000E+00 0. -1.
         23    2    1    2    0    0 -0.31695757883E+03 -0.81514248463E+03  0.51301591377E+03  0.10173950467E+04  0.83594116531E+02 0.  0.
         11    1    3    3    0    0 -0.17816837961E+03 -0.51453316932E+03  0.35916553916E+03  0.65229459475E+03  0.00000000000E+00 0.  1.
        -11    1    3    3    0    0 -0.13878919923E+03 -0.30060931531E+03  0.15385037460E+03  0.36510045199E+03  0.00000000000E+00 0. -1.
         22    1    1    2    0    0  0.31695757883E+03  0.81514248463E+03 -0.15741315474E+04  0.18007802491E+04  0.00000000000E+00 0. -1.
<mgrwt>
<rscale>  0 0.26107749E+04</rscale>
<asrwt>0</asrwt>
<pdfrwt beam="1">  1        1 0.29840699E+00 0.26107749E+04</pdfrwt>
<pdfrwt beam="2">  1       -1 0.13515844E+00 0.26107749E+04</pdfrwt>
<totfact> 0.13232076E+00</totfact>
</mgrwt>
</event>
<event>
 6    1  0.1585031E-006  0.1398154E+04  0.7818608E-02  0.8955156E-01
          2   -1    0    0  501    0  0.00000000000E+00  0.00000000000E+00  0.12439087873E+04  0.12439087873E+04  0.00000000000E+00 0. -1.
         -2   -1    0    0    0  501 -0.00000000000E+00 -0.00000000000E+00 -0.39288116743E+03  0.39288116743E+03  0.00000000000E+00 0.  1.
         23    2    1    2    0    0  0.48286163848E+02  0.51804174715E+03  0.96864521888E+03  0.11033738835E+04  0.91986745449E+02 0.  0.
         11    1    3    3    0    0  0.25370792151E+02  0.33537438321E+03  0.71293018654E+03  0.78828237637E+03  0.00000000000E+00 0. -1.
        -11    1    3    3    0    0  0.22915371697E+02  0.18266736393E+03  0.25571503233E+03  0.31509150713E+03  0.00000000000E+00 0.  1.
         22    1    1    2    0    0 -0.48286163848E+02 -0.51804174715E+03 -0.11761759904E+03  0.53341607120E+03  0.00000000000E+00 0.  1.
<mgrwt>
<rscale>  0 0.13981535E+04</rscale>
<asrwt>0</asrwt>
<pdfrwt beam="1">  1        2 0.19137058E+00 0.13981535E+04</pdfrwt>
<pdfrwt beam="2">  1       -2 0.60443257E-01 0.13981535E+04</pdfrwt>
<totfact> 0.44267349E+01</totfact>
</mgrwt>
</event>
<event>
 6    1  0.1585031E-006  0.1449804E+04  0.7818608E-02  0.8918536E-01
         -1   -1    0    0    0  501 -0.00000000000E+00  0.00000000000E+00  0.66182992345E+03  0.66182992345E+03  0.00000000000E+00 0.  1.
          1   -1    0    0  501    0  0.00000000000E+00 -0.00000000000E+00 -0.79398500081E+03  0.79398500081E+03  0.00000000000E+00 0. -1.
         23    2    1    2    0    0  0.14877679632E+03 -0.69118724184E+03  0.81866442433E+02  0.71711366574E+03  0.87610255014E+02 0.  0.
         11    1    3    3    0    0  0.15221858013E+03 -0.55877290458E+03  0.53079693709E+02  0.58156264402E+03  0.00000000000E+00 0.  1.
        -11    1    3    3    0    0 -0.34417838070E+01 -0.13241433726E+03  0.28786748723E+02  0.13555102172E+03  0.00000000000E+00 0. -1.
         22    1    1    2    0    0 -0.14877679632E+03  0.69118724184E+03 -0.21402151980E+03  0.73870125852E+03  0.00000000000E+00 0.  1.
<mgrwt>
<rscale>  0 0.14498042E+04</rscale>
<asrwt>0</asrwt>
<pdfrwt beam="1">  1        1 0.12215154E+00 0.14498042E+04</pdfrwt>
<pdfrwt beam="2">  1       -1 0.10181999E+00 0.14498042E+04</pdfrwt>
<totfact> 0.19881899E+01</totfact>
</mgrwt>
</event>
<event>
 6    1  0.1585031E-006  0.5530467E+03  0.7818608E-02  0.1000791E+00
         -1   -1    0    0    0  501 -0.00000000000E+00  0.00000000000E+00  0.58230864172E+03  0.58230864172E+03  0.00000000000E+00 0.  1.
          1   -1    0    0  501    0  0.00000000000E+00 -0.00000000000E+00 -0.13131381065E+03  0.13131381065E+03  0.00000000000E+00 0. -1.
         23    2    1    2    0    0 -0.25974360800E+03  0.69704682761E+02  0.22729261529E+03  0.36381083729E+03  0.91492664564E+02 0.  0.
         11    1    3    3    0    0 -0.16075741271E+03  0.38529819377E+02  0.80054480618E+02  0.18367420230E+03  0.00000000000E+00 0. -1.
        -11    1    3    3    0    0 -0.98986195286E+02  0.31174863384E+02  0.14723813467E+03  0.18013663499E+03  0.00000000000E+00 0.  1.
         22    1    1    2    0    0  0.25974360800E+03 -0.69704682761E+02  0.22370221579E+03  0.34981161508E+03  0.00000000000E+00 0. -1.
<mgrwt>
<rscale>  0 0.55304671E+03</rscale>
<asrwt>0</asrwt>
<pdfrwt beam="1">  1        1 0.20202125E-01 0.55304671E+03</pdfrwt>
<pdfrwt beam="2">  1       -1 0.89585944E-01 0.55304671E+03</pdfrwt>
<totfact> 0.32100238E+02</totfact>
</mgrwt>
</event>
<event>
 6    1  0.1585031E-006  0.2078698E+04  0.7818608E-02  0.8570686E-01
         -2   -1    0    0    0  501 -0.00000000000E+00  0.00000000000E+00  0.10945695987E+04  0.10945695987E+04  0.00000000000E+00 0.  1.
          2   -1    0    0  501    0  0.00000000000E+00 -0.00000000000E+00 -0.98691379224E+03  0.98691379224E+03  0.00000000000E+00 0. -1.
         23    2    1    2    0    0  0.45723646624E+03 -0.32746526819E+03 -0.81890661022E+03  0.99759382096E+03  0.91031353978E+02 0.  0.
         13    1    3    3    0    0  0.27975117963E+03 -0.22005372442E+03 -0.44332891601E+03  0.56852870808E+03  0.00000000000E+00 0.  1.
        -13    1    3    3    0    0  0.17748528661E+03 -0.10741154377E+03 -0.37557769421E+03  0.42906511288E+03  0.00000000000E+00 0. -1.
         22    1    1    2    0    0 -0.45723646624E+03  0.32746526819E+03  0.92656241672E+03  0.10838895700E+04  0.00000000000E+00 0.  1.
<mgrwt>
<rscale>  0 0.20786975E+04</rscale>
<asrwt>0</asrwt>
<pdfrwt beam="1">  1        2 0.15183289E+00 0.20786975E+04</pdfrwt>
<pdfrwt beam="2">  1       -2 0.16839532E+00 0.20786975E+04</pdfrwt>
<totfact> 0.51873636E+00</totfact>
</mgrwt>
</event>
<event>
 6    1  0.1585031E-006  0.3146793E+04  0.7818608E-02  0.8203012E-01
         -2   -1    0    0    0  501 -0.00000000000E+00  0.00000000000E+00  0.53497779450E+03  0.53497779450E+03  0.00000000000E+00 0.  1.
          2   -1    0    0  501    0  0.00000000000E+00 -0.00000000000E+00 -0.46274368719E+04  0.46274368719E+04  0.00000000000E+00 0. -1.
         23    2    1    2    0    0 -0.67003745818E+01  0.77774880630E+03 -0.42892315967E+04  0.43601319699E+04  0.91131797518E+02 0.  0.
         13    1    3    3    0    0 -0.24001201615E+02  0.81135064598E+02 -0.38308696764E+03  0.39231948863E+03  0.00000000000E+00 0. -1.
        -13    1    3    3    0    0  0.17300827034E+02  0.69661374170E+03 -0.39061446290E+04  0.39678124813E+04  0.00000000000E+00 0.  1.
         22    1    1    2    0    0  0.67003745818E+01 -0.77774880630E+03  0.19677251928E+03  0.80228269647E+03  0.00000000000E+00 0.  1.
<mgrwt>
<rscale>  0 0.31467926E+04</rscale>
<asrwt>0</asrwt>
<pdfrwt beam="1">  1        2 0.71191337E+00 0.31467926E+04</pdfrwt>
<pdfrwt beam="2">  1       -2 0.82304275E-01 0.31467926E+04</pdfrwt>
<totfact> 0.10014475E-01</totfact>
</mgrwt>
</event>
<event>
 6    1  0.1585031E-006  0.1886054E+04  0.7818608E-02  0.8661829E-01
          4   -1    0    0  501    0  0.00000000000E+00  0.00000000000E+00  0.57362243963E+03  0.57362243963E+03  0.00000000000E+00 0. -1.
         -4   -1    0    0    0  501 -0.00000000000E+00 -0.00000000000E+00 -0.15503230445E+04  0.15503230445E+04  0.00000000000E+00 0.  1.
         23    2    1    2    0    0  0.83993252285E+03 -0.39998462322E+03 -0.33186363327E+03  0.99200508744E+03  0.92012394099E+02 0.  0.
         13    1    3    3    0    0  0.50032902427E+03 -0.27950468460E+03 -0.23005530194E+03  0.61755764362E+03  0.00000000000E+00 0. -1.
        -13    1    3    3    0    0  0.33960349858E+03 -0.12047993862E+03 -0.10180833134E+03  0.37444744383E+03  0.00000000000E+00 0.  1.
         22    1    1    2    0    0 -0.83993252285E+03  0.39998462322E+03 -0.64483697163E+03  0.11319403967E+04  0.00000000000E+00 0.  1.
<mgrwt>
<rscale>  0 0.18860542E+04</rscale>
<asrwt>0</asrwt>
<pdfrwt beam="1">  1        4 0.88249606E-01 0.18860542E+04</pdfrwt>
<pdfrwt beam="2">  1       -4 0.23851124E+00 0.18860542E+04</pdfrwt>
<totfact> 0.15485722E-01</totfact>
</mgrwt>
</event>
<event>
 6    1  0.1585031E-006  0.1441870E+04  0.7818608E-02  0.8924056E-01
          1   -1    0    0  501    0  0.00000000000E+00  0.00000000000E+00  0.94070454868E+03  0.94070454868E+03  0.00000000000E+00 0. -1.
         -1   -1    0    0    0  501 -0.00000000000E+00 -0.00000000000E+00 -0.55250884748E+03  0.55250884748E+03  0.00000000000E+00 0.  1.
         23    2    1    2    0    0 -0.27241083671E+03 -0.63064737363E+03  0.41061523659E+03  0.80588057328E+03  0.94418494147E+02 0.  0.
         11    1    3    3    0    0 -0.16365818500E+03 -0.29575166283E+03  0.24041375737E+03  0.41479129972E+03  0.00000000000E+00 0. -1.
        -11    1    3    3    0    0 -0.10875265171E+03 -0.33489571080E+03  0.17020147922E+03  0.39108927356E+03  0.00000000000E+00 0.  1.
         22    1    1    2    0    0  0.27241083671E+03  0.63064737363E+03 -0.22419535391E+02  0.68733282287E+03  0.00000000000E+00 0.  1.
<mgrwt>
<rscale>  0 0.14418704E+04</rscale>
<asrwt>0</asrwt>
<pdfrwt beam="1">  1        1 0.14472378E+00 0.14418704E+04</pdfrwt>
<pdfrwt beam="2">  1       -1 0.85001361E-01 0.14418704E+04</pdfrwt>
<totfact> 0.22441680E+01</totfact>
</mgrwt>
</event>
<event>
 6    1  0.1585031E-006  0.1706015E+04  0.7818608E-02  0.8757941E-01
          2   -1    0    0  501    0  0.00000000000E+00  0.00000000000E+00  0.78268684490E+03  0.78268684490E+03  0.00000000000E+00 0. -1.
         -2   -1    0    0    0  501 -0.00000000000E+00 -0.00000000000E+00 -0.92964630356E+03  0.92964630356E+03  0.00000000000E+00 0.  1.
         23    2    1    2    0    0  0.73694172346E+02 -0.69457461408E+03  0.41352311121E+03  0.81678558598E+03  0.90953858623E+02 0.  0.
         11    1    3    3    0    0  0.78466006249E+02 -0.38275876643E+03  0.25883915095E+03  0.46867781415E+03  0.00000000000E+00 0. -1.
        -11    1    3    3    0    0 -0.47718339028E+01 -0.31181584765E+03  0.15468396026E+03  0.34810777182E+03  0.00000000000E+00 0.  1.
         22    1    1    2    0    0 -0.73694172346E+02  0.69457461408E+03 -0.56048256986E+03  0.89554756248E+03  0.00000000000E+00 0.  1.
<mgrwt>
<rscale>  0 0.17060152E+04</rscale>
<asrwt>0</asrwt>
<pdfrwt beam="1">  1        2 0.12041336E+00 0.17060152E+04</pdfrwt>
<pdfrwt beam="2">  1       -2 0.14302251E+00 0.17060152E+04</pdfrwt>
<totfact> 0.11452785E+01</totfact>
</mgrwt>
</event>
<event>
 6    1  0.1585031E-006  0.1625677E+04  0.7818608E-02  0.8804927E-01
          1   -1    0    0  501    0  0.00000000000E+00  0.00000000000E+00  0.61170058721E+03  0.61170058721E+03  0.00000000000E+00 0. -1.
         -1   -1    0    0    0  501 -0.00000000000E+00 -0.00000000000E+00 -0.10801147204E+04  0.10801147204E+04  0.00000000000E+00 0.  1.
         23    2    1    2    0    0 -0.17582678129E+03  0.76963861840E+03 -0.45634102655E+02  0.79626987929E+03  0.93298388978E+02 0.  0.
         13    1    3    3    0    0 -0.60622389214E+02  0.35814250882E+03  0.20733435124E+02  0.36382826447E+03  0.00000000000E+00 0. -1.
        -13    1    3    3    0    0 -0.11520439207E+03  0.41149610958E+03 -0.66367537779E+02  0.43244161481E+03  0.00000000000E+00 0.  1.
         22    1    1    2    0    0  0.17582678129E+03 -0.76963861840E+03 -0.42278003050E+03  0.89554542829E+03  0.00000000000E+00 0.  1.
<mgrwt>
<rscale>  0 0.16256775E+04</rscale>
<asrwt>0</asrwt>
<pdfrwt beam="1">  1        1 0.94107783E-01 0.16256775E+04</pdfrwt>
<pdfrwt beam="2">  1       -1 0.16617149E+00 0.16256775E+04</pdfrwt>
<totfact> 0.83744771E+00</totfact>
</mgrwt>
</event>
<event>
 6    1  0.1585031E-006  0.8583669E+03  0.7818608E-02  0.9479175E-01
         -2   -1    0    0    0  501 -0.00000000000E+00  0.00000000000E+00  0.19141860849E+03  0.19141860849E+03  0.00000000000E+00 0.  1.
          2   -1    0    0  501    0  0.00000000000E+00 -0.00000000000E+00 -0.96228077994E+03  0.96228077994E+03  0.00000000000E+00 0. -1.
         23    2    1    2    0    0 -0.21294766262E+03 -0.34625736907E+03 -0.55347258875E+03  0.69272313814E+03  0.91063532575E+02 0.  0.
         11    1    3    3    0    0 -0.78191917623E+02 -0.54884614190E+02 -0.12434541238E+03  0.15680586225E+03  0.00000000000E+00 0. -1.
        -11    1    3    3    0    0 -0.13475574500E+03 -0.29137275488E+03 -0.42912717637E+03  0.53591727589E+03  0.00000000000E+00 0.  1.
         22    1    1    2    0    0  0.21294766262E+03  0.34625736907E+03 -0.21738958270E+03  0.46097625028E+03  0.00000000000E+00 0. -1.
<mgrwt>
<rscale>  0 0.85836693E+03</rscale>
<asrwt>0</asrwt>
<pdfrwt beam="1">  1        2 0.14804319E+00 0.85836693E+03</pdfrwt>
<pdfrwt beam="2">  1       -2 0.29449018E-01 0.85836693E+03</pdfrwt>
<totfact> 0.28360968E+02</totfact>
</mgrwt>
</event>
<event>
 6    1  0.1585031E-006  0.2185876E+04  0.7818608E-02  0.8524330E-01
          1   -1    0    0  501    0  0.00000000000E+00  0.00000000000E+00  0.70885245368E+03  0.70885245368E+03  0.00000000000E+00 0. -1.
         -1   -1    0    0    0  501 -0.00000000000E+00 -0.00000000000E+00 -0.16851366356E+04  0.16851366356E+04  0.00000000000E+00 0.  1.
         23    2    1    2    0    0 -0.57130736209E+03  0.40393263286E+03 -0.14057705784E+04  0.15730066056E+04  0.92764154174E+02 0.  0.
         13    1    3    3    0    0 -0.43332074963E+03  0.25593009947E+03 -0.10193309001E+04  0.11367948680E+04  0.00000000000E+00 0.  1.
        -13    1    3    3    0    0 -0.13798661246E+03  0.14800253339E+03 -0.38643967824E+03  0.43621173761E+03  0.00000000000E+00 0. -1.
         22    1    1    2    0    0  0.57130736209E+03 -0.40393263286E+03  0.42948639643E+03  0.82098248373E+03  0.00000000000E+00 0. -1.
<mgrwt>
<rscale>  0 0.21858758E+04</rscale>
<asrwt>0</asrwt>
<pdfrwt beam="1">  1        1 0.10905422E+00 0.21858758E+04</pdfrwt>
<pdfrwt beam="2">  1       -1 0.25925179E+00 0.21858758E+04</pdfrwt>
<totfact> 0.14803545E+00</totfact>
</mgrwt>
</event>
<event>
 6    1  0.1585031E-006  0.2562909E+04  0.7818608E-02  0.8380910E-01
         -1   -1    0    0    0  501 -0.00000000000E+00  0.00000000000E+00  0.51438490427E+03  0.51438490427E+03  0.00000000000E+00 0.  1.
          1   -1    0    0  501    0  0.00000000000E+00 -0.00000000000E+00 -0.31924074201E+04  0.31924074201E+04  0.00000000000E+00 0. -1.
         23    2    1    2    0    0 -0.98753106519E+03  0.57187097028E+03 -0.21787278048E+04  0.24611803383E+04  0.91103231908E+02 0.  0.
         11    1    3    3    0    0 -0.55961668960E+03  0.28577901108E+03 -0.11308343776E+04  0.12936873161E+04  0.00000000000E+00 0. -1.
        -11    1    3    3    0    0 -0.42791437559E+03  0.28609195921E+03 -0.10478934273E+04  0.11674930222E+04  0.00000000000E+00 0.  1.
         22    1    1    2    0    0  0.98753106519E+03 -0.57187097028E+03 -0.49929471103E+03  0.12456119861E+04  0.00000000000E+00 0.  1.
<mgrwt>
<rscale>  0 0.25629094E+04</rscale>
<asrwt>0</asrwt>
<pdfrwt beam="1">  1        1 0.49113960E+00 0.25629094E+04</pdfrwt>
<pdfrwt beam="2">  1       -1 0.79136139E-01 0.25629094E+04</pdfrwt>
<totfact> 0.60752979E-01</totfact>
</mgrwt>
</event>
<event>
 6    1  0.1585031E-006  0.2017182E+04  0.7818608E-02  0.8598629E-01
         -2   -1    0    0    0  501 -0.00000000000E+00  0.00000000000E+00  0.35118755789E+03  0.35118755789E+03  0.00000000000E+00 0.  1.
          2   -1    0    0  501    0  0.00000000000E+00 -0.00000000000E+00 -0.28966167518E+04  0.28966167518E+04  0.00000000000E+00 0. -1.
         23    2    1    2    0    0  0.62606591411E+03 -0.52100237428E+03 -0.22278014499E+04  0.23735678505E+04  0.85574750331E+02 0.  0.
         13    1    3    3    0    0  0.44769546577E+03 -0.32277510063E+03 -0.14671902875E+04  0.15675657355E+04  0.00000000000E+00 0. -1.
        -13    1    3    3    0    0  0.17837044834E+03 -0.19822727365E+03 -0.76061116247E+03  0.80600211497E+03  0.00000000000E+00 0.  1.
         22    1    1    2    0    0 -0.62606591411E+03  0.52100237428E+03 -0.31762774399E+03  0.87423645919E+03  0.00000000000E+00 0.  1.
<mgrwt>
<rscale>  0 0.20171820E+04</rscale>
<asrwt>0</asrwt>
<pdfrwt beam="1">  1        2 0.44563333E+00 0.20171820E+04</pdfrwt>
<pdfrwt beam="2">  1       -2 0.54028857E-01 0.20171820E+04</pdfrwt>
<totfact> 0.60534207E+00</totfact>
</mgrwt>
</event>
<event>
 6    1  0.1585031E-006  0.1810408E+04  0.7818608E-02  0.8700784E-01
         -2   -1    0    0    0  501 -0.00000000000E+00  0.00000000000E+00  0.55895697554E+03  0.55895697554E+03  0.00000000000E+00 0.  1.
          2   -1    0    0  501    0  0.00000000000E+00 -0.00000000000E+00 -0.14659343067E+04  0.14659343067E+04  0.00000000000E+00 0. -1.
         23    2    1    2    0    0  0.71228776230E+03  0.43993065290E+01 -0.10753657256E+04  0.12929569535E+04  0.89179760054E+02 0.  0.
         13    1    3    3    0    0  0.51260439856E+03  0.42892888886E+02 -0.76057265614E+03  0.91819052196E+03  0.00000000000E+00 0. -1.
        -13    1    3    3    0    0  0.19968336374E+03 -0.38493582357E+02 -0.31479306949E+03  0.37476643158E+03  0.00000000000E+00 0.  1.
         22    1    1    2    0    0 -0.71228776230E+03 -0.43993065290E+01  0.16838839444E+03  0.73193432875E+03  0.00000000000E+00 0. -1.
<mgrwt>
<rscale>  0 0.18104079E+04</rscale>
<asrwt>0</asrwt>
<pdfrwt beam="1">  1        2 0.22552835E+00 0.18104079E+04</pdfrwt>
<pdfrwt beam="2">  1       -2 0.85993382E-01 0.18104079E+04</pdfrwt>
<totfact> 0.14688722E+01</totfact>
</mgrwt>
</event>
<event>
 6    1  0.1585031E-006  0.4310436E+04  0.7818608E-02  0.7944691E-01
         -1   -1    0    0    0  501 -0.00000000000E+00  0.00000000000E+00  0.22091313785E+04  0.22091313785E+04  0.00000000000E+00 0. -1.
          1   -1    0    0  501    0  0.00000000000E+00 -0.00000000000E+00 -0.21026200845E+04  0.21026200845E+04  0.00000000000E+00 0.  1.
         23    2    1    2    0    0  0.17881292201E+04  0.34256816902E+03 -0.10986078579E+04  0.21283890953E+04  0.91333768244E+02 0.  0.
         11    1    3    3    0    0  0.85496899343E+03  0.20546043029E+03 -0.55365488476E+03  0.10390956162E+04  0.00000000000E+00 0. -1.
        -11    1    3    3    0    0  0.93316022667E+03  0.13710773873E+03 -0.54495297316E+03  0.10892934791E+04  0.00000000000E+00 0.  1.
         22    1    1    2    0    0 -0.17881292201E+04 -0.34256816902E+03  0.12051191520E+04  0.21833623677E+04  0.00000000000E+00 0. -1.
<mgrwt>
<rscale>  0 0.43104357E+04</rscale>
<asrwt>0</asrwt>
<pdfrwt beam="1">  1        1 0.32348001E+00 0.43104357E+04</pdfrwt>
<pdfrwt beam="2">  1       -1 0.33986637E+00 0.43104357E+04</pdfrwt>
<totfact> 0.35110276E-02</totfact>
</mgrwt>
</event>
<event>
 6    1  0.1585031E-006  0.3170097E+04  0.7818608E-02  0.8196759E-01
         -2   -1    0    0    0  501 -0.00000000000E+00  0.00000000000E+00  0.18688841595E+04  0.18688841595E+04  0.00000000000E+00 0.  1.
          2   -1    0    0  501    0  0.00000000000E+00 -0.00000000000E+00 -0.13443202081E+04  0.13443202081E+04  0.00000000000E+00 0. -1.
         23    2    1    2    0    0  0.65750966146E+03 -0.76582675493E+02  0.17208164559E+04  0.18460160428E+04  0.91553778635E+02 0.  0.
         13    1    3    3    0    0  0.19117099918E+03 -0.67263977787E+01  0.60905061312E+03  0.63838408869E+03  0.00000000000E+00 0. -1.
        -13    1    3    3    0    0  0.46633866229E+03 -0.69856277714E+02  0.11117658427E+04  0.12076319541E+04  0.00000000000E+00 0.  1.
         22    1    1    2    0    0 -0.65750966146E+03  0.76582675493E+02 -0.11962525044E+04  0.13671883248E+04  0.00000000000E+00 0. -1.
<mgrwt>
<rscale>  0 0.31700970E+04</rscale>
<asrwt>0</asrwt>
<pdfrwt beam="1">  1        2 0.20681849E+00 0.31700970E+04</pdfrwt>
<pdfrwt beam="2">  1       -2 0.28752064E+00 0.31700970E+04</pdfrwt>
<totfact> 0.49824146E-01</totfact>
</mgrwt>
</event>
<event>
 6    1  0.1585031E-006  0.8810654E+03  0.7818608E-02  0.9449565E-01
          2   -1    0    0  501    0  0.00000000000E+00  0.00000000000E+00  0.16874145540E+04  0.16874145540E+04  0.00000000000E+00 0. -1.
         -2   -1    0    0    0  501 -0.00000000000E+00 -0.00000000000E+00 -0.11500970753E+03  0.11500970753E+03  0.00000000000E+00 0.  1.
         23    2    1    2    0    0  0.43529244472E+03  0.17023922697E+02  0.76923622714E+03  0.88872345851E+03  0.91299979109E+02 0.  0.
         11    1    3    3    0    0  0.22517463856E+03 -0.30858068788E+02  0.43990121566E+03  0.49514535017E+03  0.00000000000E+00 0.  1.
        -11    1    3    3    0    0  0.21011780616E+03  0.47881991485E+02  0.32933501148E+03  0.39357810833E+03  0.00000000000E+00 0. -1.
         22    1    1    2    0    0 -0.43529244472E+03 -0.17023922697E+02  0.80316861935E+03  0.91370080304E+03  0.00000000000E+00 0.  1.
<mgrwt>
<rscale>  0 0.88106539E+03</rscale>
<asrwt>0</asrwt>
<pdfrwt beam="1">  1        2 0.25960222E+00 0.88106539E+03</pdfrwt>
<pdfrwt beam="2">  1       -2 0.17693802E-01 0.88106539E+03</pdfrwt>
<totfact> 0.26529834E+02</totfact>
</mgrwt>
</event>
<event>
 6    1  0.1585031E-006  0.7338680E+03  0.7818608E-02  0.9661004E-01
          1   -1    0    0  501    0  0.00000000000E+00  0.00000000000E+00  0.68061671720E+02  0.68061671720E+02  0.00000000000E+00 0. -1.
         -1   -1    0    0    0  501 -0.00000000000E+00 -0.00000000000E+00 -0.19782141102E+04  0.19782141102E+04  0.00000000000E+00 0.  1.
         23    2    1    2    0    0  0.68790025676E+02 -0.33253880557E+03 -0.62014382130E+03  0.71232062629E+03  0.86649816494E+02 0.  0.
         13    1    3    3    0    0  0.48069374587E+02 -0.20915861209E+03 -0.30223520316E+03  0.37068060081E+03  0.00000000000E+00 0. -1.
        -13    1    3    3    0    0  0.20720651090E+02 -0.12338019348E+03 -0.31790861814E+03  0.34164002548E+03  0.00000000000E+00 0.  1.
         22    1    1    2    0    0 -0.68790025676E+02  0.33253880557E+03 -0.12900086172E+04  0.13339551556E+04  0.00000000000E+00 0.  1.
<mgrwt>
<rscale>  0 0.73386800E+03</rscale>
<asrwt>0</asrwt>
<pdfrwt beam="1">  1        1 0.10471028E-01 0.73386800E+03</pdfrwt>
<pdfrwt beam="2">  1       -1 0.30434060E+00 0.73386800E+03</pdfrwt>
<totfact> 0.20360221E+01</totfact>
</mgrwt>
</event>
<event>
 6    1  0.1585031E-006  0.4135967E+04  0.7818608E-02  0.7977666E-01
          2   -1    0    0  501    0  0.00000000000E+00  0.00000000000E+00  0.21240669840E+04  0.21240669840E+04  0.00000000000E+00 0. -1.
         -2   -1    0    0    0  501 -0.00000000000E+00 -0.00000000000E+00 -0.20133807398E+04  0.20133807398E+04  0.00000000000E+00 0.  1.
         23    2    1    2    0    0  0.21707882390E+02  0.12223164939E+04  0.17226459872E+04  0.21143453892E+04  0.91751753234E+02 0.  0.
         11    1    3    3    0    0  0.51399170278E+02  0.66283240771E+03  0.89542205406E+03  0.11152440676E+04  0.00000000000E+00 0.  1.
        -11    1    3    3    0    0 -0.29691287888E+02  0.55948408616E+03  0.82722393318E+03  0.99910132162E+03  0.00000000000E+00 0. -1.
         22    1    1    2    0    0 -0.21707882390E+02 -0.12223164939E+04 -0.16119597430E+04  0.20231023346E+04  0.00000000000E+00 0.  1.
<mgrwt>
<rscale>  0 0.41359669E+04</rscale>
<asrwt>0</asrwt>
<pdfrwt beam="1">  1        2 0.32677953E+00 0.41359669E+04</pdfrwt>
<pdfrwt beam="2">  1       -2 0.30975088E+00 0.41359669E+04</pdfrwt>
<totfact> 0.12309056E-01</totfact>
</mgrwt>
</event>
<event>
 6    1  0.1585031E-006  0.2614000E+04  0.7818608E-02  0.8363461E-01
          2   -1    0    0  501    0  0.00000000000E+00  0.00000000000E+00  0.18559353338E+04  0.18559353338E+04  0.00000000000E+00 0. -1.
         -2   -1    0    0    0  501 -0.00000000000E+00 -0.00000000000E+00 -0.92042502414E+03  0.92042502414E+03  0.00000000000E+00 0.  1.
         23    2    1    2    0    0 -0.12290150699E+04 -0.20526189266E+03  0.88135425991E+03  0.15291461164E+04  0.94297545942E+02 0.  0.
         11    1    3    3    0    0 -0.58094258129E+03 -0.50366782060E+02  0.42327627985E+03  0.72055111170E+03  0.00000000000E+00 0. -1.
        -11    1    3    3    0    0 -0.64807248862E+03 -0.15489511060E+03  0.45807798006E+03  0.80859500469E+03  0.00000000000E+00 0.  1.
         22    1    1    2    0    0  0.12290150699E+04  0.20526189266E+03  0.54156049775E+02  0.12472142416E+04  0.00000000000E+00 0.  1.
<mgrwt>
<rscale>  0 0.26140002E+04</rscale>
<asrwt>0</asrwt>
<pdfrwt beam="1">  1        2 0.28552851E+00 0.26140002E+04</pdfrwt>
<pdfrwt beam="2">  1       -2 0.14160385E+00 0.26140002E+04</pdfrwt>
<totfact> 0.24749980E+00</totfact>
</mgrwt>
</event>
<event>
 6    1  0.1585031E-006  0.5829162E+03  0.7818608E-02  0.9941497E-01
         -1   -1    0    0    0  501 -0.00000000000E+00  0.00000000000E+00  0.63644650877E+03  0.63644650877E+03  0.00000000000E+00 0.  1.
          1   -1    0    0  501    0  0.00000000000E+00 -0.00000000000E+00 -0.13347207128E+03  0.13347207128E+03  0.00000000000E+00 0. -1.
         23    2    1    2    0    0 -0.13923417845E+03 -0.21420590485E+03  0.92460778503E+02  0.28639837331E+03  0.90579835228E+02 0.  0.
         13    1    3    3    0    0 -0.22564730501E+02 -0.27126935249E+01 -0.89607690199E+01  0.24429923254E+02  0.00000000000E+00 0. -1.
        -13    1    3    3    0    0 -0.11666944795E+03 -0.21149321132E+03  0.10142154752E+03  0.26196845005E+03  0.00000000000E+00 0.  1.
         22    1    1    2    0    0  0.13923417845E+03  0.21420590485E+03  0.41051365899E+03  0.48352020675E+03  0.00000000000E+00 0.  1.
<mgrwt>
<rscale>  0 0.58291623E+03</rscale>
<asrwt>0</asrwt>
<pdfrwt beam="1">  1        1 0.20534165E-01 0.58291623E+03</pdfrwt>
<pdfrwt beam="2">  1       -1 0.97914846E-01 0.58291623E+03</pdfrwt>
<totfact> 0.25771070E+02</totfact>
</mgrwt>
</event>
<event>
 6    1  0.1585031E-006  0.2267329E+04  0.7818608E-02  0.8490915E-01
         -1   -1    0    0    0  501 -0.00000000000E+00  0.00000000000E+00  0.88904323967E+03  0.88904323967E+03  0.00000000000E+00 0.  1.
          1   -1    0    0  501    0  0.00000000000E+00 -0.00000000000E+00 -0.14455931837E+04  0.14455931837E+04  0.00000000000E+00 0. -1.
         23    2    1    2    0    0  0.10927307549E+03  0.81951665496E+03 -0.10749191689E+04  0.13588009833E+04  0.85678117130E+02 0.  0.
         13    1    3    3    0    0  0.28195942280E+01  0.33415691094E+03 -0.44411303445E+03  0.55579238805E+03  0.00000000000E+00 0. -1.
        -13    1    3    3    0    0  0.10645348126E+03  0.48535974401E+03 -0.63080613447E+03  0.80300859527E+03  0.00000000000E+00 0.  1.
         22    1    1    2    0    0 -0.10927307549E+03 -0.81951665496E+03  0.51836922489E+03  0.97583544007E+03  0.00000000000E+00 0.  1.
<mgrwt>
<rscale>  0 0.22673287E+04</rscale>
<asrwt>0</asrwt>
<pdfrwt beam="1">  1        1 0.22239895E+00 0.22673287E+04</pdfrwt>
<pdfrwt beam="2">  1       -1 0.13677588E+00 0.22673287E+04</pdfrwt>
<totfact> 0.28818431E+00</totfact>
</mgrwt>
</event>
<event>
 6    1  0.1585031E-006  0.3507002E+04  0.7818608E-02  0.8112132E-01
          1   -1    0    0  501    0  0.00000000000E+00  0.00000000000E+00  0.24625732401E+04  0.24625732401E+04  0.00000000000E+00 0. -1.
         -1   -1    0    0    0  501 -0.00000000000E+00 -0.00000000000E+00 -0.12485989839E+04  0.12485989839E+04  0.00000000000E+00 0.  1.
         23    2    1    2    0    0 -0.65844903979E+03 -0.15524669910E+04  0.11108946216E+04  0.20216946990E+04  0.97230136387E+02 0.  0.
         11    1    3    3    0    0 -0.32705076113E+03 -0.88592959374E+03  0.64261300054E+03  0.11422718214E+04  0.00000000000E+00 0. -1.
        -11    1    3    3    0    0 -0.33139827867E+03 -0.66653739729E+03  0.46828162111E+03  0.87942287766E+03  0.00000000000E+00 0.  1.
         22    1    1    2    0    0  0.65844903979E+03  0.15524669910E+04  0.10307963451E+03  0.16894775249E+04  0.00000000000E+00 0.  1.
<mgrwt>
<rscale>  0 0.35070024E+04</rscale>
<asrwt>0</asrwt>
<pdfrwt beam="1">  1        1 0.37885742E+00 0.35070024E+04</pdfrwt>
<pdfrwt beam="2">  1       -1 0.19209215E+00 0.35070024E+04</pdfrwt>
<totfact> 0.20029331E-01</totfact>
</mgrwt>
</event>
<event>
 6    1  0.1585031E-006  0.2405599E+04  0.7818608E-02  0.8437410E-01
          1   -1    0    0  501    0  0.00000000000E+00  0.00000000000E+00  0.19487121449E+04  0.19487121449E+04  0.00000000000E+00 0. -1.
         -1   -1    0    0    0  501 -0.00000000000E+00 -0.00000000000E+00 -0.74240143383E+03  0.74240143383E+03  0.00000000000E+00 0.  1.
         23    2    1    2    0    0  0.75368517118E+03 -0.91912448629E+03  0.41151357743E+03  0.12612416816E+04  0.92498629531E+02 0.  0.
         11    1    3    3    0    0  0.10794215130E+03 -0.17376333237E+03  0.94752638922E+02  0.22544016121E+03  0.00000000000E+00 0. -1.
        -11    1    3    3    0    0  0.64574301989E+03 -0.74536115392E+03  0.31676093851E+03  0.10358015204E+04  0.00000000000E+00 0.  1.
         22    1    1    2    0    0 -0.75368517118E+03  0.91912448629E+03  0.79479713368E+03  0.14298718971E+04  0.00000000000E+00 0.  1.
<mgrwt>
<rscale>  0 0.24055990E+04</rscale>
<asrwt>0</asrwt>
<pdfrwt beam="1">  1        1 0.29980187E+00 0.24055990E+04</pdfrwt>
<pdfrwt beam="2">  1       -1 0.11421561E+00 0.24055990E+04</pdfrwt>
<totfact> 0.20175562E+00</totfact>
</mgrwt>
</event>
<event>
 6    1  0.1585031E-006  0.1060021E+04  0.7818608E-02  0.9245059E-01
          1   -1    0    0  501    0  0.00000000000E+00  0.00000000000E+00  0.77762071007E+03  0.77762071007E+03  0.00000000000E+00 0. -1.
         -1   -1    0    0    0  501 -0.00000000000E+00 -0.00000000000E+00 -0.36124451850E+03  0.36124451850E+03  0.00000000000E+00 0.  1.
         23    2    1    2    0    0 -0.14897429347E+02  0.48136749660E+03  0.43731732137E+03  0.65681219094E+03  0.90659883178E+02 0.  0.
         11    1    3    3    0    0  0.17581938508E+02  0.30650696073E+03  0.32168167770E+03  0.44467374928E+03  0.00000000000E+00 0.  1.
        -11    1    3    3    0    0 -0.32479367856E+02  0.17486053587E+03  0.11563564367E+03  0.21213844166E+03  0.00000000000E+00 0. -1.
         22    1    1    2    0    0  0.14897429347E+02 -0.48136749660E+03 -0.20941129799E+02  0.48205303764E+03  0.00000000000E+00 0.  1.
<mgrwt>
<rscale>  0 0.10600212E+04</rscale>
<asrwt>0</asrwt>
<pdfrwt beam="1">  1        1 0.11963395E+00 0.10600212E+04</pdfrwt>
<pdfrwt beam="2">  1       -1 0.55576080E-01 0.10600212E+04</pdfrwt>
<totfact> 0.75666400E+01</totfact>
</mgrwt>
</event>
<event>
 6    1  0.1585031E-006  0.5447247E+04  0.7818608E-02  0.7762990E-01
         -1   -1    0    0    0  501 -0.00000000000E+00  0.00000000000E+00  0.18746954648E+04  0.18746954648E+04  0.00000000000E+00 0.  1.
          1   -1    0    0  501    0  0.00000000000E+00 -0.00000000000E+00 -0.39569761695E+04  0.39569761695E+04  0.00000000000E+00 0. -1.
         23    2    1    2    0    0  0.36283302053E+03 -0.24968268079E+04  0.54642044585E+02  0.25252792278E+04  0.90870875088E+02 0.  0.
         13    1    3    3    0    0  0.35171148276E+03 -0.22322181768E+04  0.55418730464E+02  0.22604358411E+04  0.00000000000E+00 0. -1.
        -13    1    3    3    0    0  0.11121537768E+02 -0.26460863111E+03 -0.77668587884E+00  0.26484338674E+03  0.00000000000E+00 0.  1.
         22    1    1    2    0    0 -0.36283302053E+03  0.24968268079E+04 -0.21369227493E+04  0.33063924065E+04  0.00000000000E+00 0. -1.
<mgrwt>
<rscale>  0 0.54472471E+04</rscale>
<asrwt>0</asrwt>
<pdfrwt beam="1">  1        1 0.60876556E+00 0.54472471E+04</pdfrwt>
<pdfrwt beam="2">  1       -1 0.28841469E+00 0.54472471E+04</pdfrwt>
<totfact> 0.28542316E-03</totfact>
</mgrwt>
</event>
<event>
 6    1  0.1585031E-006  0.3294536E+04  0.7818608E-02  0.8164287E-01
         -2   -1    0    0    0  501 -0.00000000000E+00  0.00000000000E+00  0.27059967535E+04  0.27059967535E+04  0.00000000000E+00 0.  1.
          2   -1    0    0  501    0  0.00000000000E+00 -0.00000000000E+00 -0.10027700963E+04  0.10027700963E+04  0.00000000000E+00 0. -1.
         23    2    1    2    0    0 -0.12302320943E+04 -0.10217638347E+04  0.41272445426E+03  0.16538049826E+04  0.85188645420E+02 0.  0.
         13    1    3    3    0    0 -0.33147116730E+03 -0.29818321309E+03  0.15024963485E+03  0.47049050585E+03  0.00000000000E+00 0. -1.
        -13    1    3    3    0    0 -0.89876092704E+03 -0.72358062165E+03  0.26247481941E+03  0.11833144767E+04  0.00000000000E+00 0.  1.
         22    1    1    2    0    0  0.12302320943E+04  0.10217638347E+04  0.12905022029E+04  0.20549618672E+04  0.00000000000E+00 0.  1.
<mgrwt>
<rscale>  0 0.32945365E+04</rscale>
<asrwt>0</asrwt>
<pdfrwt beam="1">  1        2 0.15427232E+00 0.32945365E+04</pdfrwt>
<pdfrwt beam="2">  1       -2 0.41630719E+00 0.32945365E+04</pdfrwt>
<totfact> 0.12143329E-01</totfact>
</mgrwt>
</event>
<event>
 6    1  0.1585031E-006  0.2955852E+04  0.7818608E-02  0.8256451E-01
          2   -1    0    0  501    0  0.00000000000E+00  0.00000000000E+00  0.39154369063E+04  0.39154369063E+04  0.00000000000E+00 0. -1.
         -2   -1    0    0    0  501 -0.00000000000E+00 -0.00000000000E+00 -0.55785979839E+03  0.55785979839E+03  0.00000000000E+00 0.  1.
         23    2    1    2    0    0  0.51966240581E+03  0.55225184299E+03  0.35976987657E+04  0.36778788745E+04  0.91244136392E+02 0.  0.
         11    1    3    3    0    0  0.92855507796E+02  0.58295536130E+02  0.59815153600E+03  0.60811658001E+03  0.00000000000E+00 0. -1.
        -11    1    3    3    0    0  0.42680689802E+03  0.49395630686E+03  0.29995472297E+04  0.30697622945E+04  0.00000000000E+00 0.  1.
         22    1    1    2    0    0 -0.51966240581E+03 -0.55225184299E+03 -0.24012165779E+03  0.79541783022E+03  0.00000000000E+00 0.  1.
<mgrwt>
<rscale>  0 0.29558517E+04</rscale>
<asrwt>0</asrwt>
<pdfrwt beam="1">  1        2 0.60237489E+00 0.29558517E+04</pdfrwt>
<pdfrwt beam="2">  1       -2 0.85824587E-01 0.29558517E+04</pdfrwt>
<totfact> 0.40461117E-01</totfact>
</mgrwt>
</event>
<event>
 6    1  0.1585031E-006  0.2590001E+04  0.7818608E-02  0.8371606E-01
          2   -1    0    0  501    0  0.00000000000E+00  0.00000000000E+00  0.20629691034E+04  0.20629691034E+04  0.00000000000E+00 0.  1.
         -2   -1    0    0    0  501 -0.00000000000E+00 -0.00000000000E+00 -0.81291875890E+03  0.81291875890E+03  0.00000000000E+00 0. -1.
         23    2    1    2    0    0 -0.88898977417E+03 -0.74101076490E+03  0.12669520089E+04  0.17184400499E+04  0.92027386197E+02 0.  0.
         11    1    3    3    0    0 -0.59692959173E+03 -0.53293690194E+03  0.92245238064E+03  0.12211736459E+04  0.00000000000E+00 0. -1.
        -11    1    3    3    0    0 -0.29206018244E+03 -0.20807386296E+03  0.34449962826E+03  0.49726640394E+03  0.00000000000E+00 0.  1.
         22    1    1    2    0    0  0.88898977417E+03  0.74101076490E+03 -0.16901664389E+02  0.11574478125E+04  0.00000000000E+00 0. -1.
<mgrwt>
<rscale>  0 0.25900010E+04</rscale>
<asrwt>0</asrwt>
<pdfrwt beam="1">  1        2 0.31737986E+00 0.25900010E+04</pdfrwt>
<pdfrwt beam="2">  1       -2 0.12506442E+00 0.25900010E+04</pdfrwt>
<totfact> 0.26124622E+00</totfact>
</mgrwt>
</event>
<event>
 6    1  0.1585031E-006  0.1440820E+04  0.7818608E-02  0.8924790E-01
          1   -1    0    0  501    0  0.00000000000E+00  0.00000000000E+00  0.19456039618E+04  0.19456039618E+04  0.00000000000E+00 0. -1.
         -1   -1    0    0    0  501 -0.00000000000E+00 -0.00000000000E+00 -0.26675041019E+03  0.26675041019E+03  0.00000000000E+00 0.  1.
         23    2    1    2    0    0  0.41510993187E+03  0.21294561316E+03  0.16795123879E+04  0.17458112081E+04  0.97122724365E+02 0.  0.
         13    1    3    3    0    0  0.13860347451E+03  0.30673723016E+02  0.60436669496E+03  0.62081470859E+03  0.00000000000E+00 0. -1.
        -13    1    3    3    0    0  0.27650645736E+03  0.18227189015E+03  0.10751456929E+04  0.11249964995E+04  0.00000000000E+00 0.  1.
         22    1    1    2    0    0 -0.41510993187E+03 -0.21294561316E+03 -0.65883627700E+00  0.46654316388E+03  0.00000000000E+00 0.  1.
<mgrwt>
<rscale>  0 0.14408201E+04</rscale>
<asrwt>0</asrwt>
<pdfrwt beam="1">  1        1 0.29932368E+00 0.14408201E+04</pdfrwt>
<pdfrwt beam="2">  1       -1 0.41038526E-01 0.14408201E+04</pdfrwt>
<totfact> 0.18335011E+01</totfact>
</mgrwt>
</event>
<event>
 6    1  0.1585031E-006  0.3932007E+04  0.7818608E-02  0.8018405E-01
          2   -1    0    0  501    0  0.00000000000E+00  0.00000000000E+00  0.22693464655E+04  0.22693464655E+04  0.00000000000E+00 0. -1.
         -2   -1    0    0    0  501 -0.00000000000E+00 -0.00000000000E+00 -0.17032082405E+04  0.17032082405E+04  0.00000000000E+00 0.  1.
         23    2    1    2    0    0 -0.51464174630E+03 -0.12360558527E+04  0.17361978961E+04  0.21944293359E+04  0.91906352136E+02 0.  0.
         13    1    3    3    0    0 -0.44762471640E+03 -0.11417563605E+04  0.15888805087E+04  0.20071165249E+04  0.00000000000E+00 0.  1.
        -13    1    3    3    0    0 -0.67017029899E+02 -0.94299492226E+02  0.14731738742E+03  0.18731281100E+03  0.00000000000E+00 0. -1.
         22    1    1    2    0    0  0.51464174630E+03  0.12360558527E+04 -0.11700596710E+04  0.17781253701E+04  0.00000000000E+00 0.  1.
<mgrwt>
<rscale>  0 0.39320069E+04</rscale>
<asrwt>0</asrwt>
<pdfrwt beam="1">  1        2 0.34913023E+00 0.39320069E+04</pdfrwt>
<pdfrwt beam="2">  1       -2 0.26203204E+00 0.39320069E+04</pdfrwt>
<totfact> 0.20295159E-01</totfact>
</mgrwt>
</event>
<event>
 6    1  0.1585031E-006  0.1125355E+04  0.7818608E-02  0.9180826E-01
          1   -1    0    0  501    0  0.00000000000E+00  0.00000000000E+00  0.93091332352E+03  0.93091332352E+03  0.00000000000E+00 0. -1.
         -1   -1    0    0    0  501 -0.00000000000E+00 -0.00000000000E+00 -0.34010246769E+03  0.34010246769E+03  0.00000000000E+00 0.  1.
         23    2    1    2    0    0 -0.41328912964E+03 -0.37362159835E+03  0.24553918403E+03  0.61556668504E+03  0.90729539839E+02 0.  0.
         13    1    3    3    0    0 -0.26580824739E+03 -0.25236874912E+03  0.11449961979E+03  0.38399762088E+03  0.00000000000E+00 0. -1.
        -13    1    3    3    0    0 -0.14748088225E+03 -0.12125284924E+03  0.13103956424E+03  0.23156906416E+03  0.00000000000E+00 0.  1.
         22    1    1    2    0    0  0.41328912964E+03  0.37362159835E+03  0.34527167180E+03  0.65544910617E+03  0.00000000000E+00 0.  1.
<mgrwt>
<rscale>  0 0.11253549E+04</rscale>
<asrwt>0</asrwt>
<pdfrwt beam="1">  1        1 0.14321743E+00 0.11253549E+04</pdfrwt>
<pdfrwt beam="2">  1       -1 0.52323457E-01 0.11253549E+04</pdfrwt>
<totfact> 0.62838614E+01</totfact>
</mgrwt>
</event>
<event>
 6    1  0.1585031E-006  0.1545055E+04  0.7818608E-02  0.8855033E-01
          1   -1    0    0  501    0  0.00000000000E+00  0.00000000000E+00  0.11235995813E+04  0.11235995813E+04  0.00000000000E+00 0. -1.
         -1   -1    0    0    0  501 -0.00000000000E+00 -0.00000000000E+00 -0.53114880645E+03  0.53114880645E+03  0.00000000000E+00 0.  1.
         23    2    1    2    0    0  0.16652876469E+03  0.13528710017E+03  0.10891073036E+04  0.11137288534E+04  0.90569372701E+02 0.  0.
         11    1    3    3    0    0  0.16565044710E+03  0.11314483376E+03  0.83929527086E+03  0.86293590475E+03  0.00000000000E+00 0. -1.
        -11    1    3    3    0    0  0.87831758909E+00  0.22142266407E+02  0.24981203273E+03  0.25079294867E+03  0.00000000000E+00 0.  1.
         22    1    1    2    0    0 -0.16652876469E+03 -0.13528710017E+03 -0.49665652876E+03  0.54101953431E+03  0.00000000000E+00 0.  1.
<mgrwt>
<rscale>  0 0.15450548E+04</rscale>
<asrwt>0</asrwt>
<pdfrwt beam="1">  1        1 0.17286147E+00 0.15450548E+04</pdfrwt>
<pdfrwt beam="2">  1       -1 0.81715201E-01 0.15450548E+04</pdfrwt>
<totfact> 0.17490225E+01</totfact>
</mgrwt>
</event>
<event>
 6    1  0.1585031E-006  0.1926903E+04  0.7818608E-02  0.8641580E-01
         -1   -1    0    0    0  501 -0.00000000000E+00  0.00000000000E+00  0.52000166533E+03  0.52000166533E+03  0.00000000000E+00 0.  1.
          1   -1    0    0  501    0  0.00000000000E+00 -0.00000000000E+00 -0.17850688053E+04  0.17850688053E+04  0.00000000000E+00 0. -1.
         23    2    1    2    0    0 -0.66494162943E+03 -0.21024427162E+03  0.15743592444E+03  0.72081512741E+03  0.91860510044E+02 0.  0.
         13    1    3    3    0    0 -0.20116490279E+03 -0.66043139462E+02  0.50376570351E+01  0.21178855581E+03  0.00000000000E+00 0.  1.
        -13    1    3    3    0    0 -0.46377672664E+03 -0.14420113216E+03  0.15239826740E+03  0.50902657160E+03  0.00000000000E+00 0. -1.
         22    1    1    2    0    0  0.66494162943E+03  0.21024427162E+03 -0.14225030644E+04  0.15842553432E+04  0.00000000000E+00 0. -1.
<mgrwt>
<rscale>  0 0.19269030E+04</rscale>
<asrwt>0</asrwt>
<pdfrwt beam="1">  1        1 0.27462597E+00 0.19269030E+04</pdfrwt>
<pdfrwt beam="2">  1       -1 0.80000257E-01 0.19269030E+04</pdfrwt>
<totfact> 0.60720427E+00</totfact>
</mgrwt>
</event>
<event>
 6    1  0.1585031E-006  0.1782375E+04  0.7818608E-02  0.8715729E-01
         -2   -1    0    0    0  501 -0.00000000000E+00  0.00000000000E+00  0.65867722002E+03  0.65867722002E+03  0.00000000000E+00 0.  1.
          2   -1    0    0  501    0  0.00000000000E+00 -0.00000000000E+00 -0.12057724006E+04  0.12057724006E+04  0.00000000000E+00 0. -1.
         23    2    1    2    0    0 -0.24952953491E+03 -0.30864533932E+03  0.55679255428E+03  0.69137883612E+03  0.10227322356E+03 0.  0.
         11    1    3    3    0    0 -0.16939433517E+03 -0.18861065008E+03  0.27027056629E+03  0.37055984282E+03  0.00000000000E+00 0.  1.
        -11    1    3    3    0    0 -0.80135199744E+02 -0.12003468924E+03  0.28652198799E+03  0.32081899330E+03  0.00000000000E+00 0. -1.
         22    1    1    2    0    0  0.24952953491E+03  0.30864533932E+03 -0.11038877348E+04  0.11730707845E+04  0.00000000000E+00 0. -1.
<mgrwt>
<rscale>  0 0.17823746E+04</rscale>
<asrwt>0</asrwt>
<pdfrwt beam="1">  1        2 0.18550344E+00 0.17823746E+04</pdfrwt>
<pdfrwt beam="2">  1       -2 0.10133496E+00 0.17823746E+04</pdfrwt>
<totfact> 0.14220342E+01</totfact>
</mgrwt>
</event>
<event>
 6    1  0.1602595E-006  0.3488207E+04  0.7818608E-02  0.8116590E-01
         -2   -1    0    0    0  501 -0.00000000000E+00  0.00000000000E+00  0.11394628710E+04  0.11394628710E+04  0.00000000000E+00 0.  1.
          2   -1    0    0  501    0  0.00000000000E+00 -0.00000000000E+00 -0.26695890976E+04  0.26695890976E+04  0.00000000000E+00 0. -1.
         23    2    1    2    0    0 -0.58831736905E+03  0.14771463908E+04 -0.15452294740E+04  0.22189869088E+04  0.89944357407E+02 0.  0.
         11    1    3    3    0    0 -0.30985463887E+03  0.69510153391E+03 -0.69336389446E+03  0.10295287902E+04  0.00000000000E+00 0. -1.
        -11    1    3    3    0    0 -0.27846273018E+03  0.78204485686E+03 -0.85186557954E+03  0.11894581186E+04  0.00000000000E+00 0.  1.
         22    1    1    2    0    0  0.58831736905E+03 -0.14771463908E+04  0.15103247347E+02  0.15900650599E+04  0.00000000000E+00 0.  1.
<mgrwt>
<rscale>  0 0.34882074E+04</rscale>
<asrwt>0</asrwt>
<pdfrwt beam="1">  1        2 0.41070601E+00 0.34882074E+04</pdfrwt>
<pdfrwt beam="2">  1       -2 0.17530198E+00 0.34882074E+04</pdfrwt>
<totfact> 0.44509312E-01</totfact>
</mgrwt>
</event>
<event>
 6    1  0.1585031E-006  0.4179798E+04  0.7818608E-02  0.7969226E-01
         -2   -1    0    0    0  501 -0.00000000000E+00  0.00000000000E+00  0.86616031497E+03  0.86616031497E+03  0.00000000000E+00 0.  1.
          2   -1    0    0  501    0  0.00000000000E+00 -0.00000000000E+00 -0.50425742133E+04  0.50425742133E+04  0.00000000000E+00 0. -1.
         23    2    1    2    0    0  0.17365308562E+04  0.86442317378E+03 -0.31845420603E+04  0.37300705843E+04  0.96703630476E+02 0.  0.
         11    1    3    3    0    0  0.95509878111E+03  0.44326406157E+03 -0.18018078459E+04  0.20869135640E+04  0.00000000000E+00 0. -1.
        -11    1    3    3    0    0  0.78143207506E+03  0.42115911221E+03 -0.13827342144E+04  0.16431570203E+04  0.00000000000E+00 0.  1.
         22    1    1    2    0    0 -0.17365308562E+04 -0.86442317378E+03 -0.99187183804E+03  0.21786639440E+04  0.00000000000E+00 0. -1.
<mgrwt>
<rscale>  0 0.41797979E+04</rscale>
<asrwt>0</asrwt>
<pdfrwt beam="1">  1        2 0.77578066E+00 0.41797979E+04</pdfrwt>
<pdfrwt beam="2">  1       -2 0.13325543E+00 0.41797979E+04</pdfrwt>
<totfact> 0.94715457E-03</totfact>
</mgrwt>
</event>
<event>
 6    1  0.1585031E-006  0.1158848E+04  0.7818608E-02  0.9149660E-01
          2   -1    0    0  501    0  0.00000000000E+00  0.00000000000E+00  0.49214233232E+03  0.49214233232E+03  0.00000000000E+00 0.  1.
         -2   -1    0    0    0  501 -0.00000000000E+00 -0.00000000000E+00 -0.68218502450E+03  0.68218502450E+03  0.00000000000E+00 0. -1.
         23    2    1    2    0    0  0.21878275131E+03  0.44320522059E+03  0.20370832836E+03  0.54239648559E+03  0.91652085140E+02 0.  0.
         13    1    3    3    0    0  0.86444825848E+02  0.11600786350E+03  0.95043546212E+02  0.17310057188E+03  0.00000000000E+00 0. -1.
        -13    1    3    3    0    0  0.13233792546E+03  0.32719735709E+03  0.10866478215E+03  0.36929591371E+03  0.00000000000E+00 0.  1.
         22    1    1    2    0    0 -0.21878275131E+03 -0.44320522059E+03 -0.39375102054E+03  0.63193087123E+03  0.00000000000E+00 0. -1.
<mgrwt>
<rscale>  0 0.11588479E+04</rscale>
<asrwt>0</asrwt>
<pdfrwt beam="1">  1        2 0.75714205E-01 0.11588479E+04</pdfrwt>
<pdfrwt beam="2">  1       -2 0.10495154E+00 0.11588479E+04</pdfrwt>
<totfact> 0.45671811E+01</totfact>
</mgrwt>
</event>
<event>
 6    1  0.1585031E-006  0.1747738E+04  0.7818608E-02  0.8734597E-01
         -1   -1    0    0    0  501 -0.00000000000E+00  0.00000000000E+00  0.68973617332E+03  0.68973617332E+03  0.00000000000E+00 0. -1.
          1   -1    0    0  501    0  0.00000000000E+00 -0.00000000000E+00 -0.11071577239E+04  0.11071577239E+04  0.00000000000E+00 0.  1.
         23    2    1    2    0    0  0.37211833020E+03 -0.74267585722E+03  0.62217777413E+02  0.83767892364E+03  0.88291826946E+02 0.  0.
         11    1    3    3    0    0  0.23498147911E+03 -0.47163748302E+03 -0.32689740461E+01  0.52694297329E+03  0.00000000000E+00 0. -1.
        -11    1    3    3    0    0  0.13713685109E+03 -0.27103837420E+03  0.65486751459E+02  0.31073595034E+03  0.00000000000E+00 0.  1.
         22    1    1    2    0    0 -0.37211833020E+03  0.74267585722E+03 -0.47963932796E+03  0.95921497356E+03  0.00000000000E+00 0.  1.
<mgrwt>
<rscale>  0 0.17477377E+04</rscale>
<asrwt>0</asrwt>
<pdfrwt beam="1">  1        1 0.17033196E+00 0.17477377E+04</pdfrwt>
<pdfrwt beam="2">  1       -1 0.10611326E+00 0.17477377E+04</pdfrwt>
<totfact> 0.98600534E+00</totfact>
</mgrwt>
</event>
<event>
 6    1  0.1585031E-006  0.3677487E+04  0.7818608E-02  0.8072969E-01
         -2   -1    0    0    0  501 -0.00000000000E+00  0.00000000000E+00  0.14791087597E+04  0.14791087597E+04  0.00000000000E+00 0.  1.
          2   -1    0    0  501    0  0.00000000000E+00 -0.00000000000E+00 -0.22858210218E+04  0.22858210218E+04  0.00000000000E+00 0. -1.
         23    2    1    2    0    0  0.10647117332E+04  0.86606949149E+03  0.84737868146E+03  0.16155800454E+04  0.91437488485E+02 0.  0.
         13    1    3    3    0    0  0.58097092164E+03  0.52547457059E+03  0.46026682838E+03  0.90856826349E+03  0.00000000000E+00 0.  1.
        -13    1    3    3    0    0  0.48374081153E+03  0.34059492090E+03  0.38711185308E+03  0.70701178186E+03  0.00000000000E+00 0. -1.
         22    1    1    2    0    0 -0.10647117332E+04 -0.86606949149E+03 -0.16540909436E+04  0.21493497362E+04  0.00000000000E+00 0. -1.
<mgrwt>
<rscale>  0 0.36774871E+04</rscale>
<asrwt>0</asrwt>
<pdfrwt beam="1">  1        2 0.35166477E+00 0.36774871E+04</pdfrwt>
<pdfrwt beam="2">  1       -2 0.22755520E+00 0.36774871E+04</pdfrwt>
<totfact> 0.33129355E-01</totfact>
</mgrwt>
</event>
<event>
 6    1  0.1585031E-006  0.1111329E+04  0.7818608E-02  0.9194220E-01
         -1   -1    0    0    0  501 -0.00000000000E+00  0.00000000000E+00  0.19746385255E+03  0.19746385255E+03  0.00000000000E+00 0.  1.
          1   -1    0    0  501    0  0.00000000000E+00 -0.00000000000E+00 -0.15636432906E+04  0.15636432906E+04  0.00000000000E+00 0. -1.
         23    2    1    2    0    0 -0.45119693071E+02  0.17144680640E+03 -0.15159382017E+04  0.15290349962E+04  0.91921674566E+02 0.  0.
         11    1    3    3    0    0 -0.53941755531E+01  0.12630827009E+03 -0.12503479212E+04  0.12567230404E+04  0.00000000000E+00 0.  1.
        -11    1    3    3    0    0 -0.39725517518E+02  0.45138536313E+02 -0.26559028048E+03  0.27231195583E+03  0.00000000000E+00 0. -1.
         22    1    1    2    0    0  0.45119693071E+02 -0.17144680640E+03  0.14975876358E+03  0.23207214697E+03  0.00000000000E+00 0.  1.
<mgrwt>
<rscale>  0 0.11113290E+04</rscale>
<asrwt>0</asrwt>
<pdfrwt beam="1">  1        1 0.24056052E+00 0.11113290E+04</pdfrwt>
<pdfrwt beam="2">  1       -1 0.30379053E-01 0.11113290E+04</pdfrwt>
<totfact> 0.58745943E+01</totfact>
</mgrwt>
</event>
<event>
 6    1  0.1585031E-006  0.2707092E+04  0.7818608E-02  0.8332708E-01
          1   -1    0    0  501    0  0.00000000000E+00  0.00000000000E+00  0.12371790114E+04  0.12371790114E+04  0.00000000000E+00 0. -1.
         -1   -1    0    0    0  501 -0.00000000000E+00 -0.00000000000E+00 -0.14808577636E+04  0.14808577636E+04  0.00000000000E+00 0.  1.
         23    2    1    2    0    0  0.12233689216E+04 -0.54727978693E+03  0.53644237018E+02  0.13452485017E+04  0.10329154802E+03 0.  0.
         11    1    3    3    0    0  0.38339027451E+03 -0.20307653417E+03 -0.21439399303E+02  0.43438212344E+03  0.00000000000E+00 0. -1.
        -11    1    3    3    0    0  0.83997864704E+03 -0.34420325276E+03  0.75083636320E+02  0.91086637831E+03  0.00000000000E+00 0.  1.
         22    1    1    2    0    0 -0.12233689216E+04  0.54727978693E+03 -0.29732298918E+03  0.13727882733E+04  0.00000000000E+00 0.  1.
<mgrwt>
<rscale>  0 0.27070915E+04</rscale>
<asrwt>0</asrwt>
<pdfrwt beam="1">  1        1 0.19033523E+00 0.27070915E+04</pdfrwt>
<pdfrwt beam="2">  1       -1 0.22782427E+00 0.27070915E+04</pdfrwt>
<totfact> 0.85489905E-01</totfact>
</mgrwt>
</event>
<event>
 6    1  0.1585031E-006  0.3633523E+04  0.7818608E-02  0.8082856E-01
          2   -1    0    0  501    0  0.00000000000E+00  0.00000000000E+00  0.20468783510E+04  0.20468783510E+04  0.00000000000E+00 0. -1.
         -2   -1    0    0    0  501 -0.00000000000E+00 -0.00000000000E+00 -0.16125154023E+04  0.16125154023E+04  0.00000000000E+00 0.  1.
         23    2    1    2    0    0 -0.45700987253E+03  0.34405630913E+03 -0.15182188541E+04  0.16247418262E+04  0.86975545427E+02 0.  0.
         13    1    3    3    0    0 -0.16752350493E+03  0.77043399278E+02 -0.51273642868E+03  0.54488389165E+03  0.00000000000E+00 0. -1.
        -13    1    3    3    0    0 -0.28948636760E+03  0.26701290985E+03 -0.10054824254E+04  0.10798579346E+04  0.00000000000E+00 0.  1.
         22    1    1    2    0    0  0.45700987253E+03 -0.34405630913E+03  0.19525818028E+04  0.20346519270E+04  0.00000000000E+00 0. -1.
<mgrwt>
<rscale>  0 0.36335233E+04</rscale>
<asrwt>0</asrwt>
<pdfrwt beam="1">  1        2 0.31490436E+00 0.36335233E+04</pdfrwt>
<pdfrwt beam="2">  1       -2 0.24807929E+00 0.36335233E+04</pdfrwt>
<totfact> 0.33770395E-01</totfact>
</mgrwt>
</event>
<event>
 6    1  0.1585031E-006  0.3662449E+04  0.7818608E-02  0.8076335E-01
         -2   -1    0    0    0  501 -0.00000000000E+00  0.00000000000E+00  0.26453703255E+04  0.26453703255E+04  0.00000000000E+00 0. -1.
          2   -1    0    0  501    0  0.00000000000E+00 -0.00000000000E+00 -0.12676422878E+04  0.12676422878E+04  0.00000000000E+00 0.  1.
         23    2    1    2    0    0  0.16518781905E+04  0.44366167296E+03  0.13848184690E+04  0.22025777240E+04  0.89939991382E+02 0.  0.
         11    1    3    3    0    0  0.84536866563E+03  0.18202120862E+03  0.71394081282E+03  0.11213792335E+04  0.00000000000E+00 0. -1.
        -11    1    3    3    0    0  0.80650952484E+03  0.26164046434E+03  0.67087765620E+03  0.10811984905E+04  0.00000000000E+00 0.  1.
         22    1    1    2    0    0 -0.16518781905E+04 -0.44366167296E+03 -0.70904313374E+01  0.17104348893E+04  0.00000000000E+00 0.  1.
<mgrwt>
<rscale>  0 0.36624491E+04</rscale>
<asrwt>0</asrwt>
<pdfrwt beam="1">  1        2 0.19502189E+00 0.36624491E+04</pdfrwt>
<pdfrwt beam="2">  1       -2 0.40698005E+00 0.36624491E+04</pdfrwt>
<totfact> 0.93469574E-02</totfact>
</mgrwt>
</event>
<event>
 6    1  0.1585031E-006  0.1325968E+04  0.7818608E-02  0.9009222E-01
         -1   -1    0    0    0  501 -0.00000000000E+00  0.00000000000E+00  0.28425849513E+03  0.28425849513E+03  0.00000000000E+00 0.  1.
          1   -1    0    0  501    0  0.00000000000E+00 -0.00000000000E+00 -0.15462964277E+04  0.15462964277E+04  0.00000000000E+00 0. -1.
         23    2    1    2    0    0  0.49031391377E+03  0.39580119542E+03 -0.90352581305E+03  0.11055740540E+04  0.94174166770E+02 0.  0.
         11    1    3    3    0    0  0.32497633572E+03  0.20480212943E+03 -0.56369950871E+03  0.68213683899E+03  0.00000000000E+00 0. -1.
        -11    1    3    3    0    0  0.16533757805E+03  0.19099906598E+03 -0.33982630434E+03  0.42343721500E+03  0.00000000000E+00 0.  1.
         22    1    1    2    0    0 -0.49031391377E+03 -0.39580119542E+03 -0.35851211952E+03  0.72498086883E+03  0.00000000000E+00 0. -1.
<mgrwt>
<rscale>  0 0.13259682E+04</rscale>
<asrwt>0</asrwt>
<pdfrwt beam="1">  1        1 0.23789176E+00 0.13259682E+04</pdfrwt>
<pdfrwt beam="2">  1       -1 0.43732076E-01 0.13259682E+04</pdfrwt>
<totfact> 0.30777272E+01</totfact>
</mgrwt>
</event>
<event>
 6    1  0.1585031E-006  0.1286474E+04  0.7818608E-02  0.9040361E-01
          1   -1    0    0  501    0  0.00000000000E+00  0.00000000000E+00  0.49075390666E+03  0.49075390666E+03  0.00000000000E+00 0. -1.
         -1   -1    0    0    0  501 -0.00000000000E+00 -0.00000000000E+00 -0.84309862809E+03  0.84309862809E+03  0.00000000000E+00 0.  1.
         23    2    1    2    0    0 -0.58272145834E+03 -0.14569006060E+03 -0.40622073154E+03  0.73078328812E+03  0.90769156041E+02 0.  0.
         11    1    3    3    0    0 -0.13735639138E+03 -0.34980008988E+01 -0.65054333183E+02  0.15202328943E+03  0.00000000000E+00 0. -1.
        -11    1    3    3    0    0 -0.44536506696E+03 -0.14219205970E+03 -0.34116639836E+03  0.57875999869E+03  0.00000000000E+00 0.  1.
         22    1    1    2    0    0  0.58272145834E+03  0.14569006060E+03  0.53876010109E+02  0.60306924663E+03  0.00000000000E+00 0. -1.
<mgrwt>
<rscale>  0 0.12864742E+04</rscale>
<asrwt>0</asrwt>
<pdfrwt beam="1">  1        1 0.75500602E-01 0.12864742E+04</pdfrwt>
<pdfrwt beam="2">  1       -1 0.12970748E+00 0.12864742E+04</pdfrwt>
<totfact> 0.22820722E+01</totfact>
</mgrwt>
</event>
<event>
 6    1  0.1585031E-006  0.1931558E+04  0.7818608E-02  0.8639305E-01
          1   -1    0    0  501    0  0.00000000000E+00  0.00000000000E+00  0.76870967164E+03  0.76870967164E+03  0.00000000000E+00 0. -1.
         -1   -1    0    0    0  501 -0.00000000000E+00 -0.00000000000E+00 -0.12133698524E+04  0.12133698524E+04  0.00000000000E+00 0.  1.
         23    2    1    2    0    0 -0.60132993823E+03  0.62036304616E+03 -0.66073401997E+03  0.10914977436E+04  0.91377652516E+02 0.  0.
         11    1    3    3    0    0 -0.21323285334E+03  0.18976366216E+03 -0.17185782733E+03  0.33318704962E+03  0.00000000000E+00 0. -1.
        -11    1    3    3    0    0 -0.38809708489E+03  0.43059938399E+03 -0.48887619264E+03  0.75831069393E+03  0.00000000000E+00 0.  1.
         22    1    1    2    0    0  0.60132993823E+03 -0.62036304616E+03  0.21607383926E+03  0.89058178045E+03  0.00000000000E+00 0. -1.
<mgrwt>
<rscale>  0 0.19315581E+04</rscale>
<asrwt>0</asrwt>
<pdfrwt beam="1">  1        1 0.11826303E+00 0.19315581E+04</pdfrwt>
<pdfrwt beam="2">  1       -1 0.18667228E+00 0.19315581E+04</pdfrwt>
<totfact> 0.41002091E+00</totfact>
</mgrwt>
</event>
<event>
 6    1  0.1585031E-006  0.1895322E+04  0.7818608E-02  0.8657188E-01
         -1   -1    0    0    0  501 -0.00000000000E+00  0.00000000000E+00  0.11087955600E+04  0.11087955600E+04  0.00000000000E+00 0.  1.
          1   -1    0    0  501    0  0.00000000000E+00 -0.00000000000E+00 -0.80994304810E+03  0.80994304810E+03  0.00000000000E+00 0. -1.
         23    2    1    2    0    0  0.88883472418E+02 -0.82834831072E+03 -0.30267577436E+03  0.89116988792E+03  0.92249385923E+02 0.  0.
         13    1    3    3    0    0  0.17733392448E+02 -0.22737070069E+03 -0.12687617875E+03  0.26097791760E+03  0.00000000000E+00 0. -1.
        -13    1    3    3    0    0  0.71150079970E+02 -0.60097761003E+03 -0.17579959561E+03  0.63019197032E+03  0.00000000000E+00 0.  1.
         22    1    1    2    0    0 -0.88883472418E+02  0.82834831072E+03  0.60152828628E+03  0.10275687202E+04  0.00000000000E+00 0.  1.
<mgrwt>
<rscale>  0 0.18953219E+04</rscale>
<asrwt>0</asrwt>
<pdfrwt beam="1">  1        1 0.12460662E+00 0.18953219E+04</pdfrwt>
<pdfrwt beam="2">  1       -1 0.17058393E+00 0.18953219E+04</pdfrwt>
<totfact> 0.49424111E+00</totfact>
</mgrwt>
</event>
<event>
 6    1  0.1585031E-006  0.1804715E+04  0.7818608E-02  0.8703796E-01
          1   -1    0    0  501    0  0.00000000000E+00  0.00000000000E+00  0.36249324387E+04  0.36249324387E+04  0.00000000000E+00 0. -1.
         -1   -1    0    0    0  501 -0.00000000000E+00 -0.00000000000E+00 -0.22462464785E+03  0.22462464785E+03  0.00000000000E+00 0.  1.
         23    2    1    2    0    0 -0.57762872227E+03 -0.62731052499E+03  0.23188655493E+04  0.24723531230E+04  0.90659215262E+02 0.  0.
         11    1    3    3    0    0 -0.30491027171E+03 -0.27034875911E+03  0.10488091975E+04  0.11251930760E+04  0.00000000000E+00 0.  1.
        -11    1    3    3    0    0 -0.27271845056E+03 -0.35696176588E+03  0.12700563518E+04  0.13471600470E+04  0.00000000000E+00 0. -1.
         22    1    1    2    0    0  0.57762872227E+03  0.62731052499E+03  0.10814422416E+04  0.13772039636E+04  0.00000000000E+00 0.  1.
<mgrwt>
<rscale>  0 0.18047151E+04</rscale>
<asrwt>0</asrwt>
<pdfrwt beam="1">  1        1 0.55768187E+00 0.18047151E+04</pdfrwt>
<pdfrwt beam="2">  1       -1 0.34557641E-01 0.18047151E+04</pdfrwt>
<totfact> 0.14985878E+00</totfact>
</mgrwt>
</event>
<event>
 6    1  0.1585031E-006  0.1703954E+04  0.7818608E-02  0.8759113E-01
          1   -1    0    0  501    0  0.00000000000E+00  0.00000000000E+00  0.12104887751E+04  0.12104887751E+04  0.00000000000E+00 0. -1.
         -1   -1    0    0    0  501 -0.00000000000E+00 -0.00000000000E+00 -0.59964582405E+03  0.59964582405E+03  0.00000000000E+00 0.  1.
         23    2    1    2    0    0  0.37093520374E+03  0.35542875433E+03 -0.41232844870E+03  0.66523187925E+03  0.92715580008E+02 0.  0.
         11    1    3    3    0    0  0.16911894258E+03  0.10583589304E+03 -0.13342124196E+03  0.24000766821E+03  0.00000000000E+00 0. -1.
        -11    1    3    3    0    0  0.20181626117E+03  0.24959286129E+03 -0.27890720674E+03  0.42522421104E+03  0.00000000000E+00 0.  1.
         22    1    1    2    0    0 -0.37093520374E+03 -0.35542875433E+03  0.10231713998E+04  0.11449027199E+04  0.00000000000E+00 0. -1.
<mgrwt>
<rscale>  0 0.17039537E+04</rscale>
<asrwt>0</asrwt>
<pdfrwt beam="1">  1        1 0.18622904E+00 0.17039537E+04</pdfrwt>
<pdfrwt beam="2">  1       -1 0.92253204E-01 0.17039537E+04</pdfrwt>
<totfact> 0.11421074E+01</totfact>
</mgrwt>
</event>
<event>
 6    1  0.1585031E-006  0.2453583E+04  0.7818608E-02  0.8419711E-01
         -2   -1    0    0    0  501 -0.00000000000E+00  0.00000000000E+00  0.10231438145E+04  0.10231438145E+04  0.00000000000E+00 0.  1.
          2   -1    0    0  501    0  0.00000000000E+00 -0.00000000000E+00 -0.14709731314E+04  0.14709731314E+04  0.00000000000E+00 0. -1.
         23    2    1    2    0    0  0.10433154962E+04 -0.24350510286E+02 -0.87656776312E+03  0.13658807883E+04  0.90327806108E+02 0.  0.
         13    1    3    3    0    0  0.77307640442E+03 -0.59917481048E+01 -0.69694371094E+03  0.10408715408E+04  0.00000000000E+00 0. -1.
        -13    1    3    3    0    0  0.27023909182E+03 -0.18358762181E+02 -0.17962405218E+03  0.32500924759E+03  0.00000000000E+00 0.  1.
         22    1    1    2    0    0 -0.10433154962E+04  0.24350510286E+02  0.42873844616E+03  0.11282361576E+04  0.00000000000E+00 0.  1.
<mgrwt>
<rscale>  0 0.24535827E+04</rscale>
<asrwt>0</asrwt>
<pdfrwt beam="1">  1        2 0.22630356E+00 0.24535827E+04</pdfrwt>
<pdfrwt beam="2">  1       -2 0.15740674E+00 0.24535827E+04</pdfrwt>
<totfact> 0.31085812E+00</totfact>
</mgrwt>
</event>
<event>
 6    1  0.1585031E-006  0.5416487E+04  0.7818608E-02  0.7767286E-01
         -2   -1    0    0    0  501 -0.00000000000E+00  0.00000000000E+00  0.32226286488E+04  0.32226286488E+04  0.00000000000E+00 0.  1.
          2   -1    0    0  501    0  0.00000000000E+00 -0.00000000000E+00 -0.22759627613E+04  0.22759627613E+04  0.00000000000E+00 0. -1.
         23    2    1    2    0    0  0.21431173344E+04 -0.16505228102E+04  0.58960048844E+03  0.27700985743E+04  0.92951168037E+02 0.  0.
         11    1    3    3    0    0  0.11114620826E+04 -0.79779987327E+03  0.29206141238E+03  0.13989755064E+04  0.00000000000E+00 0. -1.
        -11    1    3    3    0    0  0.10316552518E+04 -0.85272293689E+03  0.29753907606E+03  0.13711230679E+04  0.00000000000E+00 0.  1.
         22    1    1    2    0    0 -0.21431173344E+04  0.16505228102E+04  0.35706539897E+03  0.27284928358E+04  0.00000000000E+00 0. -1.
<mgrwt>
<rscale>  0 0.54164870E+04</rscale>
<asrwt>0</asrwt>
<pdfrwt beam="1">  1        2 0.35014812E+00 0.54164870E+04</pdfrwt>
<pdfrwt beam="2">  1       -2 0.49578902E+00 0.54164870E+04</pdfrwt>
<totfact> 0.58236827E-03</totfact>
</mgrwt>
</event>
<event>
 6    1  0.1585031E-006  0.1543673E+04  0.7818608E-02  0.8855920E-01
         -3   -1    0    0    0  501 -0.00000000000E+00  0.00000000000E+00  0.36043930806E+03  0.36043930806E+03  0.00000000000E+00 0.  1.
          3   -1    0    0  501    0  0.00000000000E+00 -0.00000000000E+00 -0.16527921246E+04  0.16527921246E+04  0.00000000000E+00 0. -1.
         23    2    1    2    0    0 -0.72650463616E+02  0.21817071420E+03 -0.16056993914E+04  0.16245636743E+04  0.89777759057E+02 0.  0.
         11    1    3    3    0    0 -0.86065258754E+02  0.11947572896E+03 -0.95332420631E+03  0.96462879954E+03  0.00000000000E+00 0. -1.
        -11    1    3    3    0    0  0.13414795138E+02  0.98694985239E+02 -0.65237518510E+03  0.65993487480E+03  0.00000000000E+00 0.  1.
         22    1    1    2    0    0  0.72650463616E+02 -0.21817071420E+03  0.31334657485E+03  0.38866775833E+03  0.00000000000E+00 0.  1.
<mgrwt>
<rscale>  0 0.15436726E+04</rscale>
<asrwt>0</asrwt>
<pdfrwt beam="1">  1        3 0.25427571E+00 0.15436726E+04</pdfrwt>
<pdfrwt beam="2">  1       -3 0.55452201E-01 0.15436726E+04</pdfrwt>
<totfact> 0.56530668E-01</totfact>
</mgrwt>
</event>
<event>
 6    1  0.1585031E-006  0.1107077E+04  0.7818608E-02  0.9198321E-01
          2   -1    0    0  501    0  0.00000000000E+00  0.00000000000E+00  0.97193952308E+03  0.97193952308E+03  0.00000000000E+00 0.  1.
         -2   -1    0    0    0  501 -0.00000000000E+00 -0.00000000000E+00 -0.31525097352E+03  0.31525097352E+03  0.00000000000E+00 0. -1.
         23    2    1    2    0    0  0.37800261407E+03  0.17232026686E+03 -0.88185437417E+02  0.43430275070E+03  0.90895309416E+02 0.  0.
         11    1    3    3    0    0  0.42471431510E+02  0.55560308195E+02 -0.11916780971E+02  0.70942089128E+02  0.00000000000E+00 0.  1.
        -11    1    3    3    0    0  0.33553118256E+03  0.11675995867E+03 -0.76268656446E+02  0.36336066157E+03  0.00000000000E+00 0. -1.
         22    1    1    2    0    0 -0.37800261407E+03 -0.17232026686E+03  0.74487398698E+03  0.85288774590E+03  0.00000000000E+00 0.  1.
<mgrwt>
<rscale>  0 0.11070770E+04</rscale>
<asrwt>0</asrwt>
<pdfrwt beam="1">  1        2 0.14952916E+00 0.11070770E+04</pdfrwt>
<pdfrwt beam="2">  1       -2 0.48500150E-01 0.11070770E+04</pdfrwt>
<totfact> 0.10493188E+02</totfact>
</mgrwt>
</event>
<event>
 6    1  0.1585031E-006  0.6302207E+04  0.7818608E-02  0.7654021E-01
         -1   -1    0    0    0  501 -0.00000000000E+00  0.00000000000E+00  0.44705537037E+04  0.44705537037E+04  0.00000000000E+00 0.  1.
          1   -1    0    0  501    0  0.00000000000E+00 -0.00000000000E+00 -0.22210792472E+04  0.22210792472E+04  0.00000000000E+00 0. -1.
         23    2    1    2    0    0  0.26081846806E+04 -0.45148316946E+03 -0.68896776853E+03  0.27367742820E+04  0.93768352235E+02 0.  0.
         11    1    3    3    0    0  0.12628466143E+04 -0.17170959879E+03 -0.33953335304E+03  0.13189195030E+04  0.00000000000E+00 0.  1.
        -11    1    3    3    0    0  0.13453380663E+04 -0.27977357067E+03 -0.34943441550E+03  0.14178547790E+04  0.00000000000E+00 0. -1.
         22    1    1    2    0    0 -0.26081846806E+04  0.45148316946E+03  0.29384422251E+04  0.39548586689E+04  0.00000000000E+00 0. -1.
<mgrwt>
<rscale>  0 0.63022072E+04</rscale>
<asrwt>0</asrwt>
<pdfrwt beam="1">  1        1 0.34170450E+00 0.63022072E+04</pdfrwt>
<pdfrwt beam="2">  1       -1 0.68777749E+00 0.63022072E+04</pdfrwt>
<totfact> 0.30979125E-04</totfact>
</mgrwt>
</event>
<event>
 6    1  0.1585031E-006  0.1610802E+04  0.7818608E-02  0.8813939E-01
         -1   -1    0    0    0  501 -0.00000000000E+00  0.00000000000E+00  0.15832928697E+04  0.15832928697E+04  0.00000000000E+00 0.  1.
          1   -1    0    0  501    0  0.00000000000E+00 -0.00000000000E+00 -0.40969741111E+03  0.40969741111E+03  0.00000000000E+00 0. -1.
         23    2    1    2    0    0 -0.72891599419E+03  0.22537250527E+03  0.89755282981E+03  0.11816267213E+04  0.92354390745E+02 0.  0.
         13    1    3    3    0    0 -0.30407916590E+03  0.12681129822E+03  0.33552253616E+03  0.47023464011E+03  0.00000000000E+00 0.  1.
        -13    1    3    3    0    0 -0.42483682829E+03  0.98561207057E+02  0.56203029365E+03  0.71139208120E+03  0.00000000000E+00 0. -1.
         22    1    1    2    0    0  0.72891599419E+03 -0.22537250527E+03  0.27604262873E+03  0.81136355945E+03  0.00000000000E+00 0.  1.
<mgrwt>
<rscale>  0 0.16108023E+04</rscale>
<asrwt>0</asrwt>
<pdfrwt beam="1">  1        1 0.63030372E-01 0.16108023E+04</pdfrwt>
<pdfrwt beam="2">  1       -1 0.24358351E+00 0.16108023E+04</pdfrwt>
<totfact> 0.42790957E+00</totfact>
</mgrwt>
</event>
<event>
 6    1  0.1585031E-006  0.3022322E+04  0.7818608E-02  0.8237385E-01
          1   -1    0    0  501    0  0.00000000000E+00  0.00000000000E+00  0.17080625208E+04  0.17080625208E+04  0.00000000000E+00 0. -1.
         -1   -1    0    0    0  501 -0.00000000000E+00 -0.00000000000E+00 -0.13369577208E+04  0.13369577208E+04  0.00000000000E+00 0.  1.
         23    2    1    2    0    0  0.85080360779E+03 -0.12469566829E+04  0.15927448411E+03  0.15206712557E+04  0.91131546180E+02 0.  0.
         13    1    3    3    0    0  0.87751394043E+02 -0.14099034746E+03 -0.10141278478E+02  0.16637737455E+03  0.00000000000E+00 0. -1.
        -13    1    3    3    0    0  0.76305221374E+03 -0.11059663354E+04  0.16941576259E+03  0.13542938812E+04  0.00000000000E+00 0.  1.
         22    1    1    2    0    0 -0.85080360779E+03  0.12469566829E+04  0.21183031585E+03  0.15243489858E+04  0.00000000000E+00 0. -1.
<mgrwt>
<rscale>  0 0.30223219E+04</rscale>
<asrwt>0</asrwt>
<pdfrwt beam="1">  1        1 0.26277885E+00 0.30223219E+04</pdfrwt>
<pdfrwt beam="2">  1       -1 0.20568580E+00 0.30223219E+04</pdfrwt>
<totfact> 0.54991610E-01</totfact>
</mgrwt>
</event>
<event>
 6    1  0.1998291E-006  0.2648261E+04  0.7818608E-02  0.8351990E-01
         -1   -1    0    0    0  501 -0.00000000000E+00  0.00000000000E+00  0.12474822110E+04  0.12474822110E+04  0.00000000000E+00 0.  1.
          1   -1    0    0  501    0  0.00000000000E+00 -0.00000000000E+00 -0.14054885589E+04  0.14054885589E+04  0.00000000000E+00 0. -1.
         23    2    1    2    0    0  0.77119230497E+03  0.97603345563E+02  0.99283378223E+03  0.12641954139E+04  0.90593273434E+02 0.  0.
         11    1    3    3    0    0  0.50965489139E+03  0.10383971785E+03  0.63212478634E+03  0.81860401955E+03  0.00000000000E+00 0. -1.
        -11    1    3    3    0    0  0.26153741358E+03 -0.62363722843E+01  0.36070899589E+03  0.44559139439E+03  0.00000000000E+00 0.  1.
         22    1    1    2    0    0 -0.77119230497E+03 -0.97603345563E+02 -0.11508401302E+04  0.13887753560E+04  0.00000000000E+00 0. -1.
<mgrwt>
<rscale>  0 0.26482613E+04</rscale>
<asrwt>0</asrwt>
<pdfrwt beam="1">  1        1 0.21622901E+00 0.26482613E+04</pdfrwt>
<pdfrwt beam="2">  1       -1 0.19192034E+00 0.26482613E+04</pdfrwt>
<totfact> 0.11441590E+00</totfact>
</mgrwt>
</event>
<event>
 6    1  0.1585031E-006  0.1026825E+04  0.7818608E-02  0.9279603E-01
          1   -1    0    0  501    0  0.00000000000E+00  0.00000000000E+00  0.32536263512E+03  0.32536263512E+03  0.00000000000E+00 0. -1.
         -1   -1    0    0    0  501 -0.00000000000E+00 -0.00000000000E+00 -0.81014921117E+03  0.81014921117E+03  0.00000000000E+00 0.  1.
         23    2    1    2    0    0 -0.46503687169E+03 -0.18600303513E+03 -0.14220067615E+03  0.52869925585E+03  0.91899128050E+02 0.  0.
         13    1    3    3    0    0 -0.37189558303E+03 -0.16725908234E+03 -0.14726999146E+03  0.43355550473E+03  0.00000000000E+00 0. -1.
        -13    1    3    3    0    0 -0.93141288657E+02 -0.18743952794E+02  0.50693153129E+01  0.95143751118E+02  0.00000000000E+00 0.  1.
         22    1    1    2    0    0  0.46503687169E+03  0.18600303513E+03 -0.34258589989E+03  0.60681259044E+03  0.00000000000E+00 0.  1.
<mgrwt>
<rscale>  0 0.10268248E+04</rscale>
<asrwt>0</asrwt>
<pdfrwt beam="1">  1        1 0.50055791E-01 0.10268248E+04</pdfrwt>
<pdfrwt beam="2">  1       -1 0.12463834E+00 0.10268248E+04</pdfrwt>
<totfact> 0.44499818E+01</totfact>
</mgrwt>
</event>
<event>
 6    1  0.1585031E-006  0.6840735E+04  0.7818608E-02  0.7594087E-01
         -2   -1    0    0    0  501 -0.00000000000E+00  0.00000000000E+00  0.36914792023E+04  0.36914792023E+04  0.00000000000E+00 0.  1.
          2   -1    0    0  501    0  0.00000000000E+00 -0.00000000000E+00 -0.31691670683E+04  0.31691670683E+04  0.00000000000E+00 0. -1.
         23    2    1    2    0    0  0.27485678070E+04  0.17113169020E+04 -0.84269467672E+03  0.33468912817E+04  0.91194323205E+02 0.  0.
         13    1    3    3    0    0  0.11114793395E+04  0.65952476764E+03 -0.30008559744E+03  0.13268046605E+04  0.00000000000E+00 0. -1.
        -13    1    3    3    0    0  0.16370884675E+04  0.10517921344E+04 -0.54260907928E+03  0.20200866212E+04  0.00000000000E+00 0.  1.
         22    1    1    2    0    0 -0.27485678070E+04 -0.17113169020E+04  0.13650068107E+04  0.35137549889E+04  0.00000000000E+00 0.  1.
<mgrwt>
<rscale>  0 0.68407351E+04</rscale>
<asrwt>0</asrwt>
<pdfrwt beam="1">  1        2 0.48756416E+00 0.68407351E+04</pdfrwt>
<pdfrwt beam="2">  1       -2 0.56791988E+00 0.68407351E+04</pdfrwt>
<totfact> 0.61249726E-04</totfact>
</mgrwt>
</event>
<event>
 6    1  0.1585031E-006  0.1915961E+04  0.7818608E-02  0.8646952E-01
          1   -1    0    0  501    0  0.00000000000E+00  0.00000000000E+00  0.87137129065E+03  0.87137129065E+03  0.00000000000E+00 0. -1.
         -1   -1    0    0    0  501 -0.00000000000E+00 -0.00000000000E+00 -0.10531981470E+04  0.10531981470E+04  0.00000000000E+00 0.  1.
         23    2    1    2    0    0 -0.93274069818E+03  0.54928651224E+02  0.11116357352E+03  0.94535252667E+03  0.91168486049E+02 0.  0.
         11    1    3    3    0    0 -0.54579342514E+03  0.60234017057E+02  0.29846981784E+02  0.54991766843E+03  0.00000000000E+00 0. -1.
        -11    1    3    3    0    0 -0.38694727304E+03 -0.53053658323E+01  0.81316591733E+02  0.39543485824E+03  0.00000000000E+00 0.  1.
         22    1    1    2    0    0  0.93274069818E+03 -0.54928651224E+02 -0.29299042988E+03  0.97921691099E+03  0.00000000000E+00 0.  1.
<mgrwt>
<rscale>  0 0.19159610E+04</rscale>
<asrwt>0</asrwt>
<pdfrwt beam="1">  1        1 0.13405712E+00 0.19159610E+04</pdfrwt>
<pdfrwt beam="2">  1       -1 0.16203048E+00 0.19159610E+04</pdfrwt>
<totfact> 0.50652125E+00</totfact>
</mgrwt>
</event>
<event>
 6    1  0.1585031E-006  0.2931985E+04  0.7818608E-02  0.8263424E-01
         -2   -1    0    0    0  501 -0.00000000000E+00  0.00000000000E+00  0.14733102777E+04  0.14733102777E+04  0.00000000000E+00 0.  1.
          2   -1    0    0  501    0  0.00000000000E+00 -0.00000000000E+00 -0.14587111152E+04  0.14587111152E+04  0.00000000000E+00 0. -1.
         23    2    1    2    0    0 -0.70119668317E+02 -0.66668233552E+03  0.13095088451E+04  0.14738810737E+04  0.90165955554E+02 0.  0.
         11    1    3    3    0    0  0.71849620626E+01 -0.28441425386E+03  0.60722085531E+03  0.67056711715E+03  0.00000000000E+00 0.  1.
        -11    1    3    3    0    0 -0.77304630380E+02 -0.38226808166E+03  0.70228798980E+03  0.80331395653E+03  0.00000000000E+00 0. -1.
         22    1    1    2    0    0  0.70119668317E+02  0.66668233552E+03 -0.12949096826E+04  0.14581403192E+04  0.00000000000E+00 0. -1.
<mgrwt>
<rscale>  0 0.29319850E+04</rscale>
<asrwt>0</asrwt>
<pdfrwt beam="1">  1        2 0.22441709E+00 0.29319850E+04</pdfrwt>
<pdfrwt beam="2">  1       -2 0.22666312E+00 0.29319850E+04</pdfrwt>
<totfact> 0.10346656E+00</totfact>
</mgrwt>
</event>
<event>
 6    1  0.1585031E-006  0.2925645E+04  0.7818608E-02  0.8265288E-01
          1   -1    0    0  501    0  0.00000000000E+00  0.00000000000E+00  0.22909859233E+04  0.22909859233E+04  0.00000000000E+00 0. -1.
         -1   -1    0    0    0  501 -0.00000000000E+00 -0.00000000000E+00 -0.93403026571E+03  0.93403026571E+03  0.00000000000E+00 0.  1.
         23    2    1    2    0    0 -0.88506655148E+03 -0.48982416821E+03  0.18416062614E+04  0.21033403338E+04  0.96210299114E+02 0.  0.
         13    1    3    3    0    0 -0.45770037584E+03 -0.30479304183E+03  0.10309940075E+04  0.11684763908E+04  0.00000000000E+00 0. -1.
        -13    1    3    3    0    0 -0.42736617564E+03 -0.18503112637E+03  0.81061225392E+03  0.93486394305E+03  0.00000000000E+00 0.  1.
         22    1    1    2    0    0  0.88506655148E+03  0.48982416821E+03 -0.48465060381E+03  0.11216758552E+04  0.00000000000E+00 0.  1.
<mgrwt>
<rscale>  0 0.29256454E+04</rscale>
<asrwt>0</asrwt>
<pdfrwt beam="1">  1        1 0.35245937E+00 0.29256454E+04</pdfrwt>
<pdfrwt beam="2">  1       -1 0.14369696E+00 0.29256454E+04</pdfrwt>
<totfact> 0.63260155E-01</totfact>
</mgrwt>
</event>
<event>
 6    1  0.1585031E-006  0.6229452E+04  0.7818608E-02  0.7662586E-01
         -2   -1    0    0    0  501 -0.00000000000E+00  0.00000000000E+00  0.26783089589E+04  0.26783089589E+04  0.00000000000E+00 0.  1.
          2   -1    0    0  501    0  0.00000000000E+00 -0.00000000000E+00 -0.36222545347E+04  0.36222545347E+04  0.00000000000E+00 0. -1.
         23    2    1    2    0    0  0.24418936687E+03 -0.27043523481E+04 -0.20139189661E+04  0.33820033819E+04  0.94483880840E+02 0.  0.
         13    1    3    3    0    0  0.12636549487E+03 -0.13442186136E+04 -0.94289542792E+03  0.16467980166E+04  0.00000000000E+00 0.  1.
        -13    1    3    3    0    0  0.11782387201E+03 -0.13601337344E+04 -0.10710235382E+04  0.17352053653E+04  0.00000000000E+00 0. -1.
         22    1    1    2    0    0 -0.24418936687E+03  0.27043523481E+04  0.10699733904E+04  0.29185601117E+04  0.00000000000E+00 0.  1.
<mgrwt>
<rscale>  0 0.62294516E+04</rscale>
<asrwt>0</asrwt>
<pdfrwt beam="1">  1        2 0.55726993E+00 0.62294516E+04</pdfrwt>
<pdfrwt beam="2">  1       -2 0.41204753E+00 0.62294516E+04</pdfrwt>
<totfact> 0.27201322E-03</totfact>
</mgrwt>
</event>
<event>
 6    1  0.1585031E-006  0.1884161E+04  0.7818608E-02  0.8662781E-01
          1   -1    0    0  501    0  0.00000000000E+00  0.00000000000E+00  0.18663329252E+04  0.18663329252E+04  0.00000000000E+00 0. -1.
         -1   -1    0    0    0  501 -0.00000000000E+00 -0.00000000000E+00 -0.47553978200E+03  0.47553978200E+03  0.00000000000E+00 0.  1.
         23    2    1    2    0    0  0.92754573963E+03  0.97502427920E+02  0.55164650316E+03  0.10872751996E+04  0.89474424622E+02 0.  0.
         11    1    3    3    0    0  0.51379575740E+03  0.86460937837E+02  0.34274730502E+03  0.62364836983E+03  0.00000000000E+00 0. -1.
        -11    1    3    3    0    0  0.41374998224E+03  0.11041490083E+02  0.20889919814E+03  0.46362682977E+03  0.00000000000E+00 0.  1.
         22    1    1    2    0    0 -0.92754573963E+03 -0.97502427920E+02  0.83914664001E+03  0.12545975076E+04  0.00000000000E+00 0. -1.
<mgrwt>
<rscale>  0 0.18841609E+04</rscale>
<asrwt>0</asrwt>
<pdfrwt beam="1">  1        1 0.28712814E+00 0.18841609E+04</pdfrwt>
<pdfrwt beam="2">  1       -1 0.73159967E-01 0.18841609E+04</pdfrwt>
<totfact> 0.64785175E+00</totfact>
</mgrwt>
</event>
<event>
 6    1  0.1585031E-006  0.1412063E+04  0.7818608E-02  0.8945133E-01
          2   -1    0    0  501    0  0.00000000000E+00  0.00000000000E+00  0.25378376983E+04  0.25378376983E+04  0.00000000000E+00 0. -1.
         -2   -1    0    0    0  501 -0.00000000000E+00 -0.00000000000E+00 -0.19641926221E+03  0.19641926221E+03  0.00000000000E+00 0.  1.
         23    2    1    2    0    0  0.98275371245E+02 -0.51578822724E+03  0.26980018736E+03  0.59713325974E+03  0.89891294524E+02 0.  0.
         11    1    3    3    0    0  0.23796921255E+02 -0.33881186805E+03  0.19021760169E+03  0.38928461488E+03  0.00000000000E+00 0. -1.
        -11    1    3    3    0    0  0.74478449990E+02 -0.17697635919E+03  0.79582585670E+02  0.20784864486E+03  0.00000000000E+00 0.  1.
         22    1    1    2    0    0 -0.98275371245E+02  0.51578822724E+03  0.20716182488E+04  0.21371237008E+04  0.00000000000E+00 0. -1.
<mgrwt>
<rscale>  0 0.14120626E+04</rscale>
<asrwt>0</asrwt>
<pdfrwt beam="1">  1        2 0.39043655E+00 0.14120626E+04</pdfrwt>
<pdfrwt beam="2">  1       -2 0.30218350E-01 0.14120626E+04</pdfrwt>
<totfact> 0.32681379E+01</totfact>
</mgrwt>
</event>
<event>
 6    1  0.1585031E-006  0.1213551E+04  0.7818608E-02  0.9101078E-01
         -1   -1    0    0    0  501 -0.00000000000E+00  0.00000000000E+00  0.71966797615E+03  0.71966797615E+03  0.00000000000E+00 0.  1.
          1   -1    0    0  501    0  0.00000000000E+00 -0.00000000000E+00 -0.51159185743E+03  0.51159185743E+03  0.00000000000E+00 0. -1.
         23    2    1    2    0    0  0.26113552096E+03 -0.31485190060E+03  0.55431188528E+03  0.69534688759E+03  0.94457124123E+02 0.  0.
         13    1    3    3    0    0  0.17538403155E+03 -0.18583281680E+03  0.27116357869E+03  0.37258969487E+03  0.00000000000E+00 0. -1.
        -13    1    3    3    0    0  0.85751489416E+02 -0.12901908380E+03  0.28314830660E+03  0.32275719272E+03  0.00000000000E+00 0.  1.
         22    1    1    2    0    0 -0.26113552096E+03  0.31485190060E+03 -0.34623576657E+03  0.53591294599E+03  0.00000000000E+00 0. -1.
<mgrwt>
<rscale>  0 0.12135506E+04</rscale>
<asrwt>0</asrwt>
<pdfrwt beam="1">  1        1 0.78706440E-01 0.12135506E+04</pdfrwt>
<pdfrwt beam="2">  1       -1 0.11071815E+00 0.12135506E+04</pdfrwt>
<totfact> 0.31919155E+01</totfact>
</mgrwt>
</event>
<event>
 6    1  0.1585031E-006  0.2106933E+04  0.7818608E-02  0.8558196E-01
          1   -1    0    0  501    0  0.00000000000E+00  0.00000000000E+00  0.60296137997E+03  0.60296137997E+03  0.00000000000E+00 0. -1.
         -1   -1    0    0    0  501 -0.00000000000E+00 -0.00000000000E+00 -0.18405682077E+04  0.18405682077E+04  0.00000000000E+00 0.  1.
         23    2    1    2    0    0 -0.39909812021E+03 -0.97277728548E+03 -0.59735589324E+03  0.12124746678E+04  0.87668695081E+02 0.  0.
         11    1    3    3    0    0 -0.13313694121E+03 -0.27703699647E+03 -0.21606594015E+03  0.37571190162E+03  0.00000000000E+00 0. -1.
        -11    1    3    3    0    0 -0.26596117900E+03 -0.69574028901E+03 -0.38128995310E+03  0.83676276615E+03  0.00000000000E+00 0.  1.
         22    1    1    2    0    0  0.39909812021E+03  0.97277728548E+03 -0.64025093450E+03  0.12310549199E+04  0.00000000000E+00 0. -1.
<mgrwt>
<rscale>  0 0.21069329E+04</rscale>
<asrwt>0</asrwt>
<pdfrwt beam="1">  1        1 0.92763290E-01 0.21069329E+04</pdfrwt>
<pdfrwt beam="2">  1       -1 0.28316434E+00 0.21069329E+04</pdfrwt>
<totfact> 0.13273372E+00</totfact>
</mgrwt>
</event>
<event>
 6    1  0.1585031E-006  0.1989194E+04  0.7818608E-02  0.8611689E-01
         -1   -1    0    0    0  501 -0.00000000000E+00  0.00000000000E+00  0.12935607799E+04  0.12935607799E+04  0.00000000000E+00 0. -1.
          1   -1    0    0  501    0  0.00000000000E+00 -0.00000000000E+00 -0.76472895222E+03  0.76472895222E+03  0.00000000000E+00 0.  1.
         23    2    1    2    0    0  0.45505545729E+03 -0.73687383650E+03 -0.23719090614E+03  0.90206771674E+03  0.86070433383E+02 0.  0.
         11    1    3    3    0    0  0.17662941979E+03 -0.36092579624E+03 -0.91894632942E+02  0.41220141423E+03  0.00000000000E+00 0. -1.
        -11    1    3    3    0    0  0.27842603750E+03 -0.37594804026E+03 -0.14529627320E+03  0.48986630251E+03  0.00000000000E+00 0.  1.
         22    1    1    2    0    0 -0.45505545729E+03  0.73687383650E+03  0.76602273383E+03  0.11562220154E+04  0.00000000000E+00 0. -1.
<mgrwt>
<rscale>  0 0.19891942E+04</rscale>
<asrwt>0</asrwt>
<pdfrwt beam="1">  1        1 0.11765061E+00 0.19891942E+04</pdfrwt>
<pdfrwt beam="2">  1       -1 0.19900935E+00 0.19891942E+04</pdfrwt>
<totfact> 0.33721251E+00</totfact>
</mgrwt>
</event>
<event>
 6    1  0.1585031E-006  0.8418355E+04  0.7818608E-02  0.7446574E-01
         -2   -1    0    0    0  501 -0.00000000000E+00  0.00000000000E+00  0.47026401920E+04  0.47026401920E+04  0.00000000000E+00 0.  1.
          2   -1    0    0  501    0  0.00000000000E+00 -0.00000000000E+00 -0.37674958217E+04  0.37674958217E+04  0.00000000000E+00 0. -1.
         23    2    1    2    0    0  0.16503963734E+04  0.11013756337E+03 -0.34261754387E+04  0.38056908218E+04  0.93091471561E+02 0.  0.
         13    1    3    3    0    0  0.90374118413E+03  0.36308084686E+02 -0.19634682316E+04  0.21617756363E+04  0.00000000000E+00 0. -1.
        -13    1    3    3    0    0  0.74665518928E+03  0.73829478684E+02 -0.14627072070E+04  0.16439151855E+04  0.00000000000E+00 0.  1.
         22    1    1    2    0    0 -0.16503963734E+04 -0.11013756337E+03  0.43613198089E+04  0.46644451919E+04  0.00000000000E+00 0.  1.
<mgrwt>
<rscale>  0 0.84183555E+04</rscale>
<asrwt>0</asrwt>
<pdfrwt beam="1">  1        2 0.57961474E+00 0.84183555E+04</pdfrwt>
<pdfrwt beam="2">  1       -2 0.72348311E+00 0.84183555E+04</pdfrwt>
<totfact> 0.55625961E-05</totfact>
</mgrwt>
</event>
<event>
 6    1  0.1585031E-006  0.4222427E+04  0.7818608E-02  0.7961120E-01
          1   -1    0    0  501    0  0.00000000000E+00  0.00000000000E+00  0.21321519464E+04  0.21321519464E+04  0.00000000000E+00 0. -1.
         -1   -1    0    0    0  501 -0.00000000000E+00 -0.00000000000E+00 -0.20904804853E+04  0.20904804853E+04  0.00000000000E+00 0.  1.
         23    2    1    2    0    0  0.17085260476E+04  0.85118920783E+03 -0.87905958053E+03  0.21033566182E+04  0.88198607935E+02 0.  0.
         13    1    3    3    0    0  0.13104775727E+03  0.83120069085E+02 -0.91758190318E+02  0.18028318297E+03  0.00000000000E+00 0.  1.
        -13    1    3    3    0    0  0.15774782903E+04  0.76806913874E+03 -0.78730139022E+03  0.19230734352E+04  0.00000000000E+00 0. -1.
         22    1    1    2    0    0 -0.17085260476E+04 -0.85118920783E+03  0.92073104161E+03  0.21192758135E+04  0.00000000000E+00 0. -1.
<mgrwt>
<rscale>  0 0.42224268E+04</rscale>
<asrwt>0</asrwt>
<pdfrwt beam="1">  1        1 0.32802338E+00 0.42224268E+04</pdfrwt>
<pdfrwt beam="2">  1       -1 0.32161238E+00 0.42224268E+04</pdfrwt>
<totfact> 0.44490268E-02</totfact>
</mgrwt>
</event>
<event>
 6    1  0.1585031E-006  0.1971082E+04  0.7818608E-02  0.8620262E-01
          2   -1    0    0  501    0  0.00000000000E+00  0.00000000000E+00  0.22680425755E+04  0.22680425755E+04  0.00000000000E+00 0.  1.
         -2   -1    0    0    0  501 -0.00000000000E+00 -0.00000000000E+00 -0.42825060575E+03  0.42825060575E+03  0.00000000000E+00 0. -1.
         23    2    1    2    0    0 -0.56321528731E+03  0.18324679908E+03  0.19955773335E+04  0.20838718159E+04  0.96963919588E+02 0.  0.
         11    1    3    3    0    0 -0.13648230176E+03  0.87840796641E+02  0.58202125193E+03  0.60422856764E+03  0.00000000000E+00 0. -1.
        -11    1    3    3    0    0 -0.42673298555E+03  0.95406002439E+02  0.14135560816E+04  0.14796432482E+04  0.00000000000E+00 0.  1.
         22    1    1    2    0    0  0.56321528731E+03 -0.18324679908E+03 -0.15578536376E+03  0.61242136539E+03  0.00000000000E+00 0. -1.
<mgrwt>
<rscale>  0 0.19710815E+04</rscale>
<asrwt>0</asrwt>
<pdfrwt beam="1">  1        2 0.34892962E+00 0.19710815E+04</pdfrwt>
<pdfrwt beam="2">  1       -2 0.65884710E-01 0.19710815E+04</pdfrwt>
<totfact> 0.93349144E+00</totfact>
</mgrwt>
</event>
<event>
 6    1  0.1585031E-006  0.7972501E+03  0.7818608E-02  0.9564006E-01
         -1   -1    0    0    0  501 -0.00000000000E+00  0.00000000000E+00  0.90758599989E+03  0.90758599989E+03  0.00000000000E+00 0. -1.
          1   -1    0    0  501    0  0.00000000000E+00 -0.00000000000E+00 -0.17508193875E+03  0.17508193875E+03  0.00000000000E+00 0.  1.
         23    2    1    2    0    0  0.20671887628E+03  0.31971061027E+03  0.23773346869E+03  0.45837192929E+03  0.92951897782E+02 0.  0.
         13    1    3    3    0    0  0.14173862786E+03  0.15210333550E+03  0.16081813965E+03  0.26284546285E+03  0.00000000000E+00 0.  1.
        -13    1    3    3    0    0  0.64980248416E+02  0.16760727477E+03  0.76915329039E+02  0.19552646645E+03  0.00000000000E+00 0. -1.
         22    1    1    2    0    0 -0.20671887628E+03 -0.31971061027E+03  0.49477059245E+03  0.62429600934E+03  0.00000000000E+00 0. -1.
<mgrwt>
<rscale>  0 0.79725006E+03</rscale>
<asrwt>0</asrwt>
<pdfrwt beam="1">  1        1 0.26935683E-01 0.79725006E+03</pdfrwt>
<pdfrwt beam="2">  1       -1 0.13962861E+00 0.79725006E+03</pdfrwt>
<totfact> 0.75787020E+01</totfact>
</mgrwt>
</event>
<event>
 6    1  0.1585031E-006  0.1058349E+04  0.7818608E-02  0.9246766E-01
         -1   -1    0    0    0  501 -0.00000000000E+00  0.00000000000E+00  0.19193775878E+03  0.19193775878E+03  0.00000000000E+00 0.  1.
          1   -1    0    0  501    0  0.00000000000E+00 -0.00000000000E+00 -0.14589411574E+04  0.14589411574E+04  0.00000000000E+00 0. -1.
         23    2    1    2    0    0  0.30681114656E+03 -0.28987288337E+03 -0.15044201706E+03  0.45720027980E+03  0.90774044695E+02 0.  0.
         13    1    3    3    0    0  0.17015479199E+03 -0.21441125298E+03 -0.11628253436E+03  0.29739950645E+03  0.00000000000E+00 0. -1.
        -13    1    3    3    0    0  0.13665635457E+03 -0.75461630390E+02 -0.34159482699E+02  0.15980077335E+03  0.00000000000E+00 0.  1.
         22    1    1    2    0    0 -0.30681114656E+03  0.28987288337E+03 -0.11165613816E+04  0.11936786364E+04  0.00000000000E+00 0.  1.
<mgrwt>
<rscale>  0 0.10583495E+04</rscale>
<asrwt>0</asrwt>
<pdfrwt beam="1">  1        1 0.22445249E+00 0.10583495E+04</pdfrwt>
<pdfrwt beam="2">  1       -1 0.29528886E-01 0.10583495E+04</pdfrwt>
<totfact> 0.73205517E+01</totfact>
</mgrwt>
</event>
<event>
 6    1  0.1585031E-006  0.1910459E+04  0.7818608E-02  0.8649668E-01
         -1   -1    0    0    0  501 -0.00000000000E+00  0.00000000000E+00  0.96990712042E+03  0.96990712042E+03  0.00000000000E+00 0.  1.
          1   -1    0    0  501    0  0.00000000000E+00 -0.00000000000E+00 -0.94077410123E+03  0.94077410123E+03  0.00000000000E+00 0. -1.
         23    2    1    2    0    0  0.77365567993E+02  0.86118363142E+03 -0.38639566541E+03  0.95136544159E+03  0.90398645218E+02 0.  0.
         11    1    3    3    0    0  0.15901155357E+01  0.43211328625E+03 -0.22068444585E+03  0.48520721889E+03  0.00000000000E+00 0. -1.
        -11    1    3    3    0    0  0.75775452457E+02  0.42907034517E+03 -0.16571121956E+03  0.46615822270E+03  0.00000000000E+00 0.  1.
         22    1    1    2    0    0 -0.77365567993E+02 -0.86118363142E+03  0.41552868460E+03  0.95931578006E+03  0.00000000000E+00 0.  1.
<mgrwt>
<rscale>  0 0.19104591E+04</rscale>
<asrwt>0</asrwt>
<pdfrwt beam="1">  1        1 0.14473448E+00 0.19104591E+04</pdfrwt>
<pdfrwt beam="2">  1       -1 0.14921648E+00 0.19104591E+04</pdfrwt>
<totfact> 0.55774461E+00</totfact>
</mgrwt>
</event>
<event>
 6    1  0.1585031E-006  0.2971520E+04  0.7818608E-02  0.8251911E-01
          2   -1    0    0  501    0  0.00000000000E+00  0.00000000000E+00  0.23699425792E+04  0.23699425792E+04  0.00000000000E+00 0. -1.
         -2   -1    0    0    0  501 -0.00000000000E+00 -0.00000000000E+00 -0.93144969510E+03  0.93144969510E+03  0.00000000000E+00 0.  1.
         23    2    1    2    0    0 -0.16015538176E+03  0.68636870022E+03  0.21713559978E+04  0.22846130051E+04  0.88983003180E+02 0.  0.
         13    1    3    3    0    0 -0.29233307858E+02  0.20431722054E+03  0.75734397490E+03  0.78496497324E+03  0.00000000000E+00 0.  1.
        -13    1    3    3    0    0 -0.13092207390E+03  0.48205147968E+03  0.14140120229E+04  0.14996480318E+04  0.00000000000E+00 0. -1.
         22    1    1    2    0    0  0.16015538176E+03 -0.68636870022E+03 -0.73286311368E+03  0.10167792692E+04  0.00000000000E+00 0.  1.
<mgrwt>
<rscale>  0 0.29715197E+04</rscale>
<asrwt>0</asrwt>
<pdfrwt beam="1">  1        2 0.36460655E+00 0.29715197E+04</pdfrwt>
<pdfrwt beam="2">  1       -2 0.14329995E+00 0.29715197E+04</pdfrwt>
<totfact> 0.11992896E+00</totfact>
</mgrwt>
</event>
<event>
 6    1  0.1585031E-006  0.6523062E+03  0.7818608E-02  0.9802461E-01
          1   -1    0    0  501    0  0.00000000000E+00  0.00000000000E+00  0.22256897251E+04  0.22256897251E+04  0.00000000000E+00 0. -1.
         -1   -1    0    0    0  501 -0.00000000000E+00 -0.00000000000E+00 -0.47794558800E+02  0.47794558800E+02  0.00000000000E+00 0.  1.
         23    2    1    2    0    0  0.84118180082E+02  0.29360539925E+03  0.14402083615E+04  0.14750722220E+04  0.91421752057E+02 0.  0.
         11    1    3    3    0    0  0.41869389958E+02  0.17819741056E+03  0.10541202100E+04  0.10698956865E+04  0.00000000000E+00 0.  1.
        -11    1    3    3    0    0  0.42248790124E+02  0.11540798868E+03  0.38608815152E+03  0.40517653543E+03  0.00000000000E+00 0. -1.
         22    1    1    2    0    0 -0.84118180082E+02 -0.29360539925E+03  0.73768680476E+03  0.79841206191E+03  0.00000000000E+00 0.  1.
<mgrwt>
<rscale>  0 0.65230624E+03</rscale>
<asrwt>0</asrwt>
<pdfrwt beam="1">  1        1 0.34241372E+00 0.65230624E+03</pdfrwt>
<pdfrwt beam="2">  1       -1 0.73530108E-02 0.65230624E+03</pdfrwt>
<totfact> 0.22350575E+02</totfact>
</mgrwt>
</event>
<event>
 6    1  0.1585031E-006  0.1513731E+04  0.7818608E-02  0.8875373E-01
          1   -1    0    0  501    0  0.00000000000E+00  0.00000000000E+00  0.71801420022E+03  0.71801420022E+03  0.00000000000E+00 0.  1.
         -1   -1    0    0    0  501 -0.00000000000E+00 -0.00000000000E+00 -0.79781938911E+03  0.79781938911E+03  0.00000000000E+00 0. -1.
         23    2    1    2    0    0 -0.24073348794E+03  0.24833027987E+02  0.67573571672E+03  0.72247909634E+03  0.82389285127E+02 0.  0.
         11    1    3    3    0    0 -0.91444130316E+02  0.46430582582E+02  0.22764552248E+03  0.24968041948E+03  0.00000000000E+00 0.  1.
        -11    1    3    3    0    0 -0.14928935763E+03 -0.21597554595E+02  0.44809019424E+03  0.47279867686E+03  0.00000000000E+00 0. -1.
         22    1    1    2    0    0  0.24073348794E+03 -0.24833027987E+02 -0.75554090561E+03  0.79335449299E+03  0.00000000000E+00 0. -1.
<mgrwt>
<rscale>  0 0.15137314E+04</rscale>
<asrwt>0</asrwt>
<pdfrwt beam="1">  1        1 0.11046372E+00 0.15137314E+04</pdfrwt>
<pdfrwt beam="2">  1       -1 0.12274144E+00 0.15137314E+04</pdfrwt>
<totfact> 0.14831373E+01</totfact>
</mgrwt>
</event>
<event>
 6    1  0.1585031E-006  0.1219687E+04  0.7818608E-02  0.9095797E-01
         -1   -1    0    0    0  501 -0.00000000000E+00  0.00000000000E+00  0.82855286608E+03  0.82855286608E+03  0.00000000000E+00 0.  1.
          1   -1    0    0  501    0  0.00000000000E+00 -0.00000000000E+00 -0.44886551187E+03  0.44886551187E+03  0.00000000000E+00 0. -1.
         23    2    1    2    0    0  0.46799509175E+02  0.29016673872E+03  0.74635319310E+03  0.80749203508E+03  0.92808229976E+02 0.  0.
         13    1    3    3    0    0  0.20826478122E+02  0.83944666641E+02  0.34297577913E+03  0.35371292642E+03  0.00000000000E+00 0.  1.
        -13    1    3    3    0    0  0.25973031053E+02  0.20622207208E+03  0.40337741397E+03  0.45377910865E+03  0.00000000000E+00 0. -1.
         22    1    1    2    0    0 -0.46799509175E+02 -0.29016673872E+03 -0.36666583889E+03  0.46992634287E+03  0.00000000000E+00 0. -1.
<mgrwt>
<rscale>  0 0.12196865E+04</rscale>
<asrwt>0</asrwt>
<pdfrwt beam="1">  1        1 0.69056233E-01 0.12196865E+04</pdfrwt>
<pdfrwt beam="2">  1       -1 0.12746967E+00 0.12196865E+04</pdfrwt>
<totfact> 0.27069088E+01</totfact>
</mgrwt>
</event>
<event>
 6    1  0.1585031E-006  0.3838835E+04  0.7818608E-02  0.8037872E-01
         -2   -1    0    0    0  501 -0.00000000000E+00  0.00000000000E+00  0.26388967122E+04  0.26388967122E+04  0.00000000000E+00 0.  1.
          2   -1    0    0  501    0  0.00000000000E+00 -0.00000000000E+00 -0.13960997464E+04  0.13960997464E+04  0.00000000000E+00 0. -1.
         23    2    1    2    0    0 -0.13575876942E+04 -0.13374120188E+04  0.85725414922E+03  0.20906820501E+04  0.65965920909E+02 0.  0.
         11    1    3    3    0    0 -0.10685794426E+04 -0.10749198474E+04  0.70494229960E+03  0.16716035263E+04  0.00000000000E+00 0. -1.
        -11    1    3    3    0    0 -0.28900825155E+03 -0.26249217147E+03  0.15231184962E+03  0.41907852376E+03  0.00000000000E+00 0.  1.
         22    1    1    2    0    0  0.13575876942E+04  0.13374120188E+04  0.38554281657E+03  0.19443144084E+04  0.00000000000E+00 0. -1.
<mgrwt>
<rscale>  0 0.38388347E+04</rscale>
<asrwt>0</asrwt>
<pdfrwt beam="1">  1        2 0.21478458E+00 0.38388347E+04</pdfrwt>
<pdfrwt beam="2">  1       -2 0.40598411E+00 0.38388347E+04</pdfrwt>
<totfact> 0.78788155E-02</totfact>
</mgrwt>
</event>
<event>
 6    1  0.1585031E-006  0.1338876E+04  0.7818608E-02  0.8999292E-01
          1   -1    0    0  501    0  0.00000000000E+00  0.00000000000E+00  0.11712332101E+04  0.11712332101E+04  0.00000000000E+00 0. -1.
         -1   -1    0    0    0  501 -0.00000000000E+00 -0.00000000000E+00 -0.38262852051E+03  0.38262852051E+03  0.00000000000E+00 0.  1.
         23    2    1    2    0    0  0.22941948904E+03 -0.61834563402E+03  0.28543490649E+03  0.72430494793E+03  0.90332423337E+02 0.  0.
         13    1    3    3    0    0  0.13111456751E+03 -0.38584508478E+03  0.12949561987E+03  0.42759393685E+03  0.00000000000E+00 0. -1.
        -13    1    3    3    0    0  0.98304921524E+02 -0.23250054923E+03  0.15593928661E+03  0.29671101109E+03  0.00000000000E+00 0.  1.
         22    1    1    2    0    0 -0.22941948904E+03  0.61834563402E+03  0.50316978312E+03  0.82955678269E+03  0.00000000000E+00 0. -1.
<mgrwt>
<rscale>  0 0.13388760E+04</rscale>
<asrwt>0</asrwt>
<pdfrwt beam="1">  1        1 0.18018972E+00 0.13388760E+04</pdfrwt>
<pdfrwt beam="2">  1       -1 0.58865927E-01 0.13388760E+04</pdfrwt>
<totfact> 0.32144570E+01</totfact>
</mgrwt>
</event>
<event>
 6    1  0.1585031E-006  0.4315306E+04  0.7818608E-02  0.7943794E-01
         -2   -1    0    0    0  501 -0.00000000000E+00  0.00000000000E+00  0.15779454163E+04  0.15779454163E+04  0.00000000000E+00 0.  1.
          2   -1    0    0  501    0  0.00000000000E+00 -0.00000000000E+00 -0.29503346808E+04  0.29503346808E+04  0.00000000000E+00 0. -1.
         23    2    1    2    0    0  0.12727526327E+04 -0.69345559141E+03 -0.23623589845E+04  0.27730536251E+04  0.91140081652E+02 0.  0.
         11    1    3    3    0    0  0.82922827333E+03 -0.49395636040E+03 -0.16122985344E+04  0.18791271855E+04  0.00000000000E+00 0. -1.
        -11    1    3    3    0    0  0.44352435936E+03 -0.19949923101E+03 -0.75006045015E+03  0.89392643959E+03  0.00000000000E+00 0.  1.
         22    1    1    2    0    0 -0.12727526327E+04  0.69345559141E+03  0.98996972008E+03  0.17552264720E+04  0.00000000000E+00 0.  1.
<mgrwt>
<rscale>  0 0.43153063E+04</rscale>
<asrwt>0</asrwt>
<pdfrwt beam="1">  1        2 0.45389765E+00 0.43153063E+04</pdfrwt>
<pdfrwt beam="2">  1       -2 0.24276083E+00 0.43153063E+04</pdfrwt>
<totfact> 0.10237894E-01</totfact>
</mgrwt>
</event>
<event>
 6    1  0.1585031E-006  0.4811967E+04  0.7818608E-02  0.7858186E-01
         -1   -1    0    0    0  501 -0.00000000000E+00  0.00000000000E+00  0.19861960194E+04  0.19861960194E+04  0.00000000000E+00 0.  1.
          1   -1    0    0  501    0  0.00000000000E+00 -0.00000000000E+00 -0.29144937980E+04  0.29144937980E+04  0.00000000000E+00 0. -1.
         23    2    1    2    0    0 -0.53877886639E+03  0.14158130103E+04  0.14382866983E+04  0.20907910233E+04  0.89046783697E+02 0.  0.
         13    1    3    3    0    0 -0.29560771247E+03  0.89811706605E+03  0.89672158381E+03  0.13031146469E+04  0.00000000000E+00 0. -1.
        -13    1    3    3    0    0 -0.24317115393E+03  0.51769594420E+03  0.54156511447E+03  0.78767637641E+03  0.00000000000E+00 0.  1.
         22    1    1    2    0    0  0.53877886639E+03 -0.14158130103E+04 -0.23665844769E+04  0.28098987941E+04  0.00000000000E+00 0. -1.
<mgrwt>
<rscale>  0 0.48119667E+04</rscale>
<asrwt>0</asrwt>
<pdfrwt beam="1">  1        1 0.44838366E+00 0.48119667E+04</pdfrwt>
<pdfrwt beam="2">  1       -1 0.30556862E+00 0.48119667E+04</pdfrwt>
<totfact> 0.15356148E-02</totfact>
</mgrwt>
</event>
<event>
 6    1  0.1585031E-006  0.8834550E+03  0.7818608E-02  0.9446503E-01
          3   -1    0    0  501    0  0.00000000000E+00  0.00000000000E+00  0.92943242945E+03  0.92943242945E+03  0.00000000000E+00 0. -1.
         -3   -1    0    0    0  501 -0.00000000000E+00 -0.00000000000E+00 -0.20993797850E+03  0.20993797850E+03  0.00000000000E+00 0.  1.
         23    2    1    2    0    0 -0.41737815674E+03 -0.56768993940E+02  0.20969835956E+03  0.47806919127E+03  0.84554747027E+02 0.  0.
         13    1    3    3    0    0 -0.23779727455E+03  0.47605488943E+01  0.13911854523E+03  0.27554341987E+03  0.00000000000E+00 0. -1.
        -13    1    3    3    0    0 -0.17958088219E+03 -0.61529542834E+02  0.70579814334E+02  0.20252577140E+03  0.00000000000E+00 0.  1.
         22    1    1    2    0    0  0.41737815674E+03  0.56768993940E+02  0.50979609139E+03  0.66130121669E+03  0.00000000000E+00 0. -1.
<mgrwt>
<rscale>  0 0.88345496E+03</rscale>
<asrwt>0</asrwt>
<pdfrwt beam="1">  1        3 0.14298960E+00 0.88345496E+03</pdfrwt>
<pdfrwt beam="2">  1       -3 0.32298151E-01 0.88345496E+03</pdfrwt>
<totfact> 0.90743134E+00</totfact>
</mgrwt>
</event>
<event>
 6    1  0.1585031E-006  0.1642367E+04  0.7818608E-02  0.8794935E-01
          1   -1    0    0  501    0  0.00000000000E+00  0.00000000000E+00  0.98596674566E+03  0.98596674566E+03  0.00000000000E+00 0. -1.
         -1   -1    0    0    0  501 -0.00000000000E+00 -0.00000000000E+00 -0.68394024967E+03  0.68394024967E+03  0.00000000000E+00 0.  1.
         23    2    1    2    0    0  0.28080939829E+01  0.52780632182E+03  0.78782694283E+03  0.95255807541E+03  0.90045524254E+02 0.  0.
         13    1    3    3    0    0 -0.34709746963E+02  0.14698774584E+03  0.18940205137E+03  0.24224636432E+03  0.00000000000E+00 0.  1.
        -13    1    3    3    0    0  0.37517840946E+02  0.38081857598E+03  0.59842489146E+03  0.71031171110E+03  0.00000000000E+00 0. -1.
         22    1    1    2    0    0 -0.28080939829E+01 -0.52780632182E+03 -0.48580044685E+03  0.71734891992E+03  0.00000000000E+00 0.  1.
<mgrwt>
<rscale>  0 0.16423670E+04</rscale>
<asrwt>0</asrwt>
<pdfrwt beam="1">  1        1 0.15168719E+00 0.16423670E+04</pdfrwt>
<pdfrwt beam="2">  1       -1 0.10522158E+00 0.16423670E+04</pdfrwt>
<totfact> 0.12575017E+01</totfact>
</mgrwt>
</event>
<event>
 6    1  0.1585031E-006  0.1782919E+04  0.7818608E-02  0.8715436E-01
          2   -1    0    0  501    0  0.00000000000E+00  0.00000000000E+00  0.17776491136E+04  0.17776491136E+04  0.00000000000E+00 0. -1.
         -2   -1    0    0    0  501 -0.00000000000E+00 -0.00000000000E+00 -0.44705094145E+03  0.44705094145E+03  0.00000000000E+00 0.  1.
         23    2    1    2    0    0 -0.68989004773E+03  0.43079152885E+02 -0.30859762052E+02  0.69781702155E+03  0.90510658326E+02 0.  0.
         11    1    3    3    0    0 -0.13366853571E+03  0.39198881492E+02  0.12721238084E+02  0.13987730211E+03  0.00000000000E+00 0.  1.
        -11    1    3    3    0    0 -0.55622151203E+03  0.38802713932E+01 -0.43581000136E+02  0.55793971943E+03  0.00000000000E+00 0. -1.
         22    1    1    2    0    0  0.68989004773E+03 -0.43079152885E+02  0.13614579342E+04  0.15268830335E+04  0.00000000000E+00 0. -1.
<mgrwt>
<rscale>  0 0.17829186E+04</rscale>
<asrwt>0</asrwt>
<pdfrwt beam="1">  1        2 0.27348447E+00 0.17829186E+04</pdfrwt>
<pdfrwt beam="2">  1       -2 0.68777069E-01 0.17829186E+04</pdfrwt>
<totfact> 0.16213455E+01</totfact>
</mgrwt>
</event>
<event>
 6    1  0.1585031E-006  0.2932661E+04  0.7818608E-02  0.8263226E-01
          1   -1    0    0  501    0  0.00000000000E+00  0.00000000000E+00  0.16076772873E+04  0.16076772873E+04  0.00000000000E+00 0. -1.
         -1   -1    0    0    0  501 -0.00000000000E+00 -0.00000000000E+00 -0.13374105033E+04  0.13374105033E+04  0.00000000000E+00 0.  1.
         23    2    1    2    0    0  0.21793401789E+03  0.54381590616E+03  0.14836183824E+04  0.15977002897E+04  0.91058965268E+02 0.  0.
         13    1    3    3    0    0  0.13298263085E+03  0.34319283854E+03  0.80937128638E+03  0.88912742830E+03  0.00000000000E+00 0.  1.
        -13    1    3    3    0    0  0.84951387035E+02  0.20062306762E+03  0.67424709603E+03  0.70857286141E+03  0.00000000000E+00 0. -1.
         22    1    1    2    0    0 -0.21793401789E+03 -0.54381590616E+03 -0.12133515985E+04  0.13473875009E+04  0.00000000000E+00 0.  1.
<mgrwt>
<rscale>  0 0.29326606E+04</rscale>
<asrwt>0</asrwt>
<pdfrwt beam="1">  1        1 0.24733497E+00 0.29326606E+04</pdfrwt>
<pdfrwt beam="2">  1       -1 0.20575546E+00 0.29326606E+04</pdfrwt>
<totfact> 0.64842997E-01</totfact>
</mgrwt>
</event>
<event>
 6    1  0.1585031E-006  0.2804397E+04  0.7818608E-02  0.8301904E-01
         -2   -1    0    0    0  501 -0.00000000000E+00  0.00000000000E+00  0.83408858129E+03  0.83408858129E+03  0.00000000000E+00 0.  1.
          2   -1    0    0  501    0  0.00000000000E+00 -0.00000000000E+00 -0.23572570548E+04  0.23572570548E+04  0.00000000000E+00 0. -1.
         23    2    1    2    0    0 -0.80078533569E+03  0.46046994530E+01 -0.20701664238E+04  0.22215595181E+04  0.91974524462E+02 0.  0.
         11    1    3    3    0    0 -0.64954241519E+03  0.19808627756E+02 -0.17602343614E+04  0.18763589043E+04  0.00000000000E+00 0. -1.
        -11    1    3    3    0    0 -0.15124292050E+03 -0.15203928303E+02 -0.30993206238E+03  0.34520061374E+03  0.00000000000E+00 0.  1.
         22    1    1    2    0    0  0.80078533569E+03 -0.46046994530E+01  0.54699795025E+03  0.96978611801E+03  0.00000000000E+00 0.  1.
<mgrwt>
<rscale>  0 0.28043974E+04</rscale>
<asrwt>0</asrwt>
<pdfrwt beam="1">  1        2 0.36265493E+00 0.28043974E+04</pdfrwt>
<pdfrwt beam="2">  1       -2 0.12832132E+00 0.28043974E+04</pdfrwt>
<totfact> 0.16417281E+00</totfact>
</mgrwt>
</event>
<event>
 6    1  0.1585031E-006  0.4040755E+04  0.7818608E-02  0.7996375E-01
         -1   -1    0    0    0  501 -0.00000000000E+00  0.00000000000E+00  0.10878981000E+04  0.10878981000E+04  0.00000000000E+00 0.  1.
          1   -1    0    0  501    0  0.00000000000E+00 -0.00000000000E+00 -0.37521207850E+04  0.37521207850E+04  0.00000000000E+00 0. -1.
         23    2    1    2    0    0 -0.18469705758E+04 -0.79941289569E+03 -0.15310182078E+04  0.25303622713E+04  0.91406704307E+02 0.  0.
         13    1    3    3    0    0 -0.34573256681E+03 -0.11160038475E+03 -0.28088627438E+03  0.45921972166E+03  0.00000000000E+00 0.  1.
        -13    1    3    3    0    0 -0.15012380090E+04 -0.68781251094E+03 -0.12501319334E+04  0.20711425496E+04  0.00000000000E+00 0. -1.
         22    1    1    2    0    0  0.18469705758E+04  0.79941289569E+03 -0.11332044772E+04  0.23096566137E+04  0.00000000000E+00 0.  1.
<mgrwt>
<rscale>  0 0.40407549E+04</rscale>
<asrwt>0</asrwt>
<pdfrwt beam="1">  1        1 0.57724936E+00 0.40407549E+04</pdfrwt>
<pdfrwt beam="2">  1       -1 0.16736894E+00 0.40407549E+04</pdfrwt>
<totfact> 0.31291890E-02</totfact>
</mgrwt>
</event>
<event>
 6    1  0.1585031E-006  0.4879180E+04  0.7818608E-02  0.7847420E-01
          2   -1    0    0  501    0  0.00000000000E+00  0.00000000000E+00  0.15473974748E+04  0.15473974748E+04  0.00000000000E+00 0. -1.
         -2   -1    0    0    0  501 -0.00000000000E+00 -0.00000000000E+00 -0.38462001429E+04  0.38462001429E+04  0.00000000000E+00 0.  1.
         23    2    1    2    0    0  0.12485631808E+04 -0.66028594636E+03  0.10479468003E+04  0.17610200821E+04  0.90064898371E+02 0.  0.
         13    1    3    3    0    0  0.79669893326E+03 -0.39694272255E+03  0.61267733585E+03  0.10805860600E+04  0.00000000000E+00 0. -1.
        -13    1    3    3    0    0  0.45186424755E+03 -0.26334322381E+03  0.43526946450E+03  0.68043402212E+03  0.00000000000E+00 0.  1.
         22    1    1    2    0    0 -0.12485631808E+04  0.66028594636E+03 -0.33467494684E+04  0.36325775355E+04  0.00000000000E+00 0.  1.
<mgrwt>
<rscale>  0 0.48791804E+04</rscale>
<asrwt>0</asrwt>
<pdfrwt beam="1">  1        2 0.23806115E+00 0.48791804E+04</pdfrwt>
<pdfrwt beam="2">  1       -2 0.59172309E+00 0.48791804E+04</pdfrwt>
<totfact> 0.48531202E-03</totfact>
</mgrwt>
</event>
<event>
 6    1  0.1585031E-006  0.3774916E+04  0.7818608E-02  0.8051559E-01
         -1   -1    0    0    0  501 -0.00000000000E+00  0.00000000000E+00  0.24167460533E+04  0.24167460533E+04  0.00000000000E+00 0.  1.
          1   -1    0    0  501    0  0.00000000000E+00 -0.00000000000E+00 -0.14740885042E+04  0.14740885042E+04  0.00000000000E+00 0. -1.
         23    2    1    2    0    0 -0.92608652306E+03 -0.16431977517E+04  0.44871440872E+03  0.19410358691E+04  0.92414961813E+02 0.  0.
         13    1    3    3    0    0 -0.39227589995E+03 -0.73152291670E+03  0.24110552144E+03  0.86437146633E+03  0.00000000000E+00 0. -1.
        -13    1    3    3    0    0 -0.53381062312E+03 -0.91167483499E+03  0.20760888728E+03  0.10766644028E+04  0.00000000000E+00 0.  1.
         22    1    1    2    0    0  0.92608652306E+03  0.16431977517E+04  0.49394314033E+03  0.19497986884E+04  0.00000000000E+00 0.  1.
<mgrwt>
<rscale>  0 0.37749159E+04</rscale>
<asrwt>0</asrwt>
<pdfrwt beam="1">  1        1 0.22678285E+00 0.37749159E+04</pdfrwt>
<pdfrwt beam="2">  1       -1 0.37180709E+00 0.37749159E+04</pdfrwt>
<totfact> 0.60370665E-02</totfact>
</mgrwt>
</event>
<event>
 6    1  0.1585031E-006  0.2243868E+04  0.7818608E-02  0.8500388E-01
         -2   -1    0    0    0  501 -0.00000000000E+00  0.00000000000E+00  0.48032545694E+03  0.48032545694E+03  0.00000000000E+00 0.  1.
          2   -1    0    0  501    0  0.00000000000E+00 -0.00000000000E+00 -0.26205892485E+04  0.26205892485E+04  0.00000000000E+00 0. -1.
         23    2    1    2    0    0 -0.60639180804E+03  0.78323637350E+03 -0.34940202243E+03  0.10543673403E+04  0.91861163736E+02 0.  0.
         13    1    3    3    0    0 -0.21942089552E+03  0.28099879370E+03 -0.79451839441E+02  0.36526489873E+03  0.00000000000E+00 0. -1.
        -13    1    3    3    0    0 -0.38697091252E+03  0.50223757980E+03 -0.26995018298E+03  0.68910244158E+03  0.00000000000E+00 0.  1.
         22    1    1    2    0    0  0.60639180804E+03 -0.78323637350E+03 -0.17908617692E+04  0.20465473652E+04  0.00000000000E+00 0. -1.
<mgrwt>
<rscale>  0 0.22438678E+04</rscale>
<asrwt>0</asrwt>
<pdfrwt beam="1">  1        2 0.40316758E+00 0.22438678E+04</pdfrwt>
<pdfrwt beam="2">  1       -2 0.73896224E-01 0.22438678E+04</pdfrwt>
<totfact> 0.44486441E+00</totfact>
</mgrwt>
</event>
<event>
 6    1  0.1585031E-006  0.1099745E+04  0.7818608E-02  0.9205440E-01
          1   -1    0    0  501    0  0.00000000000E+00  0.00000000000E+00  0.91302827754E+03  0.91302827754E+03  0.00000000000E+00 0. -1.
         -1   -1    0    0    0  501 -0.00000000000E+00 -0.00000000000E+00 -0.33116156066E+03  0.33116156066E+03  0.00000000000E+00 0.  1.
         23    2    1    2    0    0  0.12967644891E+03  0.45759874431E+03 -0.11779574260E+02  0.48351348707E+03  0.86220308593E+02 0.  0.
         13    1    3    3    0    0  0.77134607971E+01  0.16760010822E+03  0.10636107516E+02  0.16811430795E+03  0.00000000000E+00 0. -1.
        -13    1    3    3    0    0  0.12196298811E+03  0.28999863609E+03 -0.22415681776E+02  0.31539917912E+03  0.00000000000E+00 0.  1.
         22    1    1    2    0    0 -0.12967644891E+03 -0.45759874431E+03  0.59364629113E+03  0.76067635113E+03  0.00000000000E+00 0. -1.
<mgrwt>
<rscale>  0 0.10997452E+04</rscale>
<asrwt>0</asrwt>
<pdfrwt beam="1">  1        1 0.14046589E+00 0.10997452E+04</pdfrwt>
<pdfrwt beam="2">  1       -1 0.50947933E-01 0.10997452E+04</pdfrwt>
<totfact> 0.68494283E+01</totfact>
</mgrwt>
</event>
<event>
 6    1  0.1585031E-006  0.1108879E+04  0.7818608E-02  0.9196581E-01
         -1   -1    0    0    0  501 -0.00000000000E+00  0.00000000000E+00  0.23758117668E+03  0.23758117668E+03  0.00000000000E+00 0.  1.
          1   -1    0    0  501    0  0.00000000000E+00 -0.00000000000E+00 -0.12938871635E+04  0.12938871635E+04  0.00000000000E+00 0. -1.
         23    2    1    2    0    0 -0.35070077005E+03  0.44429464801E+02  0.53326947186E+02  0.36688676053E+03  0.82444674142E+02 0.  0.
         11    1    3    3    0    0 -0.12207311378E+03  0.51964930945E+02  0.36047973810E+02  0.13748329198E+03  0.00000000000E+00 0. -1.
        -11    1    3    3    0    0 -0.22862765627E+03 -0.75354661442E+01  0.17278973376E+02  0.22940346855E+03  0.00000000000E+00 0.  1.
         22    1    1    2    0    0  0.35070077005E+03 -0.44429464801E+02 -0.11096329340E+04  0.11645815797E+04  0.00000000000E+00 0. -1.
<mgrwt>
<rscale>  0 0.11088791E+04</rscale>
<asrwt>0</asrwt>
<pdfrwt beam="1">  1        1 0.19905957E+00 0.11088791E+04</pdfrwt>
<pdfrwt beam="2">  1       -1 0.36550950E-01 0.11088791E+04</pdfrwt>
<totfact> 0.65265512E+01</totfact>
</mgrwt>
</event>
<event>
 6    1  0.1585031E-006  0.5275032E+04  0.7818608E-02  0.7787427E-01
          2   -1    0    0  501    0  0.00000000000E+00  0.00000000000E+00  0.27848735560E+04  0.27848735560E+04  0.00000000000E+00 0. -1.
         -2   -1    0    0    0  501 -0.00000000000E+00 -0.00000000000E+00 -0.24979552160E+04  0.24979552160E+04  0.00000000000E+00 0.  1.
         23    2    1    2    0    0 -0.39594065828E+03  0.39355508331E+03  0.27242168440E+04  0.27824130853E+04  0.93864558088E+02 0.  0.
         13    1    3    3    0    0 -0.23972470102E+03  0.28378601940E+03  0.19439139102E+04  0.19790916420E+04  0.00000000000E+00 0.  1.
        -13    1    3    3    0    0 -0.15621595726E+03  0.10976906391E+03  0.78030293387E+03  0.80332144332E+03  0.00000000000E+00 0. -1.
         22    1    1    2    0    0  0.39594065828E+03 -0.39355508331E+03 -0.24372985041E+04  0.25004156867E+04  0.00000000000E+00 0.  1.
<mgrwt>
<rscale>  0 0.52750315E+04</rscale>
<asrwt>0</asrwt>
<pdfrwt beam="1">  1        2 0.42844209E+00 0.52750315E+04</pdfrwt>
<pdfrwt beam="2">  1       -2 0.38430080E+00 0.52750315E+04</pdfrwt>
<totfact> 0.15805178E-02</totfact>
</mgrwt>
</event>
<event>
 6    1  0.1585031E-006  0.1446030E+04  0.7818608E-02  0.8921157E-01
          2   -1    0    0  501    0  0.00000000000E+00  0.00000000000E+00  0.79626067303E+03  0.79626067303E+03  0.00000000000E+00 0. -1.
         -2   -1    0    0    0  501 -0.00000000000E+00 -0.00000000000E+00 -0.65650696351E+03  0.65650696351E+03  0.00000000000E+00 0.  1.
         23    2    1    2    0    0  0.37625894349E+02 -0.52254036731E+03  0.56660727945E+03  0.77699540156E+03  0.90630577191E+02 0.  0.
         13    1    3    3    0    0  0.36372834153E+02 -0.14074798155E+03  0.11317382530E+03  0.18423162624E+03  0.00000000000E+00 0.  1.
        -13    1    3    3    0    0  0.12530601961E+01 -0.38179238576E+03  0.45343345415E+03  0.59276377532E+03  0.00000000000E+00 0. -1.
         22    1    1    2    0    0 -0.37625894349E+02  0.52254036731E+03 -0.42685356994E+03  0.67577223498E+03  0.00000000000E+00 0.  1.
<mgrwt>
<rscale>  0 0.14460300E+04</rscale>
<asrwt>0</asrwt>
<pdfrwt beam="1">  1        2 0.12250164E+00 0.14460300E+04</pdfrwt>
<pdfrwt beam="2">  1       -2 0.10100107E+00 0.14460300E+04</pdfrwt>
<totfact> 0.27128909E+01</totfact>
</mgrwt>
</event>
<event>
 6    1  0.1585031E-006  0.7746525E+03  0.7818608E-02  0.9597449E-01
          2   -1    0    0  501    0  0.00000000000E+00  0.00000000000E+00  0.33464613773E+03  0.33464613773E+03  0.00000000000E+00 0. -1.
         -2   -1    0    0    0  501 -0.00000000000E+00 -0.00000000000E+00 -0.44829925968E+03  0.44829925968E+03  0.00000000000E+00 0.  1.
         23    2    1    2    0    0  0.15147964537E+03  0.24681544050E+03  0.19428243762E+03  0.36023006355E+03  0.90311065176E+02 0.  0.
         11    1    3    3    0    0  0.53958254023E+01  0.50934668105E+02  0.68117258524E+02  0.85225678381E+02  0.00000000000E+00 0.  1.
        -11    1    3    3    0    0  0.14608381996E+03  0.19588077239E+03  0.12616517909E+03  0.27500438517E+03  0.00000000000E+00 0. -1.
         22    1    1    2    0    0 -0.15147964537E+03 -0.24681544050E+03 -0.30793555957E+03  0.42271533386E+03  0.00000000000E+00 0.  1.
<mgrwt>
<rscale>  0 0.77465248E+03</rscale>
<asrwt>0</asrwt>
<pdfrwt beam="1">  1        2 0.51484022E-01 0.77465248E+03</pdfrwt>
<pdfrwt beam="2">  1       -2 0.68969116E-01 0.77465248E+03</pdfrwt>
<totfact> 0.18815593E+02</totfact>
</mgrwt>
</event>
<event>
 6    1  0.1585031E-006  0.1767687E+04  0.7818608E-02  0.8723674E-01
         -1   -1    0    0    0  501 -0.00000000000E+00  0.00000000000E+00  0.12219869370E+04  0.12219869370E+04  0.00000000000E+00 0. -1.
          1   -1    0    0  501    0  0.00000000000E+00 -0.00000000000E+00 -0.63927002372E+03  0.63927002372E+03  0.00000000000E+00 0.  1.
         23    2    1    2    0    0  0.17972521116E+03 -0.22881030569E+03  0.11680790291E+04  0.12075719341E+04  0.95739492176E+02 0.  0.
         13    1    3    3    0    0  0.12105263976E+03 -0.16455504556E+03  0.62424871411E+03  0.65682460496E+03  0.00000000000E+00 0.  1.
        -13    1    3    3    0    0  0.58672571401E+02 -0.64255260133E+02  0.54383031494E+03  0.55074732913E+03  0.00000000000E+00 0. -1.
         22    1    1    2    0    0 -0.17972521116E+03  0.22881030569E+03 -0.58536211575E+03  0.65368502666E+03  0.00000000000E+00 0.  1.
<mgrwt>
<rscale>  0 0.17676873E+04</rscale>
<asrwt>0</asrwt>
<pdfrwt beam="1">  1        1 0.98349235E-01 0.17676873E+04</pdfrwt>
<pdfrwt beam="2">  1       -1 0.18799799E+00 0.17676873E+04</pdfrwt>
<totfact> 0.53905684E+00</totfact>
</mgrwt>
</event>
<event>
 6    1  0.1585031E-006  0.2847297E+04  0.7818608E-02  0.8288733E-01
          1   -1    0    0  501    0  0.00000000000E+00  0.00000000000E+00  0.18166282589E+04  0.18166282589E+04  0.00000000000E+00 0. -1.
         -1   -1    0    0    0  501 -0.00000000000E+00 -0.00000000000E+00 -0.11156792261E+04  0.11156792261E+04  0.00000000000E+00 0.  1.
         23    2    1    2    0    0  0.11039595262E+04 -0.45373181824E+03  0.11471221533E+04  0.16580745190E+04  0.93395275394E+02 0.  0.
         11    1    3    3    0    0  0.11461294565E+03 -0.64107471411E+02  0.16222716176E+03  0.20871882333E+03  0.00000000000E+00 0.  1.
        -11    1    3    3    0    0  0.98934658053E+03 -0.38962434683E+03  0.98489499157E+03  0.14493556956E+04  0.00000000000E+00 0. -1.
         22    1    1    2    0    0 -0.11039595262E+04  0.45373181824E+03 -0.44617312045E+03  0.12742329660E+04  0.00000000000E+00 0.  1.
<mgrwt>
<rscale>  0 0.28472965E+04</rscale>
<asrwt>0</asrwt>
<pdfrwt beam="1">  1        1 0.27948127E+00 0.28472965E+04</pdfrwt>
<pdfrwt beam="2">  1       -1 0.17164296E+00 0.28472965E+04</pdfrwt>
<totfact> 0.81909009E-01</totfact>
</mgrwt>
</event>
<event>
 6    1  0.1585031E-006  0.6945266E+03  0.7818608E-02  0.9726639E-01
         -1   -1    0    0    0  501 -0.00000000000E+00  0.00000000000E+00  0.35448645449E+03  0.35448645449E+03  0.00000000000E+00 0.  1.
          1   -1    0    0  501    0  0.00000000000E+00 -0.00000000000E+00 -0.34018730351E+03  0.34018730351E+03  0.00000000000E+00 0. -1.
         23    2    1    2    0    0 -0.31720598732E+03  0.53839847768E+02 -0.10671868293E+03  0.35092430896E+03  0.90777892319E+02 0.  0.
         11    1    3    3    0    0 -0.25818973562E+03  0.79145961449E+02 -0.88413635277E+02  0.28415311664E+03  0.00000000000E+00 0. -1.
        -11    1    3    3    0    0 -0.59016251700E+02 -0.25306113681E+02 -0.18305047648E+02  0.66771192319E+02  0.00000000000E+00 0.  1.
         22    1    1    2    0    0  0.31720598732E+03 -0.53839847768E+02  0.12101783391E+03  0.34374944905E+03  0.00000000000E+00 0.  1.
<mgrwt>
<rscale>  0 0.69452658E+03</rscale>
<asrwt>0</asrwt>
<pdfrwt beam="1">  1        1 0.52336508E-01 0.69452658E+03</pdfrwt>
<pdfrwt beam="2">  1       -1 0.54536378E-01 0.69452658E+03</pdfrwt>
<totfact> 0.25607406E+02</totfact>
</mgrwt>
</event>
<event>
 6    1  0.1585031E-006  0.1114804E+04  0.7818608E-02  0.9190882E-01
          1   -1    0    0  501    0  0.00000000000E+00  0.00000000000E+00  0.95629878375E+03  0.95629878375E+03  0.00000000000E+00 0. -1.
         -1   -1    0    0    0  501 -0.00000000000E+00 -0.00000000000E+00 -0.32489503918E+03  0.32489503918E+03  0.00000000000E+00 0.  1.
         23    2    1    2    0    0 -0.10871306220E+03 -0.14233485694E+03  0.91988230328E+03  0.94163879023E+03  0.91773732623E+02 0.  0.
         13    1    3    3    0    0 -0.70807300172E+02 -0.65033040720E+02  0.28122359144E+03  0.29720309306E+03  0.00000000000E+00 0. -1.
        -13    1    3    3    0    0 -0.37905762030E+02 -0.77301816218E+02  0.63865871184E+03  0.64443569717E+03  0.00000000000E+00 0.  1.
         22    1    1    2    0    0  0.10871306220E+03  0.14233485694E+03 -0.28847855871E+03  0.33955503269E+03  0.00000000000E+00 0.  1.
<mgrwt>
<rscale>  0 0.11148035E+04</rscale>
<asrwt>0</asrwt>
<pdfrwt beam="1">  1        1 0.14712289E+00 0.11148035E+04</pdfrwt>
<pdfrwt beam="2">  1       -1 0.49983853E-01 0.11148035E+04</pdfrwt>
<totfact> 0.65485385E+01</totfact>
</mgrwt>
</event>
<event>
 6    1  0.1585031E-006  0.4324018E+04  0.7818608E-02  0.7942192E-01
         -3   -1    0    0    0  501 -0.00000000000E+00  0.00000000000E+00  0.15793187465E+04  0.15793187465E+04  0.00000000000E+00 0. -1.
          3   -1    0    0  501    0  0.00000000000E+00 -0.00000000000E+00 -0.29596832086E+04  0.29596832086E+04  0.00000000000E+00 0.  1.
         23    2    1    2    0    0  0.10153237041E+04 -0.13185700258E+04 -0.21376623939E+04  0.27106121459E+04  0.91151293823E+02 0.  0.
         11    1    3    3    0    0  0.46069557591E+03 -0.63897382295E+03 -0.94948632615E+03  0.12337148145E+04  0.00000000000E+00 0.  1.
        -11    1    3    3    0    0  0.55462812820E+03 -0.67959620285E+03 -0.11881760677E+04  0.14768973314E+04  0.00000000000E+00 0. -1.
         22    1    1    2    0    0 -0.10153237041E+04  0.13185700258E+04  0.75729793171E+03  0.18283898092E+04  0.00000000000E+00 0. -1.
<mgrwt>
<rscale>  0 0.43240181E+04</rscale>
<asrwt>0</asrwt>
<pdfrwt beam="1">  1        3 0.45533588E+00 0.43240181E+04</pdfrwt>
<pdfrwt beam="2">  1       -3 0.24297212E+00 0.43240181E+04</pdfrwt>
<totfact> 0.91100377E-04</totfact>
</mgrwt>
</event>
<event>
 6    1  0.1585031E-006  0.1131555E+04  0.7818608E-02  0.9174971E-01
          2   -1    0    0  501    0  0.00000000000E+00  0.00000000000E+00  0.11103118311E+04  0.11103118311E+04  0.00000000000E+00 0. -1.
         -2   -1    0    0    0  501 -0.00000000000E+00 -0.00000000000E+00 -0.28830094036E+03  0.28830094036E+03  0.00000000000E+00 0.  1.
         23    2    1    2    0    0  0.17902619200E+03 -0.42527227595E+03  0.17014739690E+02  0.47075195792E+03  0.91711604501E+02 0.  0.
         13    1    3    3    0    0  0.78230351239E+02 -0.18046497239E+03 -0.38054953993E+02  0.20033914655E+03  0.00000000000E+00 0. -1.
        -13    1    3    3    0    0  0.10079584076E+03 -0.24480730356E+03  0.55069693682E+02  0.27041281137E+03  0.00000000000E+00 0.  1.
         22    1    1    2    0    0 -0.17902619200E+03  0.42527227595E+03  0.80499615103E+03  0.92786081353E+03  0.00000000000E+00 0. -1.
<mgrwt>
<rscale>  0 0.11315546E+04</rscale>
<asrwt>0</asrwt>
<pdfrwt beam="1">  1        2 0.17081720E+00 0.11315546E+04</pdfrwt>
<pdfrwt beam="2">  1       -2 0.44353991E-01 0.11315546E+04</pdfrwt>
<totfact> 0.10250968E+02</totfact>
</mgrwt>
</event>
<event>
 6    1  0.1585031E-006  0.7675869E+03  0.7818608E-02  0.9608156E-01
         -2   -1    0    0    0  501 -0.00000000000E+00  0.00000000000E+00  0.18721914778E+03  0.18721914778E+03  0.00000000000E+00 0.  1.
          2   -1    0    0  501    0  0.00000000000E+00 -0.00000000000E+00 -0.78676461365E+03  0.78676461365E+03  0.00000000000E+00 0. -1.
         23    2    1    2    0    0 -0.17728077643E+03  0.18761122001E+02 -0.72780490283E+03  0.75436833264E+03  0.87127213404E+02 0.  0.
         11    1    3    3    0    0 -0.12001644087E+03 -0.18883170297E+02 -0.35227681344E+03  0.37263852925E+03  0.00000000000E+00 0. -1.
        -11    1    3    3    0    0 -0.57264335565E+02  0.37644292298E+02 -0.37552808940E+03  0.38172980339E+03  0.00000000000E+00 0.  1.
         22    1    1    2    0    0  0.17728077643E+03 -0.18761122001E+02  0.12825943696E+03  0.21961542878E+03  0.00000000000E+00 0.  1.
<mgrwt>
<rscale>  0 0.76758687E+03</rscale>
<asrwt>0</asrwt>
<pdfrwt beam="1">  1        2 0.12104071E+00 0.76758687E+03</pdfrwt>
<pdfrwt beam="2">  1       -2 0.28802946E-01 0.76758687E+03</pdfrwt>
<totfact> 0.39147718E+02</totfact>
</mgrwt>
</event>
<event>
 6    1  0.1585031E-006  0.1938687E+04  0.7818608E-02  0.8635835E-01
         -1   -1    0    0    0  501 -0.00000000000E+00  0.00000000000E+00  0.93635518134E+03  0.93635518134E+03  0.00000000000E+00 0.  1.
          1   -1    0    0  501    0  0.00000000000E+00 -0.00000000000E+00 -0.10034939685E+04  0.10034939685E+04  0.00000000000E+00 0. -1.
         23    2    1    2    0    0 -0.74909704907E+02 -0.18123993077E+03 -0.98126477447E+03  0.10049236464E+04  0.92366666880E+02 0.  0.
         11    1    3    3    0    0  0.14443998377E+02 -0.70767765642E+02 -0.40580159682E+03  0.41217913790E+03  0.00000000000E+00 0. -1.
        -11    1    3    3    0    0 -0.89353703285E+02 -0.11047216513E+03 -0.57546317766E+03  0.59274450853E+03  0.00000000000E+00 0.  1.
         22    1    1    2    0    0  0.74909704907E+02  0.18123993077E+03  0.91412598727E+03  0.93492550345E+03  0.00000000000E+00 0.  1.
<mgrwt>
<rscale>  0 0.19386870E+04</rscale>
<asrwt>0</asrwt>
<pdfrwt beam="1">  1        1 0.15438369E+00 0.19386870E+04</pdfrwt>
<pdfrwt beam="2">  1       -1 0.14405464E+00 0.19386870E+04</pdfrwt>
<totfact> 0.54518398E+00</totfact>
</mgrwt>
</event>
<event>
 6    1  0.1585031E-006  0.7529172E+03  0.7818608E-02  0.9630785E-01
          3   -1    0    0  501    0  0.00000000000E+00  0.00000000000E+00  0.10201531129E+04  0.10201531129E+04  0.00000000000E+00 0. -1.
         -3   -1    0    0    0  501 -0.00000000000E+00 -0.00000000000E+00 -0.13892136384E+03  0.13892136384E+03  0.00000000000E+00 0.  1.
         23    2    1    2    0    0  0.29524560818E+03 -0.19631946427E+03  0.27808526850E+03  0.45943387028E+03  0.89647997235E+02 0.  0.
         13    1    3    3    0    0  0.75776558099E+02 -0.11905533237E+02  0.38453658478E+02  0.85805083354E+02  0.00000000000E+00 0. -1.
        -13    1    3    3    0    0  0.21946905008E+03 -0.18441393103E+03  0.23963161002E+03  0.37362878693E+03  0.00000000000E+00 0.  1.
         22    1    1    2    0    0 -0.29524560818E+03  0.19631946427E+03  0.60314648056E+03  0.69964060646E+03  0.00000000000E+00 0. -1.
<mgrwt>
<rscale>  0 0.75291716E+03</rscale>
<asrwt>0</asrwt>
<pdfrwt beam="1">  1        3 0.15694663E+00 0.75291716E+03</pdfrwt>
<pdfrwt beam="2">  1       -3 0.21372518E-01 0.75291716E+03</pdfrwt>
<totfact> 0.15476287E+01</totfact>
</mgrwt>
</event>
<event>
 6    1  0.1585031E-006  0.1959467E+04  0.7818608E-02  0.8625809E-01
         -2   -1    0    0    0  501 -0.00000000000E+00  0.00000000000E+00  0.66105426999E+03  0.66105426999E+03  0.00000000000E+00 0.  1.
          2   -1    0    0  501    0  0.00000000000E+00 -0.00000000000E+00 -0.14520406043E+04  0.14520406043E+04  0.00000000000E+00 0. -1.
         23    2    1    2    0    0 -0.14540142618E+03  0.57291564143E+03 -0.12360169784E+04  0.13732123288E+04  0.92737382981E+02 0.  0.
         13    1    3    3    0    0 -0.64018499237E+01  0.19842671079E+03 -0.38922815026E+03  0.43693557442E+03  0.00000000000E+00 0.  1.
        -13    1    3    3    0    0 -0.13899957626E+03  0.37448893063E+03 -0.84678882813E+03  0.93627675439E+03  0.00000000000E+00 0. -1.
         22    1    1    2    0    0  0.14540142618E+03 -0.57291564143E+03  0.44503064408E+03  0.73988254547E+03  0.00000000000E+00 0.  1.
<mgrwt>
<rscale>  0 0.19594669E+04</rscale>
<asrwt>0</asrwt>
<pdfrwt beam="1">  1        2 0.22339086E+00 0.19594669E+04</pdfrwt>
<pdfrwt beam="2">  1       -2 0.10170066E+00 0.19594669E+04</pdfrwt>
<totfact> 0.99964232E+00</totfact>
</mgrwt>
</event>
<event>
 6    1  0.1585031E-006  0.4064232E+04  0.7818608E-02  0.7991713E-01
          1   -1    0    0  501    0  0.00000000000E+00  0.00000000000E+00  0.31998888767E+04  0.31998888767E+04  0.00000000000E+00 0. -1.
         -1   -1    0    0    0  501 -0.00000000000E+00 -0.00000000000E+00 -0.12905122113E+04  0.12905122113E+04  0.00000000000E+00 0.  1.
         23    2    1    2    0    0  0.13632845133E+03 -0.94364051811E+03  0.29366144015E+04  0.30888803995E+04  0.91842829460E+02 0.  0.
         11    1    3    3    0    0  0.21295367948E+02 -0.38188001866E+03  0.12729744361E+04  0.13291913919E+04  0.00000000000E+00 0. -1.
        -11    1    3    3    0    0  0.11503308338E+03 -0.56176049944E+03  0.16636399654E+04  0.17596890076E+04  0.00000000000E+00 0.  1.
         22    1    1    2    0    0 -0.13632845133E+03  0.94364051811E+03 -0.10272377361E+04  0.14015206886E+04  0.00000000000E+00 0.  1.
<mgrwt>
<rscale>  0 0.40642321E+04</rscale>
<asrwt>0</asrwt>
<pdfrwt beam="1">  1        1 0.49229059E+00 0.40642321E+04</pdfrwt>
<pdfrwt beam="2">  1       -1 0.19854034E+00 0.40642321E+04</pdfrwt>
<totfact> 0.50946528E-02</totfact>
</mgrwt>
</event>
<event>
 6    1  0.1585031E-006  0.2434418E+04  0.7818608E-02  0.8426729E-01
          2   -1    0    0  501    0  0.00000000000E+00  0.00000000000E+00  0.30446038487E+04  0.30446038487E+04  0.00000000000E+00 0.  1.
         -2   -1    0    0    0  501 -0.00000000000E+00 -0.00000000000E+00 -0.48663080016E+03  0.48663080016E+03  0.00000000000E+00 0. -1.
         23    2    1    2    0    0 -0.18973352239E+03  0.10247606242E+04  0.21881212801E+04  0.24253759431E+04  0.91872641759E+02 0.  0.
         11    1    3    3    0    0 -0.13696483732E+03  0.71501278088E+03  0.14278853343E+04  0.16027661000E+04  0.00000000000E+00 0. -1.
        -11    1    3    3    0    0 -0.52768685074E+02  0.30974784336E+03  0.76023594585E+03  0.82260984309E+03  0.00000000000E+00 0.  1.
         22    1    1    2    0    0  0.18973352239E+03 -0.10247606242E+04  0.36985176839E+03  0.11058587057E+04  0.00000000000E+00 0. -1.
<mgrwt>
<rscale>  0 0.24344182E+04</rscale>
<asrwt>0</asrwt>
<pdfrwt beam="1">  1        2 0.46840058E+00 0.24344182E+04</pdfrwt>
<pdfrwt beam="2">  1       -2 0.74866279E-01 0.24344182E+04</pdfrwt>
<totfact> 0.23471699E+00</totfact>
</mgrwt>
</event>
<event>
 6    1  0.1585031E-006  0.4855080E+04  0.7818608E-02  0.7851260E-01
         -2   -1    0    0    0  501 -0.00000000000E+00  0.00000000000E+00  0.35578359469E+04  0.35578359469E+04  0.00000000000E+00 0. -1.
          2   -1    0    0  501    0  0.00000000000E+00 -0.00000000000E+00 -0.16563296869E+04  0.16563296869E+04  0.00000000000E+00 0.  1.
         23    2    1    2    0    0 -0.91898184373E+03  0.22453015549E+04  0.10086752944E+04  0.26290053225E+04  0.91304078228E+02 0.  0.
         13    1    3    3    0    0 -0.35119950646E+03  0.75363538179E+03  0.32638186488E+03  0.89321470193E+03  0.00000000000E+00 0.  1.
        -13    1    3    3    0    0 -0.56778233727E+03  0.14916661731E+04  0.68229342955E+03  0.17357906206E+04  0.00000000000E+00 0. -1.
         22    1    1    2    0    0  0.91898184373E+03 -0.22453015549E+04  0.89283096557E+03  0.25851603112E+04  0.00000000000E+00 0.  1.
<mgrwt>
<rscale>  0 0.48550795E+04</rscale>
<asrwt>0</asrwt>
<pdfrwt beam="1">  1        2 0.25481995E+00 0.48550795E+04</pdfrwt>
<pdfrwt beam="2">  1       -2 0.54735938E+00 0.48550795E+04</pdfrwt>
<totfact> 0.67882886E-03</totfact>
</mgrwt>
</event>
<event>
 6    1  0.1585031E-006  0.2135183E+04  0.7818608E-02  0.8545901E-01
         -1   -1    0    0    0  501 -0.00000000000E+00  0.00000000000E+00  0.86944604134E+03  0.86944604134E+03  0.00000000000E+00 0.  1.
          1   -1    0    0  501    0  0.00000000000E+00 -0.00000000000E+00 -0.13108942547E+04  0.13108942547E+04  0.00000000000E+00 0. -1.
         23    2    1    2    0    0  0.15373146595E+02 -0.23566138443E+03 -0.12822426308E+04  0.13070088159E+04  0.91396163731E+02 0.  0.
         13    1    3    3    0    0 -0.24422335682E+01 -0.18977032627E+03 -0.79742565976E+03  0.81969898383E+03  0.00000000000E+00 0. -1.
        -13    1    3    3    0    0  0.17815380163E+02 -0.45891058153E+02 -0.48481697105E+03  0.48730983204E+03  0.00000000000E+00 0.  1.
         22    1    1    2    0    0 -0.15373146595E+02  0.23566138443E+03  0.84079441748E+03  0.87333148014E+03  0.00000000000E+00 0.  1.
<mgrwt>
<rscale>  0 0.21351832E+04</rscale>
<asrwt>0</asrwt>
<pdfrwt beam="1">  1        1 0.20167604E+00 0.21351832E+04</pdfrwt>
<pdfrwt beam="2">  1       -1 0.13376093E+00 0.21351832E+04</pdfrwt>
<totfact> 0.38425176E+00</totfact>
</mgrwt>
</event>
<event>
 6    1  0.1585031E-006  0.2781162E+04  0.7818608E-02  0.8309141E-01
         -2   -1    0    0    0  501 -0.00000000000E+00  0.00000000000E+00  0.13019510025E+04  0.13019510025E+04  0.00000000000E+00 0.  1.
          2   -1    0    0  501    0  0.00000000000E+00 -0.00000000000E+00 -0.14852448206E+04  0.14852448206E+04  0.00000000000E+00 0. -1.
         23    2    1    2    0    0 -0.98741973348E+03  0.58377020804E+02  0.88557451975E+03  0.13308699219E+04  0.92557617137E+02 0.  0.
         13    1    3    3    0    0 -0.68859282937E+03  0.46758220103E+02  0.67278073647E+03  0.96383625952E+03  0.00000000000E+00 0.  1.
        -13    1    3    3    0    0 -0.29882690411E+03  0.11618800701E+02  0.21279378328E+03  0.36703366242E+03  0.00000000000E+00 0. -1.
         22    1    1    2    0    0  0.98741973348E+03 -0.58377020804E+02 -0.10688683379E+04  0.14563259011E+04  0.00000000000E+00 0. -1.
<mgrwt>
<rscale>  0 0.27811623E+04</rscale>
<asrwt>0</asrwt>
<pdfrwt beam="1">  1        2 0.22849920E+00 0.27811623E+04</pdfrwt>
<pdfrwt beam="2">  1       -2 0.20030015E+00 0.27811623E+04</pdfrwt>
<totfact> 0.14932419E+00</totfact>
</mgrwt>
</event>
<event>
 6    1  0.1585031E-006  0.3875834E+03  0.7818608E-02  0.1048166E+00
          1   -1    0    0  501    0  0.00000000000E+00  0.00000000000E+00  0.67117082729E+02  0.67117082729E+02  0.00000000000E+00 0. -1.
         -1   -1    0    0    0  501 -0.00000000000E+00 -0.00000000000E+00 -0.55954795185E+03  0.55954795185E+03  0.00000000000E+00 0.  1.
         23    2    1    2    0    0  0.97191910391E+02 -0.11590250205E+03 -0.95610432200E+02  0.20199325946E+03  0.93703066619E+02 0.  0.
         13    1    3    3    0    0 -0.96293518497E+01 -0.40783020722E+00  0.89029248000E+01  0.13120701678E+02  0.00000000000E+00 0.  1.
        -13    1    3    3    0    0  0.10682126224E+03 -0.11549467184E+03 -0.10451335700E+03  0.18887255778E+03  0.00000000000E+00 0. -1.
         22    1    1    2    0    0 -0.97191910391E+02  0.11590250205E+03 -0.39682043692E+03  0.42467177512E+03  0.00000000000E+00 0.  1.
<mgrwt>
<rscale>  0 0.38758342E+03</rscale>
<asrwt>0</asrwt>
<pdfrwt beam="1">  1        1 0.10325705E-01 0.38758342E+03</pdfrwt>
<pdfrwt beam="2">  1       -1 0.86084303E-01 0.38758342E+03</pdfrwt>
<totfact> 0.86120478E+02</totfact>
</mgrwt>
</event>
<event>
 6    1  0.1585031E-006  0.2761908E+04  0.7818608E-02  0.8315193E-01
          1   -1    0    0  501    0  0.00000000000E+00  0.00000000000E+00  0.14465966059E+04  0.14465966059E+04  0.00000000000E+00 0. -1.
         -1   -1    0    0    0  501 -0.00000000000E+00 -0.00000000000E+00 -0.13182903948E+04  0.13182903948E+04  0.00000000000E+00 0.  1.
         23    2    1    2    0    0 -0.11392639663E+04  0.76693969472E+03  0.19378995760E+03  0.13899662752E+04  0.91284272025E+02 0.  0.
         11    1    3    3    0    0 -0.57566705488E+03  0.39187521491E+03  0.14420165143E+03  0.71116303223E+03  0.00000000000E+00 0. -1.
        -11    1    3    3    0    0 -0.56359691143E+03  0.37506447981E+03  0.49588306172E+02  0.67880324299E+03  0.00000000000E+00 0.  1.
         22    1    1    2    0    0  0.11392639663E+04 -0.76693969472E+03 -0.65483746446E+02  0.13749207255E+04  0.00000000000E+00 0.  1.
<mgrwt>
<rscale>  0 0.27619083E+04</rscale>
<asrwt>0</asrwt>
<pdfrwt beam="1">  1        1 0.22255332E+00 0.27619083E+04</pdfrwt>
<pdfrwt beam="2">  1       -1 0.20281391E+00 0.27619083E+04</pdfrwt>
<totfact> 0.89094236E-01</totfact>
</mgrwt>
</event>
<event>
 6    1  0.1585031E-006  0.1958261E+04  0.7818608E-02  0.8626388E-01
          1   -1    0    0  501    0  0.00000000000E+00  0.00000000000E+00  0.71526601744E+03  0.71526601744E+03  0.00000000000E+00 0.  1.
         -1   -1    0    0    0  501 -0.00000000000E+00 -0.00000000000E+00 -0.13403352738E+04  0.13403352738E+04  0.00000000000E+00 0. -1.
         23    2    1    2    0    0 -0.33240531310E+03  0.50178874162E+03 -0.11210304021E+04  0.12756893144E+04  0.91590562742E+02 0.  0.
         11    1    3    3    0    0 -0.85633879804E+02  0.67696404756E+02 -0.18519323968E+03  0.21497092969E+03  0.00000000000E+00 0. -1.
        -11    1    3    3    0    0 -0.24677143330E+03  0.43409233687E+03 -0.93583716239E+03  0.10607183847E+04  0.00000000000E+00 0.  1.
         22    1    1    2    0    0  0.33240531310E+03 -0.50178874162E+03  0.49596114575E+03  0.77991197676E+03  0.00000000000E+00 0.  1.
<mgrwt>
<rscale>  0 0.19582607E+04</rscale>
<asrwt>0</asrwt>
<pdfrwt beam="1">  1        1 0.11004093E+00 0.19582607E+04</pdfrwt>
<pdfrwt beam="2">  1       -1 0.20620542E+00 0.19582607E+04</pdfrwt>
<totfact> 0.33477793E+00</totfact>
</mgrwt>
</event>
<event>
 6    1  0.1585031E-006  0.1981505E+04  0.7818608E-02  0.8615317E-01
         -2   -1    0    0    0  501 -0.00000000000E+00  0.00000000000E+00  0.13077456175E+04  0.13077456175E+04  0.00000000000E+00 0. -1.
          2   -1    0    0  501    0  0.00000000000E+00 -0.00000000000E+00 -0.75059757901E+03  0.75059757901E+03  0.00000000000E+00 0.  1.
         23    2    1    2    0    0 -0.16963137310E+03 -0.88264908264E+03  0.70697353991E+03  0.11471396591E+04  0.90959361578E+02 0.  0.
         13    1    3    3    0    0 -0.52190194924E+02 -0.11853640981E+03  0.11871755788E+03  0.17569449464E+03  0.00000000000E+00 0.  1.
        -13    1    3    3    0    0 -0.11744117818E+03 -0.76411267283E+03  0.58825598203E+03  0.97144516444E+03  0.00000000000E+00 0. -1.
         22    1    1    2    0    0  0.16963137310E+03  0.88264908264E+03 -0.14982550140E+03  0.91120353747E+03  0.00000000000E+00 0.  1.
<mgrwt>
<rscale>  0 0.19815052E+04</rscale>
<asrwt>0</asrwt>
<pdfrwt beam="1">  1        2 0.11547655E+00 0.19815052E+04</pdfrwt>
<pdfrwt beam="2">  1       -2 0.20119163E+00 0.19815052E+04</pdfrwt>
<totfact> 0.45504094E+00</totfact>
</mgrwt>
</event>
<event>
 6    1  0.1585031E-006  0.7181720E+03  0.7818608E-02  0.9686651E-01
          2   -1    0    0  501    0  0.00000000000E+00  0.00000000000E+00  0.26421599086E+04  0.26421599086E+04  0.00000000000E+00 0.  1.
         -2   -1    0    0    0  501 -0.00000000000E+00 -0.00000000000E+00 -0.48802025317E+02  0.48802025317E+02  0.00000000000E+00 0. -1.
         23    2    1    2    0    0  0.31519218015E+03 -0.15415049816E+03  0.11609638275E+04  0.12162208660E+04  0.90816845864E+02 0.  0.
         11    1    3    3    0    0  0.27695130398E+03 -0.13162875349E+03  0.10917918449E+04  0.11340359721E+04  0.00000000000E+00 0.  1.
        -11    1    3    3    0    0  0.38240876174E+02 -0.22521744679E+02  0.69171982628E+02  0.82184893835E+02  0.00000000000E+00 0. -1.
         22    1    1    2    0    0 -0.31519218015E+03  0.15415049816E+03  0.14323940557E+04  0.14747410679E+04  0.00000000000E+00 0.  1.
<mgrwt>
<rscale>  0 0.71817200E+03</rscale>
<asrwt>0</asrwt>
<pdfrwt beam="1">  1        2 0.40648603E+00 0.71817200E+03</pdfrwt>
<pdfrwt beam="2">  1       -2 0.75080059E-02 0.71817200E+03</pdfrwt>
<totfact> 0.32726623E+02</totfact>
</mgrwt>
</event>
<event>
 6    1  0.1585031E-006  0.3570592E+04  0.7818608E-02  0.8097261E-01
         -1   -1    0    0    0  501 -0.00000000000E+00  0.00000000000E+00  0.13825802366E+04  0.13825802366E+04  0.00000000000E+00 0.  1.
          1   -1    0    0  501    0  0.00000000000E+00 -0.00000000000E+00 -0.23053145509E+04  0.23053145509E+04  0.00000000000E+00 0. -1.
         23    2    1    2    0    0  0.49639030234E+03  0.16802672301E+04 -0.11372676470E+03  0.17580775650E+04  0.90562964969E+02 0.  0.
         11    1    3    3    0    0  0.20425653765E+03  0.71069358989E+03 -0.92508425993E+02  0.74522742889E+03  0.00000000000E+00 0. -1.
        -11    1    3    3    0    0  0.29213376468E+03  0.96957364021E+03 -0.21218338707E+02  0.10128501361E+04  0.00000000000E+00 0.  1.
         22    1    1    2    0    0 -0.49639030234E+03 -0.16802672301E+04 -0.80900754961E+03  0.19298172225E+04  0.00000000000E+00 0. -1.
<mgrwt>
<rscale>  0 0.35705923E+04</rscale>
<asrwt>0</asrwt>
<pdfrwt beam="1">  1        1 0.35466378E+00 0.35705923E+04</pdfrwt>
<pdfrwt beam="2">  1       -1 0.21270465E+00 0.35705923E+04</pdfrwt>
<totfact> 0.18447594E-01</totfact>
</mgrwt>
</event>
<event>
 6    1  0.1585031E-006  0.1672793E+04  0.7818608E-02  0.8777035E-01
          1   -1    0    0  501    0  0.00000000000E+00  0.00000000000E+00  0.23354928280E+04  0.23354928280E+04  0.00000000000E+00 0. -1.
         -1   -1    0    0    0  501 -0.00000000000E+00 -0.00000000000E+00 -0.29953384933E+03  0.29953384933E+03  0.00000000000E+00 0.  1.
         23    2    1    2    0    0  0.67922007325E+03 -0.39568802559E+03  0.58366562917E+03  0.98364395534E+03  0.94767835820E+02 0.  0.
         11    1    3    3    0    0  0.29966573499E+03 -0.12832456364E+03  0.21106725618E+03  0.38835052851E+03  0.00000000000E+00 0.  1.
        -11    1    3    3    0    0  0.37955433826E+03 -0.26736346195E+03  0.37259837299E+03  0.59529342683E+03  0.00000000000E+00 0. -1.
         22    1    1    2    0    0 -0.67922007325E+03  0.39568802559E+03  0.14522933495E+04  0.16513827220E+04  0.00000000000E+00 0. -1.
<mgrwt>
<rscale>  0 0.16727931E+04</rscale>
<asrwt>0</asrwt>
<pdfrwt beam="1">  1        1 0.35930658E+00 0.16727931E+04</pdfrwt>
<pdfrwt beam="2">  1       -1 0.46082132E-01 0.16727931E+04</pdfrwt>
<totfact> 0.78700377E+00</totfact>
</mgrwt>
</event>
<event>
 6    1  0.1585031E-006  0.5591593E+03  0.7818608E-02  0.9993959E-01
          1   -1    0    0  501    0  0.00000000000E+00  0.00000000000E+00  0.79642317533E+02  0.79642317533E+02  0.00000000000E+00 0. -1.
         -1   -1    0    0    0  501 -0.00000000000E+00 -0.00000000000E+00 -0.98144794464E+03  0.98144794464E+03  0.00000000000E+00 0.  1.
         23    2    1    2    0    0 -0.21310756587E+03 -0.16683791995E+03 -0.43222316741E+03  0.51909633913E+03  0.96924799095E+02 0.  0.
         11    1    3    3    0    0 -0.15536831493E+02 -0.58669029368E+02 -0.71047296267E+02  0.93440710864E+02  0.00000000000E+00 0.  1.
        -11    1    3    3    0    0 -0.19757073438E+03 -0.10816889059E+03 -0.36117587115E+03  0.42565562826E+03  0.00000000000E+00 0. -1.
         22    1    1    2    0    0  0.21310756587E+03  0.16683791995E+03 -0.46958245969E+03  0.54199392305E+03  0.00000000000E+00 0.  1.
<mgrwt>
<rscale>  0 0.55915933E+03</rscale>
<asrwt>0</asrwt>
<pdfrwt beam="1">  1        1 0.12252664E-01 0.55915933E+03</pdfrwt>
<pdfrwt beam="2">  1       -1 0.15099199E+00 0.55915933E+03</pdfrwt>
<totfact> 0.17835498E+02</totfact>
</mgrwt>
</event>
<event>
 6    1  0.1585031E-006  0.2315873E+04  0.7818608E-02  0.8471689E-01
         -2   -1    0    0    0  501 -0.00000000000E+00  0.00000000000E+00  0.89541448336E+03  0.89541448336E+03  0.00000000000E+00 0.  1.
          2   -1    0    0  501    0  0.00000000000E+00 -0.00000000000E+00 -0.14974257845E+04  0.14974257845E+04  0.00000000000E+00 0. -1.
         23    2    1    2    0    0  0.64500489190E+03 -0.68046885492E+03  0.39746988431E+03  0.10224272596E+04  0.91137364325E+02 0.  0.
         13    1    3    3    0    0  0.38611790381E+03 -0.34200829623E+03  0.21104918111E+03  0.55731361654E+03  0.00000000000E+00 0. -1.
        -13    1    3    3    0    0  0.25888698808E+03 -0.33846055870E+03  0.18642070319E+03  0.46511364307E+03  0.00000000000E+00 0.  1.
         22    1    1    2    0    0 -0.64500489190E+03  0.68046885492E+03 -0.99948118542E+03  0.13704130082E+04  0.00000000000E+00 0. -1.
<mgrwt>
<rscale>  0 0.23158728E+04</rscale>
<asrwt>0</asrwt>
<pdfrwt beam="1">  1        2 0.23037320E+00 0.23158728E+04</pdfrwt>
<pdfrwt beam="2">  1       -2 0.13775608E+00 0.23158728E+04</pdfrwt>
<totfact> 0.43199857E+00</totfact>
</mgrwt>
</event>
<event>
 6    1  0.1585031E-006  0.1466558E+04  0.7818608E-02  0.8907001E-01
          2   -1    0    0  501    0  0.00000000000E+00  0.00000000000E+00  0.13477693699E+04  0.13477693699E+04  0.00000000000E+00 0. -1.
         -2   -1    0    0    0  501 -0.00000000000E+00 -0.00000000000E+00 -0.39895385906E+03  0.39895385906E+03  0.00000000000E+00 0.  1.
         23    2    1    2    0    0  0.72533272695E+03  0.65321173393E+01  0.57599283525E+03  0.93115779273E+03  0.95586899596E+02 0.  0.
         13    1    3    3    0    0  0.66853505076E+03  0.12807051442E+02  0.49458151917E+03  0.83169346142E+03  0.00000000000E+00 0.  1.
        -13    1    3    3    0    0  0.56797676184E+02 -0.62749341022E+01  0.81411316081E+02  0.99464331315E+02  0.00000000000E+00 0. -1.
         22    1    1    2    0    0 -0.72533272695E+03 -0.65321173393E+01  0.37282267559E+03  0.81556543623E+03  0.00000000000E+00 0.  1.
<mgrwt>
<rscale>  0 0.14665576E+04</rscale>
<asrwt>0</asrwt>
<pdfrwt beam="1">  1        2 0.20734913E+00 0.14665576E+04</pdfrwt>
<pdfrwt beam="2">  1       -2 0.61377517E-01 0.14665576E+04</pdfrwt>
<totfact> 0.37071061E+01</totfact>
</mgrwt>
</event>
<event>
 6    1  0.1585031E-006  0.1979134E+04  0.7818608E-02  0.8616439E-01
          2   -1    0    0  501    0  0.00000000000E+00  0.00000000000E+00  0.82264544098E+03  0.82264544098E+03  0.00000000000E+00 0. -1.
         -2   -1    0    0    0  501 -0.00000000000E+00 -0.00000000000E+00 -0.11903587077E+04  0.11903587077E+04  0.00000000000E+00 0.  1.
         23    2    1    2    0    0 -0.50255913125E+03 -0.82940392494E+03  0.48988379498E+01  0.97410264628E+03  0.91517297620E+02 0.  0.
         13    1    3    3    0    0 -0.33359492069E+03 -0.62869428652E+03  0.56966092329E+01  0.71174049229E+03  0.00000000000E+00 0. -1.
        -13    1    3    3    0    0 -0.16896421056E+03 -0.20070963842E+03 -0.79777128302E+00  0.26236215399E+03  0.00000000000E+00 0.  1.
         22    1    1    2    0    0  0.50255913125E+03  0.82940392494E+03 -0.37261210464E+03  0.10389015024E+04  0.00000000000E+00 0.  1.
<mgrwt>
<rscale>  0 0.19791343E+04</rscale>
<asrwt>0</asrwt>
<pdfrwt beam="1">  1        2 0.12656084E+00 0.19791343E+04</pdfrwt>
<pdfrwt beam="2">  1       -2 0.18313211E+00 0.19791343E+04</pdfrwt>
<totfact> 0.53254805E+00</totfact>
</mgrwt>
</event>
<event>
 6    1  0.1585031E-006  0.1959598E+04  0.7818608E-02  0.8625746E-01
          1   -1    0    0  501    0  0.00000000000E+00  0.00000000000E+00  0.15753771839E+04  0.15753771839E+04  0.00000000000E+00 0. -1.
         -1   -1    0    0    0  501 -0.00000000000E+00 -0.00000000000E+00 -0.60938179173E+03  0.60938179173E+03  0.00000000000E+00 0.  1.
         23    2    1    2    0    0  0.95782146388E+03 -0.14348270992E+03  0.33498226288E+03  0.10288235042E+04  0.90859461126E+02 0.  0.
         13    1    3    3    0    0  0.48512622436E+03 -0.44515740166E+02  0.20617902191E+03  0.52899800922E+03  0.00000000000E+00 0. -1.
        -13    1    3    3    0    0  0.47269523951E+03 -0.98966969756E+02  0.12880324098E+03  0.49982549500E+03  0.00000000000E+00 0.  1.
         22    1    1    2    0    0 -0.95782146388E+03  0.14348270992E+03  0.63101312927E+03  0.11559354714E+04  0.00000000000E+00 0. -1.
<mgrwt>
<rscale>  0 0.19595981E+04</rscale>
<asrwt>0</asrwt>
<pdfrwt beam="1">  1        1 0.24236572E+00 0.19595981E+04</pdfrwt>
<pdfrwt beam="2">  1       -1 0.93751046E-01 0.19595981E+04</pdfrwt>
<totfact> 0.59571194E+00</totfact>
</mgrwt>
</event>
<event>
 6    1  0.1585031E-006  0.2514168E+04  0.7818608E-02  0.8397955E-01
         -2   -1    0    0    0  501 -0.00000000000E+00  0.00000000000E+00  0.14091131853E+04  0.14091131853E+04  0.00000000000E+00 0.  1.
          2   -1    0    0  501    0  0.00000000000E+00 -0.00000000000E+00 -0.11214572556E+04  0.11214572556E+04  0.00000000000E+00 0. -1.
         23    2    1    2    0    0 -0.90238596383E+03 -0.66586465721E+03  0.71201050263E+03  0.13315070677E+04  0.90972226773E+02 0.  0.
         13    1    3    3    0    0 -0.60794316970E+03 -0.45783074738E+03  0.53186276256E+03  0.92848365038E+03  0.00000000000E+00 0.  1.
        -13    1    3    3    0    0 -0.29444279413E+03 -0.20803390983E+03  0.18014774007E+03  0.40302341732E+03  0.00000000000E+00 0. -1.
         22    1    1    2    0    0  0.90238596383E+03  0.66586465721E+03 -0.42435457295E+03  0.11990633732E+04  0.00000000000E+00 0. -1.
<mgrwt>
<rscale>  0 0.25141680E+04</rscale>
<asrwt>0</asrwt>
<pdfrwt beam="1">  1        2 0.17253189E+00 0.25141680E+04</pdfrwt>
<pdfrwt beam="2">  1       -2 0.21678664E+00 0.25141680E+04</pdfrwt>
<totfact> 0.19501426E+00</totfact>
</mgrwt>
</event>
<event>
 6    1  0.1585031E-006  0.1636606E+04  0.7818608E-02  0.8798370E-01
         -2   -1    0    0    0  501 -0.00000000000E+00  0.00000000000E+00  0.33477370713E+03  0.33477370713E+03  0.00000000000E+00 0.  1.
          2   -1    0    0  501    0  0.00000000000E+00 -0.00000000000E+00 -0.20002170314E+04  0.20002170314E+04  0.00000000000E+00 0. -1.
         23    2    1    2    0    0  0.54690328313E+03 -0.20087397410E+03 -0.20071345112E+02  0.58951014442E+03  0.87554536755E+02 0.  0.
         11    1    3    3    0    0  0.23541267469E+03 -0.12656801692E+03  0.12868867906E+02  0.26758960756E+03  0.00000000000E+00 0. -1.
        -11    1    3    3    0    0  0.31149060845E+03 -0.74305957189E+02 -0.32940213017E+02  0.32192053687E+03  0.00000000000E+00 0.  1.
         22    1    1    2    0    0 -0.54690328313E+03  0.20087397410E+03 -0.16453719792E+04  0.17454805941E+04  0.00000000000E+00 0. -1.
<mgrwt>
<rscale>  0 0.16366063E+04</rscale>
<asrwt>0</asrwt>
<pdfrwt beam="1">  1        2 0.30772570E+00 0.16366063E+04</pdfrwt>
<pdfrwt beam="2">  1       -2 0.51503646E-01 0.16366063E+04</pdfrwt>
<totfact> 0.22750687E+01</totfact>
</mgrwt>
</event>
<event>
 6    1  0.1585031E-006  0.1464416E+04  0.7818608E-02  0.8908467E-01
          2   -1    0    0  501    0  0.00000000000E+00  0.00000000000E+00  0.29450746649E+03  0.29450746649E+03  0.00000000000E+00 0. -1.
         -2   -1    0    0    0  501 -0.00000000000E+00 -0.00000000000E+00 -0.18204243155E+04  0.18204243155E+04  0.00000000000E+00 0.  1.
         23    2    1    2    0    0 -0.58115932818E+03 -0.22011704315E+03 -0.13175237812E+04  0.14594736612E+04  0.89424696197E+02 0.  0.
         13    1    3    3    0    0 -0.35810826384E+03 -0.15270253411E+03 -0.91487213545E+03  0.99425882786E+03  0.00000000000E+00 0. -1.
        -13    1    3    3    0    0 -0.22305106434E+03 -0.67414509046E+02 -0.40265164572E+03  0.46521483332E+03  0.00000000000E+00 0.  1.
         22    1    1    2    0    0  0.58115932818E+03  0.22011704315E+03 -0.20839306785E+03  0.65545812082E+03  0.00000000000E+00 0. -1.
<mgrwt>
<rscale>  0 0.14644160E+04</rscale>
<asrwt>0</asrwt>
<pdfrwt beam="1">  1        2 0.45308841E-01 0.14644160E+04</pdfrwt>
<pdfrwt beam="2">  1       -2 0.28006528E+00 0.14644160E+04</pdfrwt>
<totfact> 0.45803659E+00</totfact>
</mgrwt>
</event>
<event>
 6    1  0.1585031E-006  0.1386331E+04  0.7818608E-02  0.8963773E-01
         -3   -1    0    0    0  501 -0.00000000000E+00  0.00000000000E+00  0.23893658039E+04  0.23893658039E+04  0.00000000000E+00 0.  1.
          3   -1    0    0  501    0  0.00000000000E+00 -0.00000000000E+00 -0.20109027985E+03  0.20109027985E+03  0.00000000000E+00 0. -1.
         23    2    1    2    0    0 -0.45691107368E+03  0.24940236799E+03  0.19456606950E+04  0.20161467371E+04  0.91010190700E+02 0.  0.
         13    1    3    3    0    0 -0.36029751366E+03  0.18750352849E+03  0.16431709783E+04  0.16926259880E+04  0.00000000000E+00 0. -1.
        -13    1    3    3    0    0 -0.96613560025E+02  0.61898839499E+02  0.30248971676E+03  0.32352074904E+03  0.00000000000E+00 0.  1.
         22    1    1    2    0    0  0.45691107368E+03 -0.24940236799E+03  0.24261482902E+03  0.57430934667E+03  0.00000000000E+00 0. -1.
<mgrwt>
<rscale>  0 0.13863308E+04</rscale>
<asrwt>0</asrwt>
<pdfrwt beam="1">  1        3 0.30936968E-01 0.13863308E+04</pdfrwt>
<pdfrwt beam="2">  1       -3 0.36759472E+00 0.13863308E+04</pdfrwt>
<totfact> 0.42225078E-01</totfact>
</mgrwt>
</event>
<event>
 6    1  0.1585031E-006  0.7874061E+03  0.7818608E-02  0.9578427E-01
         -1   -1    0    0    0  501 -0.00000000000E+00  0.00000000000E+00  0.23285789218E+03  0.23285789218E+03  0.00000000000E+00 0.  1.
          1   -1    0    0  501    0  0.00000000000E+00 -0.00000000000E+00 -0.66565096593E+03  0.66565096593E+03  0.00000000000E+00 0. -1.
         23    2    1    2    0    0  0.20930510472E+03  0.28396118146E+03 -0.34265171358E+02  0.36628045938E+03  0.92437511412E+02 0.  0.
         11    1    3    3    0    0  0.70787488034E+02  0.17034107940E+03 -0.34631726730E+01  0.18449646435E+03  0.00000000000E+00 0.  1.
        -11    1    3    3    0    0  0.13851761669E+03  0.11362010206E+03 -0.30801998685E+02  0.18178399503E+03  0.00000000000E+00 0. -1.
         22    1    1    2    0    0 -0.20930510472E+03 -0.28396118146E+03 -0.39852790239E+03  0.53222839874E+03  0.00000000000E+00 0. -1.
<mgrwt>
<rscale>  0 0.78740607E+03</rscale>
<asrwt>0</asrwt>
<pdfrwt beam="1">  1        1 0.10240784E+00 0.78740607E+03</pdfrwt>
<pdfrwt beam="2">  1       -1 0.35824291E-01 0.78740607E+03</pdfrwt>
<totfact> 0.22105186E+02</totfact>
</mgrwt>
</event>
<event>
 6    1  0.1585031E-006  0.3131540E+04  0.7818608E-02  0.8207135E-01
          2   -1    0    0  501    0  0.00000000000E+00  0.00000000000E+00  0.25962396589E+04  0.25962396589E+04  0.00000000000E+00 0.  1.
         -2   -1    0    0    0  501 -0.00000000000E+00 -0.00000000000E+00 -0.94430260282E+03  0.94430260282E+03  0.00000000000E+00 0. -1.
         23    2    1    2    0    0 -0.83084020482E+03  0.71037361807E+03 -0.43829583071E+03  0.11817290762E+04  0.97232973256E+02 0.  0.
         11    1    3    3    0    0 -0.40360718486E+03  0.38188559028E+03 -0.26529024188E+03  0.61572256429E+03  0.00000000000E+00 0. -1.
        -11    1    3    3    0    0 -0.42723301996E+03  0.32848802779E+03 -0.17300558883E+03  0.56600651190E+03  0.00000000000E+00 0.  1.
         22    1    1    2    0    0  0.83084020482E+03 -0.71037361807E+03  0.20902328867E+04  0.23588131855E+04  0.00000000000E+00 0.  1.
<mgrwt>
<rscale>  0 0.31315401E+04</rscale>
<asrwt>0</asrwt>
<pdfrwt beam="1">  1        2 0.39942148E+00 0.31315401E+04</pdfrwt>
<pdfrwt beam="2">  1       -2 0.14527732E+00 0.31315401E+04</pdfrwt>
<totfact> 0.84426135E-01</totfact>
</mgrwt>
</event>
<event>
 6    1  0.1585031E-006  0.1020346E+04  0.7818608E-02  0.9286507E-01
         -1   -1    0    0    0  501 -0.00000000000E+00  0.00000000000E+00  0.56251715190E+03  0.56251715190E+03  0.00000000000E+00 0.  1.
          1   -1    0    0  501    0  0.00000000000E+00 -0.00000000000E+00 -0.46269945067E+03  0.46269945067E+03  0.00000000000E+00 0. -1.
         23    2    1    2    0    0 -0.23922952980E+03  0.17495490689E+02  0.49812805446E+03  0.56025639178E+03  0.90657629401E+02 0.  0.
         11    1    3    3    0    0 -0.18497003018E+03 -0.81006233502E+01  0.29353010773E+03  0.34704388239E+03  0.00000000000E+00 0. -1.
        -11    1    3    3    0    0 -0.54259499623E+02  0.25596114039E+02  0.20459794673E+03  0.21321250939E+03  0.00000000000E+00 0.  1.
         22    1    1    2    0    0  0.23922952980E+03 -0.17495490689E+02 -0.39831035323E+03  0.46496021079E+03  0.00000000000E+00 0. -1.
<mgrwt>
<rscale>  0 0.10203458E+04</rscale>
<asrwt>0</asrwt>
<pdfrwt beam="1">  1        1 0.71184531E-01 0.10203458E+04</pdfrwt>
<pdfrwt beam="2">  1       -1 0.86541100E-01 0.10203458E+04</pdfrwt>
<totfact> 0.65042057E+01</totfact>
</mgrwt>
</event>
<event>
 6    1  0.1585031E-006  0.2184480E+04  0.7818608E-02  0.8524916E-01
          1   -1    0    0  501    0  0.00000000000E+00  0.00000000000E+00  0.16475869873E+04  0.16475869873E+04  0.00000000000E+00 0. -1.
         -1   -1    0    0    0  501 -0.00000000000E+00 -0.00000000000E+00 -0.72408216390E+03  0.72408216390E+03  0.00000000000E+00 0.  1.
         23    2    1    2    0    0 -0.34492785502E+03 -0.54744517205E+03 -0.49020071775E+03  0.81692325599E+03  0.91626529632E+02 0.  0.
         11    1    3    3    0    0 -0.17796981128E+03 -0.36528485023E+03 -0.29889799782E+03  0.50442669303E+03  0.00000000000E+00 0. -1.
        -11    1    3    3    0    0 -0.16695804374E+03 -0.18216032181E+03 -0.19130271993E+03  0.31249656297E+03  0.00000000000E+00 0.  1.
         22    1    1    2    0    0  0.34492785502E+03  0.54744517205E+03  0.14137055411E+04  0.15547458952E+04  0.00000000000E+00 0. -1.
<mgrwt>
<rscale>  0 0.21844801E+04</rscale>
<asrwt>0</asrwt>
<pdfrwt beam="1">  1        1 0.25347492E+00 0.21844801E+04</pdfrwt>
<pdfrwt beam="2">  1       -1 0.11139726E+00 0.21844801E+04</pdfrwt>
<totfact> 0.34997100E+00</totfact>
</mgrwt>
</event>
<event>
 6    1  0.1585031E-006  0.2164592E+04  0.7818608E-02  0.8533312E-01
          1   -1    0    0  501    0  0.00000000000E+00  0.00000000000E+00  0.18015203875E+04  0.18015203875E+04  0.00000000000E+00 0. -1.
         -1   -1    0    0    0  501 -0.00000000000E+00 -0.00000000000E+00 -0.65020893325E+03  0.65020893325E+03  0.00000000000E+00 0.  1.
         23    2    1    2    0    0 -0.98367150111E+03 -0.13825089185E+03  0.95651445242E+02  0.10021980221E+04  0.92351206076E+02 0.  0.
         11    1    3    3    0    0 -0.61859412949E+03 -0.43643054204E+02  0.72425689886E+02  0.62434677366E+03  0.00000000000E+00 0.  1.
        -11    1    3    3    0    0 -0.36507737162E+03 -0.94607837647E+02  0.23225755356E+02  0.37785124841E+03  0.00000000000E+00 0. -1.
         22    1    1    2    0    0  0.98367150111E+03  0.13825089185E+03  0.10556600090E+04  0.14495312987E+04  0.00000000000E+00 0. -1.
<mgrwt>
<rscale>  0 0.21645920E+04</rscale>
<asrwt>0</asrwt>
<pdfrwt beam="1">  1        1 0.27715698E+00 0.21645920E+04</pdfrwt>
<pdfrwt beam="2">  1       -1 0.10003214E+00 0.21645920E+04</pdfrwt>
<totfact> 0.35396987E+00</totfact>
</mgrwt>
</event>
<event>
 6    1  0.1585031E-006  0.2409256E+04  0.7818608E-02  0.8436046E-01
         -2   -1    0    0    0  501 -0.00000000000E+00  0.00000000000E+00  0.67162021765E+03  0.67162021765E+03  0.00000000000E+00 0.  1.
          2   -1    0    0  501    0  0.00000000000E+00 -0.00000000000E+00 -0.21606392841E+04  0.21606392841E+04  0.00000000000E+00 0. -1.
         23    2    1    2    0    0  0.69202250266E+03 -0.40122018610E+03  0.31046648746E+03  0.86299033765E+03  0.92141744677E+02 0.  0.
         13    1    3    3    0    0  0.21591297613E+03 -0.16745002888E+03  0.13126891870E+03  0.30313273404E+03  0.00000000000E+00 0. -1.
        -13    1    3    3    0    0  0.47610952653E+03 -0.23377015722E+03  0.17919756876E+03  0.55985760360E+03  0.00000000000E+00 0.  1.
         22    1    1    2    0    0 -0.69202250266E+03  0.40122018610E+03 -0.17994855539E+04  0.19692691641E+04  0.00000000000E+00 0. -1.
<mgrwt>
<rscale>  0 0.24092563E+04</rscale>
<asrwt>0</asrwt>
<pdfrwt beam="1">  1        2 0.33240605E+00 0.24092563E+04</pdfrwt>
<pdfrwt beam="2">  1       -2 0.10332619E+00 0.24092563E+04</pdfrwt>
<totfact> 0.37296535E+00</totfact>
</mgrwt>
</event>
<event>
 6    1  0.1585031E-006  0.2796347E+04  0.7818608E-02  0.8304403E-01
         -1   -1    0    0    0  501 -0.00000000000E+00  0.00000000000E+00  0.17533512927E+04  0.17533512927E+04  0.00000000000E+00 0.  1.
          1   -1    0    0  501    0  0.00000000000E+00 -0.00000000000E+00 -0.11149440482E+04  0.11149440482E+04  0.00000000000E+00 0. -1.
         23    2    1    2    0    0 -0.77642884736E+02 -0.12719073256E+04 -0.26697942138E+03  0.13051249480E+04  0.91084882188E+02 0.  0.
         13    1    3    3    0    0 -0.43267210836E+02 -0.11272976111E+04 -0.22133544633E+03  0.11496353054E+04  0.00000000000E+00 0. -1.
        -13    1    3    3    0    0 -0.34375673900E+02 -0.14460971451E+03 -0.45643975048E+02  0.15548964257E+03  0.00000000000E+00 0.  1.
         22    1    1    2    0    0  0.77642884736E+02  0.12719073256E+04  0.90538666589E+03  0.15631703929E+04  0.00000000000E+00 0.  1.
<mgrwt>
<rscale>  0 0.27963466E+04</rscale>
<asrwt>0</asrwt>
<pdfrwt beam="1">  1        1 0.17152985E+00 0.27963466E+04</pdfrwt>
<pdfrwt beam="2">  1       -1 0.26974635E+00 0.27963466E+04</pdfrwt>
<totfact> 0.55487805E-01</totfact>
</mgrwt>
</event>
<event>
 6    1  0.2374986E-006  0.4274956E+04  0.7818608E-02  0.7951265E-01
         -1   -1    0    0    0  501 -0.00000000000E+00  0.00000000000E+00  0.21373692573E+04  0.21373692573E+04  0.00000000000E+00 0.  1.
          1   -1    0    0  501    0  0.00000000000E+00 -0.00000000000E+00 -0.21375867507E+04  0.21375867507E+04  0.00000000000E+00 0. -1.
         23    2    1    2    0    0 -0.55716459588E+03  0.20233374300E+04  0.39986214237E+03  0.21385125949E+04  0.94971800295E+02 0.  0.
         11    1    3    3    0    0 -0.37548183108E+03  0.12424452293E+04  0.28081522402E+03  0.13279736229E+04  0.00000000000E+00 0.  1.
        -11    1    3    3    0    0 -0.18168276480E+03  0.78089220076E+03  0.11904691835E+03  0.81053897192E+03  0.00000000000E+00 0. -1.
         22    1    1    2    0    0  0.55716459588E+03 -0.20233374300E+04 -0.40007963574E+03  0.21364434131E+04  0.00000000000E+00 0. -1.
<mgrwt>
<rscale>  0 0.42749560E+04</rscale>
<asrwt>0</asrwt>
<pdfrwt beam="1">  1        1 0.32885950E+00 0.42749560E+04</pdfrwt>
<pdfrwt beam="2">  1       -1 0.32882604E+00 0.42749560E+04</pdfrwt>
<totfact> 0.39398604E-02</totfact>
</mgrwt>
</event>
<event>
 6    1  0.1585031E-006  0.3404553E+04  0.7818608E-02  0.8136790E-01
         -2   -1    0    0    0  501 -0.00000000000E+00  0.00000000000E+00  0.11534238869E+04  0.11534238869E+04  0.00000000000E+00 0.  1.
          2   -1    0    0  501    0  0.00000000000E+00 -0.00000000000E+00 -0.25122989079E+04  0.25122989079E+04  0.00000000000E+00 0. -1.
         23    2    1    2    0    0  0.60612558029E+03 -0.95265134231E+03  0.68996415169E+03  0.13263479306E+04  0.90639414102E+02 0.  0.
         13    1    3    3    0    0  0.26787895009E+03 -0.42887066207E+03  0.25665999060E+03  0.56706571705E+03  0.00000000000E+00 0. -1.
        -13    1    3    3    0    0  0.33824663020E+03 -0.52378068024E+03  0.43330416110E+03  0.75928221358E+03  0.00000000000E+00 0.  1.
         22    1    1    2    0    0 -0.60612558029E+03  0.95265134231E+03 -0.20488391727E+04  0.23393748641E+04  0.00000000000E+00 0. -1.
<mgrwt>
<rscale>  0 0.34045532E+04</rscale>
<asrwt>0</asrwt>
<pdfrwt beam="1">  1        2 0.38650752E+00 0.34045532E+04</pdfrwt>
<pdfrwt beam="2">  1       -2 0.17744983E+00 0.34045532E+04</pdfrwt>
<totfact> 0.53552760E-01</totfact>
</mgrwt>
</event>
<event>
 6    1  0.1585031E-006  0.1351435E+04  0.7818608E-02  0.8989743E-01
         -2   -1    0    0    0  501 -0.00000000000E+00  0.00000000000E+00  0.23467385095E+03  0.23467385095E+03  0.00000000000E+00 0.  1.
          2   -1    0    0  501    0  0.00000000000E+00 -0.00000000000E+00 -0.19456528514E+04  0.19456528514E+04  0.00000000000E+00 0. -1.
         23    2    1    2    0    0 -0.42200250846E+03  0.50150865979E+03 -0.61571449387E+03  0.90392496607E+03  0.91536622873E+02 0.  0.
         11    1    3    3    0    0 -0.24361082864E+03  0.28616268349E+03 -0.29038749870E+03  0.47493180210E+03  0.00000000000E+00 0.  1.
        -11    1    3    3    0    0 -0.17839167983E+03  0.21534597630E+03 -0.32532699517E+03  0.42899316396E+03  0.00000000000E+00 0. -1.
         22    1    1    2    0    0  0.42200250846E+03 -0.50150865979E+03 -0.10952645065E+04  0.12764017362E+04  0.00000000000E+00 0. -1.
<mgrwt>
<rscale>  0 0.13514346E+04</rscale>
<asrwt>0</asrwt>
<pdfrwt beam="1">  1        2 0.29933120E+00 0.13514346E+04</pdfrwt>
<pdfrwt beam="2">  1       -2 0.36103670E-01 0.13514346E+04</pdfrwt>
<totfact> 0.50516472E+01</totfact>
</mgrwt>
</event>
<event>
 6    1  0.1585031E-006  0.1796549E+04  0.7818608E-02  0.8708137E-01
          1   -1    0    0  501    0  0.00000000000E+00  0.00000000000E+00  0.12263937591E+04  0.12263937591E+04  0.00000000000E+00 0. -1.
         -1   -1    0    0    0  501 -0.00000000000E+00 -0.00000000000E+00 -0.65794324598E+03  0.65794324598E+03  0.00000000000E+00 0.  1.
         23    2    1    2    0    0  0.14694637804E+03  0.61083072916E+02  0.12096191828E+04  0.12237148416E+04  0.94736827613E+02 0.  0.
         13    1    3    3    0    0  0.74152545054E+02  0.63056974333E+02  0.43895757631E+03  0.44962043521E+03  0.00000000000E+00 0.  1.
        -13    1    3    3    0    0  0.72793832988E+02 -0.19739014168E+01  0.77066160646E+03  0.77409440644E+03  0.00000000000E+00 0. -1.
         22    1    1    2    0    0 -0.14694637804E+03 -0.61083072916E+02 -0.64116866968E+03  0.66062216341E+03  0.00000000000E+00 0.  1.
<mgrwt>
<rscale>  0 0.17965495E+04</rscale>
<asrwt>0</asrwt>
<pdfrwt beam="1">  1        1 0.18867596E+00 0.17965495E+04</pdfrwt>
<pdfrwt beam="2">  1       -1 0.10122204E+00 0.17965495E+04</pdfrwt>
<totfact> 0.89436728E+00</totfact>
</mgrwt>
</event>
<event>
 6    1  0.1585031E-006  0.2700878E+04  0.7818608E-02  0.8334720E-01
          2   -1    0    0  501    0  0.00000000000E+00  0.00000000000E+00  0.33697269271E+04  0.33697269271E+04  0.00000000000E+00 0. -1.
         -2   -1    0    0    0  501 -0.00000000000E+00 -0.00000000000E+00 -0.54119666274E+03  0.54119666274E+03  0.00000000000E+00 0.  1.
         23    2    1    2    0    0 -0.52127942674E+03 -0.26368434519E+03 -0.34464774002E+03  0.68442078927E+03  0.91586447969E+02 0.  0.
         13    1    3    3    0    0 -0.35304810530E+03 -0.21634176437E+03 -0.21310944279E+03  0.46568482719E+03  0.00000000000E+00 0. -1.
        -13    1    3    3    0    0 -0.16823132144E+03 -0.47342580814E+02 -0.13153829723E+03  0.21873596208E+03  0.00000000000E+00 0.  1.
         22    1    1    2    0    0  0.52127942674E+03  0.26368434519E+03  0.31731780044E+04  0.32265028006E+04  0.00000000000E+00 0. -1.
<mgrwt>
<rscale>  0 0.27008776E+04</rscale>
<asrwt>0</asrwt>
<pdfrwt beam="1">  1        2 0.51841951E+00 0.27008776E+04</pdfrwt>
<pdfrwt beam="2">  1       -2 0.83261027E-01 0.27008776E+04</pdfrwt>
<totfact> 0.11076083E+00</totfact>
</mgrwt>
</event>
<event>
 6    1  0.1585031E-006  0.2477773E+04  0.7818608E-02  0.8410947E-01
         -1   -1    0    0    0  501 -0.00000000000E+00  0.00000000000E+00  0.48626659841E+03  0.48626659841E+03  0.00000000000E+00 0.  1.
          1   -1    0    0  501    0  0.00000000000E+00 -0.00000000000E+00 -0.31563749692E+04  0.31563749692E+04  0.00000000000E+00 0. -1.
         23    2    1    2    0    0  0.36135015179E+03 -0.11831301422E+04 -0.13580924274E+04  0.18393787744E+04  0.92349167460E+02 0.  0.
         13    1    3    3    0    0  0.21167302538E+03 -0.72647824979E+03 -0.89495585777E+03  0.11719735937E+04  0.00000000000E+00 0.  1.
        -13    1    3    3    0    0  0.14967712641E+03 -0.45665189243E+03 -0.46313656960E+03  0.66740518063E+03  0.00000000000E+00 0. -1.
         22    1    1    2    0    0 -0.36135015179E+03  0.11831301422E+04 -0.13120159434E+04  0.18032627932E+04  0.00000000000E+00 0. -1.
<mgrwt>
<rscale>  0 0.24777730E+04</rscale>
<asrwt>0</asrwt>
<pdfrwt beam="1">  1        1 0.48559615E+00 0.24777730E+04</pdfrwt>
<pdfrwt beam="2">  1       -1 0.74810246E-01 0.24777730E+04</pdfrwt>
<totfact> 0.73337698E-01</totfact>
</mgrwt>
</event>
<event>
 6    1  0.1585031E-006  0.2008117E+04  0.7818608E-02  0.8602835E-01
          2   -1    0    0  501    0  0.00000000000E+00  0.00000000000E+00  0.11279243734E+04  0.11279243734E+04  0.00000000000E+00 0. -1.
         -2   -1    0    0    0  501 -0.00000000000E+00 -0.00000000000E+00 -0.89379544589E+03  0.89379544589E+03  0.00000000000E+00 0.  1.
         23    2    1    2    0    0  0.34079112611E+03 -0.88976186197E+03  0.42969501500E+03  0.10490632215E+04  0.89894794532E+02 0.  0.
         13    1    3    3    0    0  0.84318480375E+02 -0.30570167523E+03  0.11091986829E+03  0.33595585655E+03  0.00000000000E+00 0.  1.
        -13    1    3    3    0    0  0.25647264574E+03 -0.58406018674E+03  0.31877514671E+03  0.71310736492E+03  0.00000000000E+00 0. -1.
         22    1    1    2    0    0 -0.34079112611E+03  0.88976186197E+03 -0.19556608751E+03  0.97265659780E+03  0.00000000000E+00 0.  1.
<mgrwt>
<rscale>  0 0.20081172E+04</rscale>
<asrwt>0</asrwt>
<pdfrwt beam="1">  1        2 0.17352683E+00 0.20081172E+04</pdfrwt>
<pdfrwt beam="2">  1       -2 0.13750699E+00 0.20081172E+04</pdfrwt>
<totfact> 0.73169561E+00</totfact>
</mgrwt>
</event>
<event>
 6    1  0.1585031E-006  0.4646463E+03  0.7818608E-02  0.1023442E+00
          1   -1    0    0  501    0  0.00000000000E+00  0.00000000000E+00  0.12186025482E+04  0.12186025482E+04  0.00000000000E+00 0. -1.
         -1   -1    0    0    0  501 -0.00000000000E+00 -0.00000000000E+00 -0.44291763559E+02  0.44291763559E+02  0.00000000000E+00 0.  1.
         23    2    1    2    0    0 -0.22207256742E+03  0.10839663401E+02  0.68130334635E+03  0.72207081217E+03  0.88194583329E+02 0.  0.
         13    1    3    3    0    0 -0.20648200225E+03  0.29914087242E+02  0.64721428291E+03  0.68001176304E+03  0.00000000000E+00 0. -1.
        -13    1    3    3    0    0 -0.15590565165E+02 -0.19074423841E+02  0.34089063446E+02  0.42059049129E+02  0.00000000000E+00 0.  1.
         22    1    1    2    0    0  0.22207256742E+03 -0.10839663401E+02  0.49300743826E+03  0.54082349957E+03  0.00000000000E+00 0.  1.
<mgrwt>
<rscale>  0 0.46464634E+03</rscale>
<asrwt>0</asrwt>
<pdfrwt beam="1">  1        1 0.18747729E+00 0.46464634E+03</pdfrwt>
<pdfrwt beam="2">  1       -1 0.68141184E-02 0.46464634E+03</pdfrwt>
<totfact> 0.12163566E+03</totfact>
</mgrwt>
</event>
<event>
 6    1  0.1585031E-006  0.1145454E+04  0.7818608E-02  0.9161988E-01
          1   -1    0    0  501    0  0.00000000000E+00  0.00000000000E+00  0.30232025103E+03  0.30232025103E+03  0.00000000000E+00 0. -1.
         -1   -1    0    0    0  501 -0.00000000000E+00 -0.00000000000E+00 -0.10849958975E+04  0.10849958975E+04  0.00000000000E+00 0.  1.
         23    2    1    2    0    0 -0.43904665588E+03 -0.29344023056E+03 -0.65071569477E+03  0.84299770882E+03  0.91351446066E+02 0.  0.
         13    1    3    3    0    0 -0.15806649863E+03 -0.74457768474E+02 -0.27003545521E+03  0.32163352491E+03  0.00000000000E+00 0.  1.
        -13    1    3    3    0    0 -0.28098015725E+03 -0.21898246208E+03 -0.38068023956E+03  0.52136418391E+03  0.00000000000E+00 0. -1.
         22    1    1    2    0    0  0.43904665588E+03  0.29344023056E+03 -0.13195995167E+03  0.54431843970E+03  0.00000000000E+00 0. -1.
<mgrwt>
<rscale>  0 0.11454540E+04</rscale>
<asrwt>0</asrwt>
<pdfrwt beam="1">  1        1 0.46510807E-01 0.11454540E+04</pdfrwt>
<pdfrwt beam="2">  1       -1 0.16692245E+00 0.11454540E+04</pdfrwt>
<totfact> 0.22360468E+01</totfact>
</mgrwt>
</event>
<event>
 6    1  0.1585031E-006  0.3882213E+04  0.7818608E-02  0.8028739E-01
          1   -1    0    0  501    0  0.00000000000E+00  0.00000000000E+00  0.23661500318E+04  0.23661500318E+04  0.00000000000E+00 0. -1.
         -1   -1    0    0    0  501 -0.00000000000E+00 -0.00000000000E+00 -0.15924159983E+04  0.15924159983E+04  0.00000000000E+00 0.  1.
         23    2    1    2    0    0 -0.14461778881E+04 -0.99070642290E+03  0.12347394895E+04  0.21459834165E+04  0.87940415851E+02 0.  0.
         11    1    3    3    0    0 -0.58236337227E+03 -0.38285729297E+03  0.44107509777E+03  0.82478727319E+03  0.00000000000E+00 0.  1.
        -11    1    3    3    0    0 -0.86381451584E+03 -0.60784912993E+03  0.79366439169E+03  0.13211961433E+04  0.00000000000E+00 0. -1.
         22    1    1    2    0    0  0.14461778881E+04  0.99070642290E+03 -0.46100545602E+03  0.18125826135E+04  0.00000000000E+00 0.  1.
<mgrwt>
<rscale>  0 0.38822134E+04</rscale>
<asrwt>0</asrwt>
<pdfrwt beam="1">  1        1 0.36402308E+00 0.38822134E+04</pdfrwt>
<pdfrwt beam="2">  1       -1 0.24498708E+00 0.38822134E+04</pdfrwt>
<totfact> 0.99607842E-02</totfact>
</mgrwt>
</event>
<event>
 6    1  0.1585031E-006  0.2135878E+04  0.7818608E-02  0.8545601E-01
          2   -1    0    0  501    0  0.00000000000E+00  0.00000000000E+00  0.33135016498E+04  0.33135016498E+04  0.00000000000E+00 0.  1.
         -2   -1    0    0    0  501 -0.00000000000E+00 -0.00000000000E+00 -0.34419595737E+03  0.34419595737E+03  0.00000000000E+00 0. -1.
         23    2    1    2    0    0  0.41348077690E+03  0.76720492244E+03  0.25385203054E+04  0.26855115162E+04  0.91197678408E+02 0.  0.
         13    1    3    3    0    0  0.36532973650E+03  0.60842504904E+03  0.20980336718E+04  0.22148119886E+04  0.00000000000E+00 0.  1.
        -13    1    3    3    0    0  0.48151040397E+02  0.15877987339E+03  0.44048663360E+03  0.47069952758E+03  0.00000000000E+00 0. -1.
         22    1    1    2    0    0 -0.41348077690E+03 -0.76720492244E+03  0.43078538702E+03  0.97218609101E+03  0.00000000000E+00 0. -1.
<mgrwt>
<rscale>  0 0.21358782E+04</rscale>
<asrwt>0</asrwt>
<pdfrwt beam="1">  1        2 0.50976946E+00 0.21358782E+04</pdfrwt>
<pdfrwt beam="2">  1       -2 0.52953227E-01 0.21358782E+04</pdfrwt>
<totfact> 0.33817557E+00</totfact>
</mgrwt>
</event>
<event>
 6    1  0.1585031E-006  0.2398212E+04  0.7818608E-02  0.8440173E-01
         -1   -1    0    0    0  501 -0.00000000000E+00  0.00000000000E+00  0.67790148527E+03  0.67790148527E+03  0.00000000000E+00 0.  1.
          1   -1    0    0  501    0  0.00000000000E+00 -0.00000000000E+00 -0.21210381495E+04  0.21210381495E+04  0.00000000000E+00 0. -1.
         23    2    1    2    0    0 -0.13875535766E+03  0.11244047577E+04 -0.11751239450E+04  0.16347360761E+04  0.88919311122E+02 0.  0.
         13    1    3    3    0    0 -0.40616266235E+02  0.40475319856E+03 -0.48275080804E+03  0.63128692010E+03  0.00000000000E+00 0. -1.
        -13    1    3    3    0    0 -0.98139091420E+02  0.71965155914E+03 -0.69237313693E+03  0.10034491560E+04  0.00000000000E+00 0.  1.
         22    1    1    2    0    0  0.13875535766E+03 -0.11244047577E+04 -0.26801271924E+03  0.11642035587E+04  0.00000000000E+00 0.  1.
<mgrwt>
<rscale>  0 0.23982118E+04</rscale>
<asrwt>0</asrwt>
<pdfrwt beam="1">  1        1 0.32631356E+00 0.23982118E+04</pdfrwt>
<pdfrwt beam="2">  1       -1 0.10429254E+00 0.23982118E+04</pdfrwt>
<totfact> 0.19109711E+00</totfact>
</mgrwt>
</event>
<event>
 6    1  0.1585031E-006  0.6092559E+03  0.7818608E-02  0.9886387E-01
          2   -1    0    0  501    0  0.00000000000E+00  0.00000000000E+00  0.77689936770E+03  0.77689936770E+03  0.00000000000E+00 0. -1.
         -2   -1    0    0    0  501 -0.00000000000E+00 -0.00000000000E+00 -0.11944685796E+03  0.11944685796E+03  0.00000000000E+00 0.  1.
         23    2    1    2    0    0  0.17118095398E+03  0.15825035178E+03  0.61615038538E+02  0.25652720052E+03  0.87542554166E+02 0.  0.
         13    1    3    3    0    0  0.36610712131E+02  0.81871811625E+02 -0.77475371158E+00  0.89688003796E+02  0.00000000000E+00 0.  1.
        -13    1    3    3    0    0  0.13457024185E+03  0.76378540153E+02  0.62389792250E+02  0.16683919673E+03  0.00000000000E+00 0. -1.
         22    1    1    2    0    0 -0.17118095398E+03 -0.15825035178E+03  0.59583747120E+03  0.63981902514E+03  0.00000000000E+00 0. -1.
<mgrwt>
<rscale>  0 0.60925590E+03</rscale>
<asrwt>0</asrwt>
<pdfrwt beam="1">  1        2 0.11952298E+00 0.60925590E+03</pdfrwt>
<pdfrwt beam="2">  1       -2 0.18376440E-01 0.60925590E+03</pdfrwt>
<totfact> 0.89068308E+02</totfact>
</mgrwt>
</event>
<event>
 6    1  0.1585031E-006  0.1409771E+04  0.7818608E-02  0.8946776E-01
          2   -1    0    0  501    0  0.00000000000E+00  0.00000000000E+00  0.16831796776E+04  0.16831796776E+04  0.00000000000E+00 0. -1.
         -2   -1    0    0    0  501 -0.00000000000E+00 -0.00000000000E+00 -0.29519329225E+03  0.29519329225E+03  0.00000000000E+00 0.  1.
         23    2    1    2    0    0  0.50736438555E+03  0.42517172539E+03  0.10241594607E+04  0.12230189820E+04  0.93183762708E+02 0.  0.
         13    1    3    3    0    0  0.46484693749E+03  0.36086435727E+03  0.86536174127E+03  0.10464973497E+04  0.00000000000E+00 0.  1.
        -13    1    3    3    0    0  0.42517448059E+02  0.64307368124E+02  0.15879771945E+03  0.17652163235E+03  0.00000000000E+00 0. -1.
         22    1    1    2    0    0 -0.50736438555E+03 -0.42517172539E+03  0.36382692458E+03  0.75535398778E+03  0.00000000000E+00 0.  1.
<mgrwt>
<rscale>  0 0.14097707E+04</rscale>
<asrwt>0</asrwt>
<pdfrwt beam="1">  1        2 0.25895071E+00 0.14097707E+04</pdfrwt>
<pdfrwt beam="2">  1       -2 0.45414354E-01 0.14097707E+04</pdfrwt>
<totfact> 0.44806700E+01</totfact>
</mgrwt>
</event>
<event>
 6    1  0.1585031E-006  0.2087995E+04  0.7818608E-02  0.8566550E-01
         -1   -1    0    0    0  501 -0.00000000000E+00  0.00000000000E+00  0.13602560347E+04  0.13602560347E+04  0.00000000000E+00 0.  1.
          1   -1    0    0  501    0  0.00000000000E+00 -0.00000000000E+00 -0.80126865694E+03  0.80126865694E+03  0.00000000000E+00 0. -1.
         23    2    1    2    0    0 -0.62928255520E+03  0.19449529086E+03  0.11158696801E+04  0.12990034739E+04  0.91760176112E+02 0.  0.
         11    1    3    3    0    0 -0.10601857074E+03  0.19083098240E+02  0.12679121895E+03  0.16637342090E+03  0.00000000000E+00 0.  1.
        -11    1    3    3    0    0 -0.52326398446E+03  0.17541219262E+03  0.98907846112E+03  0.11326300530E+04  0.00000000000E+00 0. -1.
         22    1    1    2    0    0  0.62928255520E+03 -0.19449529086E+03 -0.55688230229E+03  0.86252121774E+03  0.00000000000E+00 0. -1.
<mgrwt>
<rscale>  0 0.20879948E+04</rscale>
<asrwt>0</asrwt>
<pdfrwt beam="1">  1        1 0.12327210E+00 0.20879948E+04</pdfrwt>
<pdfrwt beam="2">  1       -1 0.20927016E+00 0.20879948E+04</pdfrwt>
<totfact> 0.26398112E+00</totfact>
</mgrwt>
</event>
<event>
 6    1  0.1585031E-006  0.1905170E+04  0.7818608E-02  0.8652287E-01
         -1   -1    0    0    0  501 -0.00000000000E+00  0.00000000000E+00  0.64680876515E+03  0.64680876515E+03  0.00000000000E+00 0.  1.
          1   -1    0    0  501    0  0.00000000000E+00 -0.00000000000E+00 -0.14029150547E+04  0.14029150547E+04  0.00000000000E+00 0. -1.
         23    2    1    2    0    0  0.35884300527E+03  0.19456387578E+02 -0.13245585286E+04  0.13772025923E+04  0.11438894647E+03 0.  0.
         13    1    3    3    0    0  0.24569322517E+03  0.19478808148E+02 -0.69145083529E+03  0.73406324147E+03  0.00000000000E+00 0.  1.
        -13    1    3    3    0    0  0.11314978011E+03 -0.22420570039E-01 -0.63310769333E+03  0.64313935084E+03  0.00000000000E+00 0. -1.
         22    1    1    2    0    0 -0.35884300527E+03 -0.19456387578E+02  0.56845223905E+03  0.67252122757E+03  0.00000000000E+00 0.  1.
<mgrwt>
<rscale>  0 0.19051696E+04</rscale>
<asrwt>0</asrwt>
<pdfrwt beam="1">  1        1 0.21583308E+00 0.19051696E+04</pdfrwt>
<pdfrwt beam="2">  1       -1 0.99509043E-01 0.19051696E+04</pdfrwt>
<totfact> 0.68932152E+00</totfact>
</mgrwt>
</event>
<event>
 6    1  0.1585031E-006  0.1919584E+04  0.7818608E-02  0.8645169E-01
         -1   -1    0    0    0  501 -0.00000000000E+00  0.00000000000E+00  0.10584674168E+04  0.10584674168E+04  0.00000000000E+00 0.  1.
          1   -1    0    0  501    0  0.00000000000E+00 -0.00000000000E+00 -0.87031551904E+03  0.87031551904E+03  0.00000000000E+00 0. -1.
         23    2    1    2    0    0 -0.40182665665E+03 -0.82560319236E+03  0.36759796410E+03  0.99321562995E+03  0.90905066642E+02 0.  0.
         13    1    3    3    0    0 -0.24012817399E+03 -0.42589481495E+03  0.23233742899E+03  0.54132117477E+03  0.00000000000E+00 0.  1.
        -13    1    3    3    0    0 -0.16169848267E+03 -0.39970837741E+03  0.13526053511E+03  0.45189445518E+03  0.00000000000E+00 0. -1.
         22    1    1    2    0    0  0.40182665665E+03  0.82560319236E+03 -0.17944606630E+03  0.93556730594E+03  0.00000000000E+00 0. -1.
<mgrwt>
<rscale>  0 0.19195839E+04</rscale>
<asrwt>0</asrwt>
<pdfrwt beam="1">  1        1 0.13389469E+00 0.19195839E+04</pdfrwt>
<pdfrwt beam="2">  1       -1 0.16284114E+00 0.19195839E+04</pdfrwt>
<totfact> 0.50031280E+00</totfact>
</mgrwt>
</event>
<event>
 6    1  0.1585031E-006  0.2519209E+04  0.7818608E-02  0.8396174E-01
          2   -1    0    0  501    0  0.00000000000E+00  0.00000000000E+00  0.16092015081E+04  0.16092015081E+04  0.00000000000E+00 0. -1.
         -2   -1    0    0    0  501 -0.00000000000E+00 -0.00000000000E+00 -0.98595673277E+03  0.98595673277E+03  0.00000000000E+00 0.  1.
         23    2    1    2    0    0  0.85752047746E+03  0.30167132446E+03  0.12077694386E+04  0.15144103336E+04  0.91567921215E+02 0.  0.
         11    1    3    3    0    0  0.63680629543E+03  0.22770054610E+03  0.82946857381E+03  0.10702279718E+04  0.00000000000E+00 0. -1.
        -11    1    3    3    0    0  0.22071418204E+03  0.73970778361E+02  0.37830086482E+03  0.44418236179E+03  0.00000000000E+00 0.  1.
         22    1    1    2    0    0 -0.85752047746E+03 -0.30167132446E+03 -0.58452466327E+03  0.10807479074E+04  0.00000000000E+00 0.  1.
<mgrwt>
<rscale>  0 0.25192087E+04</rscale>
<asrwt>0</asrwt>
<pdfrwt beam="1">  1        2 0.24756946E+00 0.25192087E+04</pdfrwt>
<pdfrwt beam="2">  1       -2 0.15168565E+00 0.25192087E+04</pdfrwt>
<totfact> 0.28546775E+00</totfact>
</mgrwt>
</event>
<event>
 6    1  0.1585031E-006  0.2063927E+04  0.7818608E-02  0.8577303E-01
         -1   -1    0    0    0  501 -0.00000000000E+00  0.00000000000E+00  0.90995758938E+03  0.90995758938E+03  0.00000000000E+00 0.  1.
          1   -1    0    0  501    0  0.00000000000E+00 -0.00000000000E+00 -0.11703273049E+04  0.11703273049E+04  0.00000000000E+00 0. -1.
         23    2    1    2    0    0  0.93987267714E+03  0.36517277796E+03 -0.34277140852E+03  0.10686022138E+04  0.87787504138E+02 0.  0.
         11    1    3    3    0    0  0.66239751946E+03  0.29211109431E+03 -0.26929202603E+03  0.77241022811E+03  0.00000000000E+00 0. -1.
        -11    1    3    3    0    0  0.27747515769E+03  0.73061683655E+02 -0.73479382490E+02  0.29619198572E+03  0.00000000000E+00 0.  1.
         22    1    1    2    0    0 -0.93987267714E+03 -0.36517277796E+03  0.82401692955E+02  0.10116826805E+04  0.00000000000E+00 0.  1.
<mgrwt>
<rscale>  0 0.20639266E+04</rscale>
<asrwt>0</asrwt>
<pdfrwt beam="1">  1        1 0.18005035E+00 0.20639266E+04</pdfrwt>
<pdfrwt beam="2">  1       -1 0.13999348E+00 0.20639266E+04</pdfrwt>
<totfact> 0.43459167E+00</totfact>
</mgrwt>
</event>
<event>
 6    1  0.1585031E-006  0.1213763E+04  0.7818608E-02  0.9100894E-01
         -2   -1    0    0    0  501 -0.00000000000E+00  0.00000000000E+00  0.86808913887E+03  0.86808913887E+03  0.00000000000E+00 0.  1.
          2   -1    0    0  501    0  0.00000000000E+00 -0.00000000000E+00 -0.42427117207E+03  0.42427117207E+03  0.00000000000E+00 0. -1.
         23    2    1    2    0    0  0.55306385130E+03 -0.23037071292E+03  0.14566822308E+03  0.62314916439E+03  0.90251653063E+02 0.  0.
         11    1    3    3    0    0  0.40984386994E+02 -0.36103480024E+02  0.33551567036E+02  0.64100615424E+02  0.00000000000E+00 0. -1.
        -11    1    3    3    0    0  0.51207946430E+03 -0.19426723290E+03  0.11211665605E+03  0.55904854897E+03  0.00000000000E+00 0.  1.
         22    1    1    2    0    0 -0.55306385130E+03  0.23037071292E+03  0.29814974371E+03  0.66921114655E+03  0.00000000000E+00 0.  1.
<mgrwt>
<rscale>  0 0.12137631E+04</rscale>
<asrwt>0</asrwt>
<pdfrwt beam="1">  1        2 0.65272488E-01 0.12137631E+04</pdfrwt>
<pdfrwt beam="2">  1       -2 0.13355217E+00 0.12137631E+04</pdfrwt>
<totfact> 0.29716581E+01</totfact>
</mgrwt>
</event>
<event>
 6    1  0.1585031E-006  0.4648063E+04  0.7818608E-02  0.7885216E-01
          2   -1    0    0  501    0  0.00000000000E+00  0.00000000000E+00  0.36533840981E+04  0.36533840981E+04  0.00000000000E+00 0. -1.
         -2   -1    0    0    0  501 -0.00000000000E+00 -0.00000000000E+00 -0.14783889191E+04  0.14783889191E+04  0.00000000000E+00 0.  1.
         23    2    1    2    0    0  0.64524167857E+03  0.72282718639E+03  0.34190231366E+04  0.35549339245E+04  0.94973861384E+02 0.  0.
         13    1    3    3    0    0  0.24020162155E+03  0.28296967378E+03  0.14783573473E+04  0.15242404999E+04  0.00000000000E+00 0. -1.
        -13    1    3    3    0    0  0.40504005702E+03  0.43985751262E+03  0.19406657893E+04  0.20306934247E+04  0.00000000000E+00 0.  1.
         22    1    1    2    0    0 -0.64524167857E+03 -0.72282718639E+03 -0.12440279576E+04  0.15768390927E+04  0.00000000000E+00 0.  1.
<mgrwt>
<rscale>  0 0.46480631E+04</rscale>
<asrwt>0</asrwt>
<pdfrwt beam="1">  1        2 0.56205909E+00 0.46480631E+04</pdfrwt>
<pdfrwt beam="2">  1       -2 0.22744445E+00 0.46480631E+04</pdfrwt>
<totfact> 0.41841376E-02</totfact>
</mgrwt>
</event>
<event>
 6    1  0.1585031E-006  0.8195044E+03  0.7818608E-02  0.9532207E-01
          2   -1    0    0  501    0  0.00000000000E+00  0.00000000000E+00  0.15406676901E+04  0.15406676901E+04  0.00000000000E+00 0. -1.
         -2   -1    0    0    0  501 -0.00000000000E+00 -0.00000000000E+00 -0.10897668578E+03  0.10897668578E+03  0.00000000000E+00 0.  1.
         23    2    1    2    0    0  0.28433929353E+03 -0.26582406064E+03  0.94748100201E+03  0.10283790611E+04  0.91279674583E+02 0.  0.
         11    1    3    3    0    0  0.11448974049E+03 -0.10848535878E+03  0.50394427493E+03  0.52805000330E+03  0.00000000000E+00 0.  1.
        -11    1    3    3    0    0  0.16984955304E+03 -0.15733870186E+03  0.44353672708E+03  0.50032905776E+03  0.00000000000E+00 0. -1.
         22    1    1    2    0    0 -0.28433929353E+03  0.26582406064E+03  0.48421000233E+03  0.62126531483E+03  0.00000000000E+00 0.  1.
<mgrwt>
<rscale>  0 0.81950438E+03</rscale>
<asrwt>0</asrwt>
<pdfrwt beam="1">  1        2 0.23702578E+00 0.81950438E+03</pdfrwt>
<pdfrwt beam="2">  1       -2 0.16765645E-01 0.81950438E+03</pdfrwt>
<totfact> 0.35221006E+02</totfact>
</mgrwt>
</event>
<event>
 6    1  0.1585031E-006  0.2010700E+04  0.7818608E-02  0.8601634E-01
         -2   -1    0    0    0  501 -0.00000000000E+00  0.00000000000E+00  0.54889162246E+03  0.54889162246E+03  0.00000000000E+00 0.  1.
          2   -1    0    0  501    0  0.00000000000E+00 -0.00000000000E+00 -0.18413992982E+04  0.18413992982E+04  0.00000000000E+00 0. -1.
         23    2    1    2    0    0  0.58181760487E+03  0.61408337610E+03 -0.12883856673E+04  0.15443434582E+04  0.97205818952E+02 0.  0.
         13    1    3    3    0    0  0.31005809538E+03  0.31924984407E+03 -0.58984839604E+03  0.73890298129E+03  0.00000000000E+00 0.  1.
        -13    1    3    3    0    0  0.27175950948E+03  0.29483353203E+03 -0.69853727124E+03  0.80544047696E+03  0.00000000000E+00 0. -1.
         22    1    1    2    0    0 -0.58181760487E+03 -0.61408337610E+03 -0.41220084040E+01  0.84594746237E+03  0.00000000000E+00 0.  1.
<mgrwt>
<rscale>  0 0.20107000E+04</rscale>
<asrwt>0</asrwt>
<pdfrwt beam="1">  1        2 0.28329221E+00 0.20107000E+04</pdfrwt>
<pdfrwt beam="2">  1       -2 0.84444863E-01 0.20107000E+04</pdfrwt>
<totfact> 0.92906064E+00</totfact>
</mgrwt>
</event>
<event>
 6    1  0.1585031E-006  0.2578642E+04  0.7818608E-02  0.8375492E-01
         -1   -1    0    0    0  501 -0.00000000000E+00  0.00000000000E+00  0.94859499455E+03  0.94859499455E+03  0.00000000000E+00 0.  1.
          1   -1    0    0  501    0  0.00000000000E+00 -0.00000000000E+00 -0.17524322376E+04  0.17524322376E+04  0.00000000000E+00 0. -1.
         23    2    1    2    0    0 -0.30080752372E+03 -0.85705827981E+03 -0.13585897114E+04  0.16367038027E+04  0.89438652144E+02 0.  0.
         11    1    3    3    0    0 -0.95433263607E+01 -0.97717968715E+02 -0.17427681098E+03  0.20003070598E+03  0.00000000000E+00 0. -1.
        -11    1    3    3    0    0 -0.29126419736E+03 -0.75934031109E+03 -0.11843129004E+04  0.14366730967E+04  0.00000000000E+00 0.  1.
         22    1    1    2    0    0  0.30080752372E+03  0.85705827981E+03  0.55475246836E+03  0.10643234294E+04  0.00000000000E+00 0.  1.
<mgrwt>
<rscale>  0 0.25786419E+04</rscale>
<asrwt>0</asrwt>
<pdfrwt beam="1">  1        1 0.26960496E+00 0.25786419E+04</pdfrwt>
<pdfrwt beam="2">  1       -1 0.14593769E+00 0.25786419E+04</pdfrwt>
<totfact> 0.14545726E+00</totfact>
</mgrwt>
</event>
<event>
 6    1  0.1585031E-006  0.1356369E+04  0.7818608E-02  0.8986021E-01
          2   -1    0    0  501    0  0.00000000000E+00  0.00000000000E+00  0.21596093097E+04  0.21596093097E+04  0.00000000000E+00 0. -1.
         -2   -1    0    0    0  501 -0.00000000000E+00 -0.00000000000E+00 -0.21297090159E+03  0.21297090159E+03  0.00000000000E+00 0.  1.
         23    2    1    2    0    0  0.31095461274E+03  0.41818981065E+03  0.17285631850E+04  0.18076622599E+04  0.90203504696E+02 0.  0.
         13    1    3    3    0    0  0.23148504193E+03  0.35555086117E+03  0.13075370446E+04  0.13746471774E+04  0.00000000000E+00 0. -1.
        -13    1    3    3    0    0  0.79469570811E+02  0.62638949482E+02  0.42102614047E+03  0.43301508246E+03  0.00000000000E+00 0.  1.
         22    1    1    2    0    0 -0.31095461274E+03 -0.41818981065E+03  0.21807522309E+03  0.56491795142E+03  0.00000000000E+00 0.  1.
<mgrwt>
<rscale>  0 0.13563686E+04</rscale>
<asrwt>0</asrwt>
<pdfrwt beam="1">  1        2 0.33224757E+00 0.13563686E+04</pdfrwt>
<pdfrwt beam="2">  1       -2 0.32764756E-01 0.13563686E+04</pdfrwt>
<totfact> 0.46219087E+01</totfact>
</mgrwt>
</event>
<event>
 6    1  0.1585031E-006  0.5747778E+03  0.7818608E-02  0.9959161E-01
         -4   -1    0    0    0  501 -0.00000000000E+00  0.00000000000E+00  0.32880423657E+03  0.32880423657E+03  0.00000000000E+00 0.  1.
          4   -1    0    0  501    0  0.00000000000E+00 -0.00000000000E+00 -0.25119016192E+03  0.25119016192E+03  0.00000000000E+00 0. -1.
         23    2    1    2    0    0  0.13122572779E+03  0.14202108102E+03 -0.16527243494E+03  0.26953661452E+03  0.89133774315E+02 0.  0.
         11    1    3    3    0    0  0.78378651674E+02  0.23356334923E+02 -0.78189978070E+02  0.11314770917E+03  0.00000000000E+00 0.  1.
        -11    1    3    3    0    0  0.52847076119E+02  0.11866474610E+03 -0.87082456871E+02  0.15638890535E+03  0.00000000000E+00 0. -1.
         22    1    1    2    0    0 -0.13122572779E+03 -0.14202108102E+03  0.24288650959E+03  0.31045778398E+03  0.00000000000E+00 0.  1.
<mgrwt>
<rscale>  0 0.57477783E+03</rscale>
<asrwt>0</asrwt>
<pdfrwt beam="1">  1        4 0.38644640E-01 0.57477783E+03</pdfrwt>
<pdfrwt beam="2">  1       -4 0.50585267E-01 0.57477783E+03</pdfrwt>
<totfact> 0.48374821E+01</totfact>
</mgrwt>
</event>
<event>
 6    1  0.1585031E-006  0.2020919E+04  0.7818608E-02  0.8596902E-01
          1   -1    0    0  501    0  0.00000000000E+00  0.00000000000E+00  0.11149126975E+04  0.11149126975E+04  0.00000000000E+00 0. -1.
         -1   -1    0    0    0  501 -0.00000000000E+00 -0.00000000000E+00 -0.91579234179E+03  0.91579234179E+03  0.00000000000E+00 0.  1.
         23    2    1    2    0    0  0.39921445052E+03 -0.41102013632E+03 -0.73404243183E+03  0.93566964351E+03  0.91376474554E+02 0.  0.
         11    1    3    3    0    0  0.32401417856E+03 -0.28018639640E+03 -0.51859506047E+03  0.67262949784E+03  0.00000000000E+00 0.  1.
        -11    1    3    3    0    0  0.75200271961E+02 -0.13083373992E+03 -0.21544737136E+03  0.26304014567E+03  0.00000000000E+00 0. -1.
         22    1    1    2    0    0 -0.39921445052E+03  0.41102013632E+03  0.93316278753E+03  0.10950353958E+04  0.00000000000E+00 0. -1.
<mgrwt>
<rscale>  0 0.20209191E+04</rscale>
<asrwt>0</asrwt>
<pdfrwt beam="1">  1        1 0.17152503E+00 0.20209191E+04</pdfrwt>
<pdfrwt beam="2">  1       -1 0.14089113E+00 0.20209191E+04</pdfrwt>
<totfact> 0.47168633E+00</totfact>
</mgrwt>
</event>
<event>
 6    1  0.1585031E-006  0.3144783E+04  0.7818608E-02  0.8203554E-01
          1   -1    0    0  501    0  0.00000000000E+00  0.00000000000E+00  0.19615984397E+04  0.19615984397E+04  0.00000000000E+00 0. -1.
         -1   -1    0    0    0  501 -0.00000000000E+00 -0.00000000000E+00 -0.12604082108E+04  0.12604082108E+04  0.00000000000E+00 0.  1.
         23    2    1    2    0    0  0.73540327939E+03  0.39739180745E+03  0.17138415800E+04  0.19089183096E+04  0.89319200602E+02 0.  0.
         13    1    3    3    0    0  0.48322673245E+03  0.21272982431E+03  0.10924473232E+04  0.12133438124E+04  0.00000000000E+00 0. -1.
        -13    1    3    3    0    0  0.25217654695E+03  0.18466198314E+03  0.62139425677E+03  0.69557449723E+03  0.00000000000E+00 0.  1.
         22    1    1    2    0    0 -0.73540327939E+03 -0.39739180745E+03 -0.10126513511E+04  0.13130883408E+04  0.00000000000E+00 0.  1.
<mgrwt>
<rscale>  0 0.31447828E+04</rscale>
<asrwt>0</asrwt>
<pdfrwt beam="1">  1        1 0.30178438E+00 0.31447828E+04</pdfrwt>
<pdfrwt beam="2">  1       -1 0.19390896E+00 0.31447828E+04</pdfrwt>
<totfact> 0.44130454E-01</totfact>
</mgrwt>
</event>
<event>
 6    1  0.1585031E-006  0.1779770E+04  0.7818608E-02  0.8717132E-01
          2   -1    0    0  501    0  0.00000000000E+00  0.00000000000E+00  0.84030009139E+03  0.84030009139E+03  0.00000000000E+00 0. -1.
         -2   -1    0    0    0  501 -0.00000000000E+00 -0.00000000000E+00 -0.94239584539E+03  0.94239584539E+03  0.00000000000E+00 0.  1.
         23    2    1    2    0    0 -0.84912806499E+03  0.14013908294E+03 -0.26886526556E+03  0.90607201326E+03  0.89557405439E+02 0.  0.
         13    1    3    3    0    0 -0.27877035835E+03  0.74969082374E+02 -0.12282476530E+03  0.31371834339E+03  0.00000000000E+00 0. -1.
        -13    1    3    3    0    0 -0.57035770663E+03  0.65170000568E+02 -0.14604050026E+03  0.59235366987E+03  0.00000000000E+00 0.  1.
         22    1    1    2    0    0  0.84912806499E+03 -0.14013908294E+03  0.16676951156E+03  0.87662392353E+03  0.00000000000E+00 0. -1.
<mgrwt>
<rscale>  0 0.17797700E+04</rscale>
<asrwt>0</asrwt>
<pdfrwt beam="1">  1        2 0.12927694E+00 0.17797700E+04</pdfrwt>
<pdfrwt beam="2">  1       -2 0.14498398E+00 0.17797700E+04</pdfrwt>
<totfact> 0.99894359E+00</totfact>
</mgrwt>
</event>
<event>
 6    1  0.1585031E-006  0.1642137E+04  0.7818608E-02  0.8795072E-01
         -1   -1    0    0    0  501 -0.00000000000E+00  0.00000000000E+00  0.21802879095E+03  0.21802879095E+03  0.00000000000E+00 0. -1.
          1   -1    0    0  501    0  0.00000000000E+00 -0.00000000000E+00 -0.30920401460E+04  0.30920401460E+04  0.00000000000E+00 0.  1.
         23    2    1    2    0    0 -0.36218874982E+03 -0.51598171153E+03 -0.39116792142E+03  0.74844263066E+03  0.98672242849E+02 0.  0.
         11    1    3    3    0    0 -0.14485050404E+03 -0.28750662853E+03 -0.21652114897E+03  0.38797311495E+03  0.00000000000E+00 0.  1.
        -11    1    3    3    0    0 -0.21733824578E+03 -0.22847508300E+03 -0.17464677244E+03  0.36046951571E+03  0.00000000000E+00 0. -1.
         22    1    1    2    0    0  0.36218874982E+03  0.51598171153E+03 -0.24828434336E+04  0.25616263062E+04  0.00000000000E+00 0.  1.
<mgrwt>
<rscale>  0 0.16421374E+04</rscale>
<asrwt>0</asrwt>
<pdfrwt beam="1">  1        1 0.47569847E+00 0.16421374E+04</pdfrwt>
<pdfrwt beam="2">  1       -1 0.33542892E-01 0.16421374E+04</pdfrwt>
<totfact> 0.41173551E+00</totfact>
</mgrwt>
</event>
<event>
 6    1  0.1585031E-006  0.2351398E+04  0.7818608E-02  0.8457927E-01
          1   -1    0    0  501    0  0.00000000000E+00  0.00000000000E+00  0.10294820570E+04  0.10294820570E+04  0.00000000000E+00 0. -1.
         -1   -1    0    0    0  501 -0.00000000000E+00 -0.00000000000E+00 -0.13426829941E+04  0.13426829941E+04  0.00000000000E+00 0.  1.
         23    2    1    2    0    0  0.85264989269E+03 -0.79027208759E+03  0.69849760085E+01  0.11663206040E+04  0.93344251999E+02 0.  0.
         11    1    3    3    0    0  0.49057252013E+03 -0.50976463209E+03  0.25361329312E+02  0.70792978089E+03  0.00000000000E+00 0. -1.
        -11    1    3    3    0    0  0.36207737256E+03 -0.28050745550E+03 -0.18376353303E+02  0.45839082307E+03  0.00000000000E+00 0.  1.
         22    1    1    2    0    0 -0.85264989269E+03  0.79027208759E+03 -0.32018591309E+03  0.12058444472E+04  0.00000000000E+00 0.  1.
<mgrwt>
<rscale>  0 0.23513979E+04</rscale>
<asrwt>0</asrwt>
<pdfrwt beam="1">  1        1 0.15838185E+00 0.23513979E+04</pdfrwt>
<pdfrwt beam="2">  1       -1 0.20656662E+00 0.23513979E+04</pdfrwt>
<totfact> 0.17521664E+00</totfact>
</mgrwt>
</event>
<event>
 6    1  0.1585031E-006  0.1872101E+04  0.7818608E-02  0.8668869E-01
          1   -1    0    0  501    0  0.00000000000E+00  0.00000000000E+00  0.51861208994E+03  0.51861208994E+03  0.00000000000E+00 0. -1.
         -1   -1    0    0    0  501 -0.00000000000E+00 -0.00000000000E+00 -0.16894914945E+04  0.16894914945E+04  0.00000000000E+00 0.  1.
         23    2    1    2    0    0 -0.12554696325E+03 -0.63026000141E+03  0.21233276277E+03  0.68289356310E+03  0.90932431073E+02 0.  0.
         11    1    3    3    0    0 -0.79298452308E+02 -0.18422927859E+03  0.61659243306E+02  0.20983453937E+03  0.00000000000E+00 0.  1.
        -11    1    3    3    0    0 -0.46248510939E+02 -0.44603072283E+03  0.15067351946E+03  0.47305902373E+03  0.00000000000E+00 0. -1.
         22    1    1    2    0    0  0.12554696325E+03  0.63026000141E+03 -0.13832121673E+04  0.15252100213E+04  0.00000000000E+00 0.  1.
<mgrwt>
<rscale>  0 0.18721012E+04</rscale>
<asrwt>0</asrwt>
<pdfrwt beam="1">  1        1 0.79786475E-01 0.18721012E+04</pdfrwt>
<pdfrwt beam="2">  1       -1 0.25992177E+00 0.18721012E+04</pdfrwt>
<totfact> 0.23738488E+00</totfact>
</mgrwt>
</event>
<event>
 6    1  0.1585031E-006  0.2645679E+04  0.7818608E-02  0.8352848E-01
         -1   -1    0    0    0  501 -0.00000000000E+00  0.00000000000E+00  0.91728442482E+03  0.91728442482E+03  0.00000000000E+00 0.  1.
          1   -1    0    0  501    0  0.00000000000E+00 -0.00000000000E+00 -0.19077014218E+04  0.19077014218E+04  0.00000000000E+00 0. -1.
         23    2    1    2    0    0 -0.16911203111E+03 -0.11637131064E+04 -0.11390116553E+04  0.16396979299E+04  0.91840498764E+02 0.  0.
         13    1    3    3    0    0 -0.10086249963E+03 -0.55530726156E+03 -0.48903458293E+03  0.74678927541E+03  0.00000000000E+00 0. -1.
        -13    1    3    3    0    0 -0.68249531478E+02 -0.60840584485E+03 -0.64997707235E+03  0.89290865444E+03  0.00000000000E+00 0.  1.
         22    1    1    2    0    0  0.16911203111E+03  0.11637131064E+04  0.14859465833E+03  0.11852879167E+04  0.00000000000E+00 0.  1.
<mgrwt>
<rscale>  0 0.26456793E+04</rscale>
<asrwt>0</asrwt>
<pdfrwt beam="1">  1        1 0.29349252E+00 0.26456793E+04</pdfrwt>
<pdfrwt beam="2">  1       -1 0.14112068E+00 0.26456793E+04</pdfrwt>
<totfact> 0.12394979E+00</totfact>
</mgrwt>
</event>
<event>
 6    1  0.1585031E-006  0.2626080E+04  0.7818608E-02  0.8359396E-01
         -2   -1    0    0    0  501 -0.00000000000E+00  0.00000000000E+00  0.14764035679E+04  0.14764035679E+04  0.00000000000E+00 0.  1.
          2   -1    0    0  501    0  0.00000000000E+00 -0.00000000000E+00 -0.11677526879E+04  0.11677526879E+04  0.00000000000E+00 0. -1.
         23    2    1    2    0    0 -0.12864890106E+04 -0.18719385673E+03 -0.18558445230E+02  0.13035737492E+04  0.94151948221E+02 0.  0.
         13    1    3    3    0    0 -0.65341800247E+03 -0.11540407014E+03 -0.52022522917E+02  0.66556707269E+03  0.00000000000E+00 0. -1.
        -13    1    3    3    0    0 -0.63307100812E+03 -0.71789786590E+02  0.33464077687E+02  0.63800667651E+03  0.00000000000E+00 0.  1.
         22    1    1    2    0    0  0.12864890106E+04  0.18719385673E+03  0.32720932527E+03  0.13405825066E+04  0.00000000000E+00 0.  1.
<mgrwt>
<rscale>  0 0.26260801E+04</rscale>
<asrwt>0</asrwt>
<pdfrwt beam="1">  1        2 0.17965426E+00 0.26260801E+04</pdfrwt>
<pdfrwt beam="2">  1       -2 0.22713901E+00 0.26260801E+04</pdfrwt>
<totfact> 0.15576050E+00</totfact>
</mgrwt>
</event>
<event>
 6    1  0.1585031E-006  0.1888928E+04  0.7818608E-02  0.8660387E-01
          1   -1    0    0  501    0  0.00000000000E+00  0.00000000000E+00  0.17097839489E+04  0.17097839489E+04  0.00000000000E+00 0. -1.
         -1   -1    0    0    0  501 -0.00000000000E+00 -0.00000000000E+00 -0.52171049956E+03  0.52171049956E+03  0.00000000000E+00 0.  1.
         23    2    1    2    0    0 -0.10124313213E+03  0.28230045450E+03  0.16507963543E+04  0.16800815314E+04  0.87187329765E+02 0.  0.
         13    1    3    3    0    0 -0.60368358221E+02  0.15367711013E+03  0.67005830703E+03  0.69010080979E+03  0.00000000000E+00 0.  1.
        -13    1    3    3    0    0 -0.40874773908E+02  0.12862334437E+03  0.98073804724E+03  0.98998072161E+03  0.00000000000E+00 0. -1.
         22    1    1    2    0    0  0.10124313213E+03 -0.28230045450E+03 -0.46272290490E+03  0.55141291709E+03  0.00000000000E+00 0.  1.
<mgrwt>
<rscale>  0 0.18889280E+04</rscale>
<asrwt>0</asrwt>
<pdfrwt beam="1">  1        1 0.26304368E+00 0.18889280E+04</pdfrwt>
<pdfrwt beam="2">  1       -1 0.80263154E-01 0.18889280E+04</pdfrwt>
<totfact> 0.68076085E+00</totfact>
</mgrwt>
</event>
<event>
 6    1  0.1585031E-006  0.2467537E+04  0.7818608E-02  0.8414643E-01
         -2   -1    0    0    0  501 -0.00000000000E+00  0.00000000000E+00  0.92766096214E+03  0.92766096214E+03  0.00000000000E+00 0.  1.
          2   -1    0    0  501    0  0.00000000000E+00 -0.00000000000E+00 -0.16408853163E+04  0.16408853163E+04  0.00000000000E+00 0. -1.
         23    2    1    2    0    0 -0.88400876632E+03  0.75352588701E+03  0.70687684094E+02  0.11671930592E+04  0.89833888209E+02 0.  0.
         13    1    3    3    0    0 -0.11855660503E+03  0.13956944953E+03  0.25562328163E+02  0.18490195364E+03  0.00000000000E+00 0. -1.
        -13    1    3    3    0    0 -0.76545216129E+03  0.61395643748E+03  0.45125355932E+02  0.98229110558E+03  0.00000000000E+00 0.  1.
         22    1    1    2    0    0  0.88400876632E+03 -0.75352588701E+03 -0.78391203827E+03  0.14013532192E+04  0.00000000000E+00 0. -1.
<mgrwt>
<rscale>  0 0.24675374E+04</rscale>
<asrwt>0</asrwt>
<pdfrwt beam="1">  1        2 0.25244389E+00 0.24675374E+04</pdfrwt>
<pdfrwt beam="2">  1       -2 0.14271707E+00 0.24675374E+04</pdfrwt>
<totfact> 0.32325005E+00</totfact>
</mgrwt>
</event>
<event>
 6    1  0.1585031E-006  0.1334383E+04  0.7818608E-02  0.9002735E-01
         -1   -1    0    0    0  501 -0.00000000000E+00  0.00000000000E+00  0.20628257089E+03  0.20628257089E+03  0.00000000000E+00 0.  1.
          1   -1    0    0  501    0  0.00000000000E+00 -0.00000000000E+00 -0.21579348432E+04  0.21579348432E+04  0.00000000000E+00 0. -1.
         23    2    1    2    0    0 -0.49682746084E+03  0.43730292248E+03 -0.10675196865E+04  0.12597891452E+04  0.96948632957E+02 0.  0.
         11    1    3    3    0    0 -0.15955987298E+03  0.19491814875E+03 -0.36011858261E+03  0.43947449451E+03  0.00000000000E+00 0. -1.
        -11    1    3    3    0    0 -0.33726758786E+03  0.24238477373E+03 -0.70740110386E+03  0.82031465067E+03  0.00000000000E+00 0.  1.
         22    1    1    2    0    0  0.49682746084E+03 -0.43730292248E+03 -0.88413258586E+03  0.11044282689E+04  0.00000000000E+00 0. -1.
<mgrwt>
<rscale>  0 0.13343828E+04</rscale>
<asrwt>0</asrwt>
<pdfrwt beam="1">  1        1 0.33198994E+00 0.13343828E+04</pdfrwt>
<pdfrwt beam="2">  1       -1 0.31735783E-01 0.13343828E+04</pdfrwt>
<totfact> 0.21113645E+01</totfact>
</mgrwt>
</event>
<event>
 6    1  0.1585031E-006  0.2614228E+04  0.7818608E-02  0.8363384E-01
         -2   -1    0    0    0  501 -0.00000000000E+00  0.00000000000E+00  0.74112012810E+03  0.74112012810E+03  0.00000000000E+00 0. -1.
          2   -1    0    0  501    0  0.00000000000E+00 -0.00000000000E+00 -0.23053583656E+04  0.23053583656E+04  0.00000000000E+00 0.  1.
         23    2    1    2    0    0  0.18016240495E+03 -0.10943580140E+04  0.19409229122E+02  0.11130832280E+04  0.92193270937E+02 0.  0.
         13    1    3    3    0    0  0.25610282481E+02 -0.40920289628E+03  0.23886693464E+02  0.41069875946E+03  0.00000000000E+00 0. -1.
        -13    1    3    3    0    0  0.15455212247E+03 -0.68515511775E+03 -0.44774643413E+01  0.70238446852E+03  0.00000000000E+00 0.  1.
         22    1    1    2    0    0 -0.18016240495E+03  0.10943580140E+04 -0.15836474667E+04  0.19333952658E+04  0.00000000000E+00 0.  1.
<mgrwt>
<rscale>  0 0.26142284E+04</rscale>
<asrwt>0</asrwt>
<pdfrwt beam="1">  1        2 0.35467051E+00 0.26142284E+04</pdfrwt>
<pdfrwt beam="2">  1       -2 0.11401848E+00 0.26142284E+04</pdfrwt>
<totfact> 0.23946145E+00</totfact>
</mgrwt>
</event>
<event>
 6    1  0.1585031E-006  0.1311424E+04  0.7818608E-02  0.9020555E-01
         -1   -1    0    0    0  501 -0.00000000000E+00  0.00000000000E+00  0.17088546725E+03  0.17088546725E+03  0.00000000000E+00 0.  1.
          1   -1    0    0  501    0  0.00000000000E+00 -0.00000000000E+00 -0.25160593821E+04  0.25160593821E+04  0.00000000000E+00 0. -1.
         23    2    1    2    0    0  0.68105557372E+02 -0.32935305974E+03 -0.23239310528E+04  0.23499536565E+04  0.92275914688E+02 0.  0.
         13    1    3    3    0    0  0.80049128169E+02 -0.16048145291E+03 -0.11647973037E+04  0.11785223453E+04  0.00000000000E+00 0.  1.
        -13    1    3    3    0    0 -0.11943570797E+02 -0.16887160684E+03 -0.11591337491E+04  0.11714313112E+04  0.00000000000E+00 0. -1.
         22    1    1    2    0    0 -0.68105557372E+02  0.32935305974E+03 -0.21242862072E+02  0.33699119291E+03  0.00000000000E+00 0.  1.
<mgrwt>
<rscale>  0 0.13114236E+04</rscale>
<asrwt>0</asrwt>
<pdfrwt beam="1">  1        1 0.38708603E+00 0.13114236E+04</pdfrwt>
<pdfrwt beam="2">  1       -1 0.26290074E-01 0.13114236E+04</pdfrwt>
<totfact> 0.16725779E+01</totfact>
</mgrwt>
</event>
<event>
 6    1  0.1585031E-006  0.3993481E+04  0.7818608E-02  0.8005863E-01
         -1   -1    0    0    0  501 -0.00000000000E+00  0.00000000000E+00  0.11515232988E+04  0.11515232988E+04  0.00000000000E+00 0.  1.
          1   -1    0    0  501    0  0.00000000000E+00 -0.00000000000E+00 -0.34623466068E+04  0.34623466068E+04  0.00000000000E+00 0. -1.
         23    2    1    2    0    0 -0.97277325613E+03 -0.11390709022E+04 -0.26792462851E+04  0.30713052172E+04  0.10384966409E+03 0.  0.
         13    1    3    3    0    0 -0.46644098316E+02 -0.90032674398E+02 -0.15757737246E+03  0.18738245029E+03  0.00000000000E+00 0.  1.
        -13    1    3    3    0    0 -0.92612915782E+03 -0.10490382278E+04 -0.25216689127E+04  0.28839227669E+04  0.00000000000E+00 0. -1.
         22    1    1    2    0    0  0.97277325613E+03  0.11390709022E+04  0.36842297711E+03  0.15425646884E+04  0.00000000000E+00 0.  1.
<mgrwt>
<rscale>  0 0.39934811E+04</rscale>
<asrwt>0</asrwt>
<pdfrwt beam="1">  1        1 0.53266870E+00 0.39934811E+04</pdfrwt>
<pdfrwt beam="2">  1       -1 0.17715743E+00 0.39934811E+04</pdfrwt>
<totfact> 0.45637463E-02</totfact>
</mgrwt>
</event>
<event>
 6    1  0.1585031E-006  0.1019931E+04  0.7818608E-02  0.9286951E-01
          1   -1    0    0  501    0  0.00000000000E+00  0.00000000000E+00  0.13796929131E+04  0.13796929131E+04  0.00000000000E+00 0. -1.
         -1   -1    0    0    0  501 -0.00000000000E+00 -0.00000000000E+00 -0.18849487222E+03  0.18849487222E+03  0.00000000000E+00 0.  1.
         23    2    1    2    0    0  0.11024690848E+03  0.38608403781E+03  0.10735735049E+04  0.11497970630E+04  0.90873266075E+02 0.  0.
         13    1    3    3    0    0  0.65391712912E+02  0.97576234466E+02  0.36466648954E+03  0.38311727479E+03  0.00000000000E+00 0. -1.
        -13    1    3    3    0    0  0.44855195564E+02  0.28850780334E+03  0.70890701539E+03  0.76667978819E+03  0.00000000000E+00 0.  1.
         22    1    1    2    0    0 -0.11024690848E+03 -0.38608403781E+03  0.11762453596E+03  0.41839072234E+03  0.00000000000E+00 0.  1.
<mgrwt>
<rscale>  0 0.10199314E+04</rscale>
<asrwt>0</asrwt>
<pdfrwt beam="1">  1        1 0.21226044E+00 0.10199314E+04</pdfrwt>
<pdfrwt beam="2">  1       -1 0.28999212E-01 0.10199314E+04</pdfrwt>
<totfact> 0.86058932E+01</totfact>
</mgrwt>
</event>
<event>
 6    1  0.1585031E-006  0.2549379E+04  0.7818608E-02  0.8385602E-01
         -1   -1    0    0    0  501 -0.00000000000E+00  0.00000000000E+00  0.98121310590E+03  0.98121310590E+03  0.00000000000E+00 0.  1.
          1   -1    0    0  501    0  0.00000000000E+00 -0.00000000000E+00 -0.16559432657E+04  0.16559432657E+04  0.00000000000E+00 0. -1.
         23    2    1    2    0    0  0.44366308175E+03 -0.11540523300E+04 -0.23314091365E+02  0.12396526669E+04  0.86726451406E+02 0.  0.
         13    1    3    3    0    0  0.19924794338E+03 -0.40215280496E+03 -0.88284234323E+01  0.44889259577E+03  0.00000000000E+00 0. -1.
        -13    1    3    3    0    0  0.24441513836E+03 -0.75189952501E+03 -0.14485667933E+02  0.79076007116E+03  0.00000000000E+00 0.  1.
         22    1    1    2    0    0 -0.44366308175E+03  0.11540523300E+04 -0.65141606849E+03  0.13975037047E+04  0.00000000000E+00 0. -1.
<mgrwt>
<rscale>  0 0.25493789E+04</rscale>
<asrwt>0</asrwt>
<pdfrwt beam="1">  1        1 0.25476050E+00 0.25493789E+04</pdfrwt>
<pdfrwt beam="2">  1       -1 0.15095586E+00 0.25493789E+04</pdfrwt>
<totfact> 0.15497866E+00</totfact>
</mgrwt>
</event>
<event>
 6    1  0.1585031E-006  0.2613348E+04  0.7818608E-02  0.8363681E-01
          2   -1    0    0  501    0  0.00000000000E+00  0.00000000000E+00  0.17221312007E+04  0.17221312007E+04  0.00000000000E+00 0. -1.
         -2   -1    0    0    0  501 -0.00000000000E+00 -0.00000000000E+00 -0.99144438578E+03  0.99144438578E+03  0.00000000000E+00 0.  1.
         23    2    1    2    0    0 -0.14993355629E+03 -0.57499652807E+03  0.15723718165E+04  0.16832675159E+04  0.89080425952E+02 0.  0.
         11    1    3    3    0    0 -0.10431294131E+03 -0.22619440375E+03  0.65376126808E+03  0.69960624186E+03  0.00000000000E+00 0.  1.
        -11    1    3    3    0    0 -0.45620614979E+02 -0.34880212432E+03  0.91861054840E+03  0.98366127405E+03  0.00000000000E+00 0. -1.
         22    1    1    2    0    0  0.14993355629E+03  0.57499652807E+03 -0.84168500152E+03  0.10303080706E+04  0.00000000000E+00 0.  1.
<mgrwt>
<rscale>  0 0.26133483E+04</rscale>
<asrwt>0</asrwt>
<pdfrwt beam="1">  1        2 0.26494326E+00 0.26133483E+04</pdfrwt>
<pdfrwt beam="2">  1       -2 0.15252991E+00 0.26133483E+04</pdfrwt>
<totfact> 0.24142125E+00</totfact>
</mgrwt>
</event>
<event>
 6    1  0.1585031E-006  0.2256580E+04  0.7818608E-02  0.8495240E-01
         -2   -1    0    0    0  501 -0.00000000000E+00  0.00000000000E+00  0.48282283396E+03  0.48282283396E+03  0.00000000000E+00 0.  1.
          2   -1    0    0  501    0  0.00000000000E+00 -0.00000000000E+00 -0.26366584141E+04  0.26366584141E+04  0.00000000000E+00 0. -1.
         23    2    1    2    0    0 -0.62108120306E+03  0.60089180875E+03 -0.80509075229E+02  0.87326317704E+03  0.96405594005E+02 0.  0.
         13    1    3    3    0    0 -0.32049623164E+03  0.32415404484E+03 -0.89687415833E+02  0.46458315923E+03  0.00000000000E+00 0. -1.
        -13    1    3    3    0    0 -0.30058497142E+03  0.27673776391E+03  0.91783406039E+01  0.40868001781E+03  0.00000000000E+00 0.  1.
         22    1    1    2    0    0  0.62108120306E+03 -0.60089180875E+03 -0.20733265049E+04  0.22462180710E+04  0.00000000000E+00 0. -1.
<mgrwt>
<rscale>  0 0.22565805E+04</rscale>
<asrwt>0</asrwt>
<pdfrwt beam="1">  1        2 0.40563977E+00 0.22565805E+04</pdfrwt>
<pdfrwt beam="2">  1       -2 0.74280434E-01 0.22565805E+04</pdfrwt>
<totfact> 0.42984515E+00</totfact>
</mgrwt>
</event>
<event>
 6    1  0.1585031E-006  0.6312250E+03  0.7818608E-02  0.9842661E-01
          2   -1    0    0  501    0  0.00000000000E+00  0.00000000000E+00  0.23338564074E+04  0.23338564074E+04  0.00000000000E+00 0. -1.
         -2   -1    0    0    0  501 -0.00000000000E+00 -0.00000000000E+00 -0.42680963195E+02  0.42680963195E+02  0.00000000000E+00 0.  1.
         23    2    1    2    0    0  0.26615946002E+03 -0.11911474324E+03  0.79114172788E+03  0.84842404681E+03  0.94281225047E+02 0.  0.
         13    1    3    3    0    0  0.14431177590E+03 -0.40672973614E+02  0.28614827175E+03  0.32304955173E+03  0.00000000000E+00 0.  1.
        -13    1    3    3    0    0  0.12184768412E+03 -0.78441769626E+02  0.50499345613E+03  0.52537449508E+03  0.00000000000E+00 0. -1.
         22    1    1    2    0    0 -0.26615946002E+03  0.11911474324E+03  0.15000337163E+04  0.15281133238E+04  0.00000000000E+00 0. -1.
<mgrwt>
<rscale>  0 0.63122497E+03</rscale>
<asrwt>0</asrwt>
<pdfrwt beam="1">  1        2 0.35905473E+00 0.63122497E+03</pdfrwt>
<pdfrwt beam="2">  1       -2 0.65663038E-02 0.63122497E+03</pdfrwt>
<totfact> 0.60905156E+02</totfact>
</mgrwt>
</event>
<event>
 6    1  0.1585031E-006  0.2154649E+04  0.7818608E-02  0.8537545E-01
          1   -1    0    0  501    0  0.00000000000E+00  0.00000000000E+00  0.20074225682E+04  0.20074225682E+04  0.00000000000E+00 0. -1.
         -1   -1    0    0    0  501 -0.00000000000E+00 -0.00000000000E+00 -0.57816811037E+03  0.57816811037E+03  0.00000000000E+00 0.  1.
         23    2    1    2    0    0  0.14558407730E+03 -0.32587209335E+03  0.19332551892E+04  0.19680114675E+04  0.90587883686E+02 0.  0.
         11    1    3    3    0    0  0.10532730929E+02 -0.89967611187E+02  0.65007634382E+03  0.65635688636E+03  0.00000000000E+00 0.  1.
        -11    1    3    3    0    0  0.13505134637E+03 -0.23590448216E+03  0.12831788454E+04  0.13116545811E+04  0.00000000000E+00 0. -1.
         22    1    1    2    0    0 -0.14558407730E+03  0.32587209335E+03 -0.50400073137E+03  0.61757921112E+03  0.00000000000E+00 0.  1.
<mgrwt>
<rscale>  0 0.21546487E+04</rscale>
<asrwt>0</asrwt>
<pdfrwt beam="1">  1        1 0.30883424E+00 0.21546487E+04</pdfrwt>
<pdfrwt beam="2">  1       -1 0.88948941E-01 0.21546487E+04</pdfrwt>
<totfact> 0.33418651E+00</totfact>
</mgrwt>
</event>
<event>
 6    1  0.1585031E-006  0.1246021E+04  0.7818608E-02  0.9073502E-01
          2   -1    0    0  501    0  0.00000000000E+00  0.00000000000E+00  0.17918314124E+04  0.17918314124E+04  0.00000000000E+00 0. -1.
         -2   -1    0    0    0  501 -0.00000000000E+00 -0.00000000000E+00 -0.21661741354E+03  0.21661741354E+03  0.00000000000E+00 0.  1.
         23    2    1    2    0    0 -0.37211445735E+02 -0.61656323860E+03  0.87061033464E+03  0.10714316209E+04  0.92024152370E+02 0.  0.
         13    1    3    3    0    0 -0.60250978564E+02 -0.25796616306E+03  0.38470752768E+03  0.46709378454E+03  0.00000000000E+00 0.  1.
        -13    1    3    3    0    0  0.23039532829E+02 -0.35859707554E+03  0.48590280696E+03  0.60433783638E+03  0.00000000000E+00 0. -1.
         22    1    1    2    0    0  0.37211445735E+02  0.61656323860E+03  0.70460366422E+03  0.93701720503E+03  0.00000000000E+00 0. -1.
<mgrwt>
<rscale>  0 0.12460207E+04</rscale>
<asrwt>0</asrwt>
<pdfrwt beam="1">  1        2 0.27566636E+00 0.12460207E+04</pdfrwt>
<pdfrwt beam="2">  1       -2 0.33325757E-01 0.12460207E+04</pdfrwt>
<totfact> 0.72163259E+01</totfact>
</mgrwt>
</event>
<event>
 6    1  0.1585031E-006  0.9210134E+03  0.7818608E-02  0.9399688E-01
         -1   -1    0    0    0  501 -0.00000000000E+00  0.00000000000E+00  0.38959347633E+03  0.38959347633E+03  0.00000000000E+00 0.  1.
          1   -1    0    0  501    0  0.00000000000E+00 -0.00000000000E+00 -0.54432739937E+03  0.54432739937E+03  0.00000000000E+00 0. -1.
         23    2    1    2    0    0  0.21714429396E+03 -0.12612944100E+03 -0.46509981487E+03  0.53468752651E+03  0.80700885532E+02 0.  0.
         11    1    3    3    0    0  0.23564760613E+02 -0.14765234597E+02 -0.12329135432E+03  0.12638856018E+03  0.00000000000E+00 0. -1.
        -11    1    3    3    0    0  0.19357953335E+03 -0.11136420640E+03 -0.34180846056E+03  0.40829896633E+03  0.00000000000E+00 0.  1.
         22    1    1    2    0    0 -0.21714429396E+03  0.12612944100E+03  0.31036589183E+03  0.39923334918E+03  0.00000000000E+00 0.  1.
<mgrwt>
<rscale>  0 0.92101336E+03</rscale>
<asrwt>0</asrwt>
<pdfrwt beam="1">  1        1 0.83742677E-01 0.92101336E+03</pdfrwt>
<pdfrwt beam="2">  1       -1 0.59937458E-01 0.92101336E+03</pdfrwt>
<totfact> 0.11188029E+02</totfact>
</mgrwt>
</event>
<event>
 6    1  0.1585031E-006  0.2689722E+04  0.7818608E-02  0.8338347E-01
          2   -1    0    0  501    0  0.00000000000E+00  0.00000000000E+00  0.14797966251E+04  0.14797966251E+04  0.00000000000E+00 0.  1.
         -2   -1    0    0    0  501 -0.00000000000E+00 -0.00000000000E+00 -0.12222296696E+04  0.12222296696E+04  0.00000000000E+00 0. -1.
         23    2    1    2    0    0 -0.39016399189E+02 -0.10349769845E+04 -0.73054941467E+03  0.12705677383E+04  0.89108318944E+02 0.  0.
         11    1    3    3    0    0 -0.15171421673E+02 -0.36211591064E+03 -0.30838038959E+03  0.47587453121E+03  0.00000000000E+00 0. -1.
        -11    1    3    3    0    0 -0.23844977516E+02 -0.67286107381E+03 -0.42216902509E+03  0.79469320706E+03  0.00000000000E+00 0.  1.
         22    1    1    2    0    0  0.39016399189E+02  0.10349769845E+04  0.98811637017E+03  0.14314585564E+04  0.00000000000E+00 0.  1.
<mgrwt>
<rscale>  0 0.26897222E+04</rscale>
<asrwt>0</asrwt>
<pdfrwt beam="1">  1        2 0.22766102E+00 0.26897222E+04</pdfrwt>
<pdfrwt beam="2">  1       -2 0.18803534E+00 0.26897222E+04</pdfrwt>
<totfact> 0.18287612E+00</totfact>
</mgrwt>
</event>
<event>
 6    1  0.1585031E-006  0.4645029E+04  0.7818608E-02  0.7885727E-01
          2   -1    0    0  501    0  0.00000000000E+00  0.00000000000E+00  0.21462741678E+04  0.21462741678E+04  0.00000000000E+00 0.  1.
         -2   -1    0    0    0  501 -0.00000000000E+00 -0.00000000000E+00 -0.25132268953E+04  0.25132268953E+04  0.00000000000E+00 0. -1.
         23    2    1    2    0    0 -0.86206997800E+03 -0.21235341939E+04 -0.55516933593E+03  0.23599385805E+04  0.92385024609E+02 0.  0.
         11    1    3    3    0    0 -0.50643127660E+03 -0.11994393689E+04 -0.35855051069E+03  0.13504391532E+04  0.00000000000E+00 0. -1.
        -11    1    3    3    0    0 -0.35563870140E+03 -0.92409482493E+03 -0.19661882523E+03  0.10094994274E+04  0.00000000000E+00 0.  1.
         22    1    1    2    0    0  0.86206997800E+03  0.21235341939E+04  0.18821660848E+03  0.22995624826E+04  0.00000000000E+00 0.  1.
<mgrwt>
<rscale>  0 0.46450292E+04</rscale>
<asrwt>0</asrwt>
<pdfrwt beam="1">  1        2 0.33019603E+00 0.46450292E+04</pdfrwt>
<pdfrwt beam="2">  1       -2 0.38665029E+00 0.46450292E+04</pdfrwt>
<totfact> 0.37596986E-02</totfact>
</mgrwt>
</event>
<event>
 6    1  0.1585031E-006  0.1679309E+04  0.7818608E-02  0.8773254E-01
          2   -1    0    0  501    0  0.00000000000E+00  0.00000000000E+00  0.44248062947E+03  0.44248062947E+03  0.00000000000E+00 0. -1.
         -2   -1    0    0    0  501 -0.00000000000E+00 -0.00000000000E+00 -0.15933343332E+04  0.15933343332E+04  0.00000000000E+00 0.  1.
         23    2    1    2    0    0  0.68729794884E+03 -0.29985930950E+03 -0.12584622000E+03  0.76580141248E+03  0.91216535235E+02 0.  0.
         11    1    3    3    0    0  0.50700246648E+03 -0.25101296073E+03 -0.12315345891E+03  0.57898685815E+03  0.00000000000E+00 0.  1.
        -11    1    3    3    0    0  0.18029548236E+03 -0.48846348766E+02 -0.26927610896E+01  0.18681455433E+03  0.00000000000E+00 0. -1.
         22    1    1    2    0    0 -0.68729794884E+03  0.29985930950E+03 -0.10250074837E+04  0.12700135502E+04  0.00000000000E+00 0.  1.
<mgrwt>
<rscale>  0 0.16793089E+04</rscale>
<asrwt>0</asrwt>
<pdfrwt beam="1">  1        2 0.68073944E-01 0.16793089E+04</pdfrwt>
<pdfrwt beam="2">  1       -2 0.24512836E+00 0.16793089E+04</pdfrwt>
<totfact> 0.46531116E+00</totfact>
</mgrwt>
</event>
<event>
 6    1  0.1585031E-006  0.1389051E+04  0.7818608E-02  0.8961783E-01
          2   -1    0    0  501    0  0.00000000000E+00  0.00000000000E+00  0.98350409188E+03  0.98350409188E+03  0.00000000000E+00 0. -1.
         -2   -1    0    0    0  501 -0.00000000000E+00 -0.00000000000E+00 -0.49045591279E+03  0.49045591279E+03  0.00000000000E+00 0.  1.
         23    2    1    2    0    0  0.52031033106E+03 -0.73541869977E+02  0.72461183207E+03  0.89971879001E+03  0.91106238436E+02 0.  0.
         13    1    3    3    0    0  0.48955235718E+02 -0.32452240291E+01  0.12158289735E+03  0.13110891469E+03  0.00000000000E+00 0. -1.
        -13    1    3    3    0    0  0.47135509534E+03 -0.70296645948E+02  0.60302893471E+03  0.76860987532E+03  0.00000000000E+00 0.  1.
         22    1    1    2    0    0 -0.52031033106E+03  0.73541869977E+02 -0.23156365298E+03  0.57424121467E+03  0.00000000000E+00 0.  1.
<mgrwt>
<rscale>  0 0.13890506E+04</rscale>
<asrwt>0</asrwt>
<pdfrwt beam="1">  1        2 0.15130832E+00 0.13890506E+04</pdfrwt>
<pdfrwt beam="2">  1       -2 0.75454756E-01 0.13890506E+04</pdfrwt>
<totfact> 0.39626814E+01</totfact>
</mgrwt>
</event>
<event>
 6    1  0.1585031E-006  0.2905947E+04  0.7818608E-02  0.8271110E-01
         -2   -1    0    0    0  501 -0.00000000000E+00  0.00000000000E+00  0.16719175282E+04  0.16719175282E+04  0.00000000000E+00 0.  1.
          2   -1    0    0  501    0  0.00000000000E+00 -0.00000000000E+00 -0.12627011246E+04  0.12627011246E+04  0.00000000000E+00 0. -1.
         23    2    1    2    0    0 -0.18471933954E+03 -0.12054169023E+04 -0.59028709248E+03  0.13578630022E+04  0.90564554184E+02 0.  0.
         13    1    3    3    0    0 -0.93493491777E+02 -0.83745171643E+03 -0.43340970556E+03  0.94758133330E+03  0.00000000000E+00 0. -1.
        -13    1    3    3    0    0 -0.91225847765E+02 -0.36796518589E+03 -0.15687738692E+03  0.41028166893E+03  0.00000000000E+00 0.  1.
         22    1    1    2    0    0  0.18471933954E+03  0.12054169023E+04  0.99950349614E+03  0.15767556506E+04  0.00000000000E+00 0.  1.
<mgrwt>
<rscale>  0 0.29059471E+04</rscale>
<asrwt>0</asrwt>
<pdfrwt beam="1">  1        2 0.19426171E+00 0.29059471E+04</pdfrwt>
<pdfrwt beam="2">  1       -2 0.25721808E+00 0.29059471E+04</pdfrwt>
<totfact> 0.87021409E-01</totfact>
</mgrwt>
</event>
<event>
 6    1  0.1585031E-006  0.1978854E+04  0.7818608E-02  0.8616571E-01
         -1   -1    0    0    0  501 -0.00000000000E+00  0.00000000000E+00  0.82680968689E+03  0.82680968689E+03  0.00000000000E+00 0.  1.
          1   -1    0    0  501    0  0.00000000000E+00 -0.00000000000E+00 -0.11840279807E+04  0.11840279807E+04  0.00000000000E+00 0. -1.
         23    2    1    2    0    0  0.47401335324E+03 -0.81819144869E+03 -0.46814908750E+03  0.10587706812E+04  0.87783149812E+02 0.  0.
         13    1    3    3    0    0  0.40257626442E+03 -0.63291809829E+03 -0.38943008142E+03  0.84516788636E+03  0.00000000000E+00 0. -1.
        -13    1    3    3    0    0  0.71437088822E+02 -0.18527335040E+03 -0.78719006078E+02  0.21360279480E+03  0.00000000000E+00 0.  1.
         22    1    1    2    0    0 -0.47401335324E+03  0.81819144869E+03  0.11093079366E+03  0.95206698648E+03  0.00000000000E+00 0. -1.
<mgrwt>
<rscale>  0 0.19788540E+04</rscale>
<asrwt>0</asrwt>
<pdfrwt beam="1">  1        1 0.18215815E+00 0.19788540E+04</pdfrwt>
<pdfrwt beam="2">  1       -1 0.12720149E+00 0.19788540E+04</pdfrwt>
<totfact> 0.54661058E+00</totfact>
</mgrwt>
</event>
<event>
 6    1  0.1585031E-006  0.3439271E+04  0.7818608E-02  0.8128335E-01
         -1   -1    0    0    0  501 -0.00000000000E+00  0.00000000000E+00  0.18674901879E+04  0.18674901879E+04  0.00000000000E+00 0.  1.
          1   -1    0    0  501    0  0.00000000000E+00 -0.00000000000E+00 -0.15834871630E+04  0.15834871630E+04  0.00000000000E+00 0. -1.
         23    2    1    2    0    0  0.75899521135E+03 -0.11821076854E+04  0.11351803790E+04  0.18084320095E+04  0.91321023379E+02 0.  0.
         13    1    3    3    0    0  0.39511951688E+03 -0.55393694146E+03  0.50902435934E+03  0.84974782502E+03  0.00000000000E+00 0.  1.
        -13    1    3    3    0    0  0.36387569447E+03 -0.62817074395E+03  0.62615601965E+03  0.95868418445E+03  0.00000000000E+00 0. -1.
         22    1    1    2    0    0 -0.75899521135E+03  0.11821076854E+04 -0.85117735404E+03  0.16425453415E+04  0.00000000000E+00 0.  1.
<mgrwt>
<rscale>  0 0.34392713E+04</rscale>
<asrwt>0</asrwt>
<pdfrwt beam="1">  1        1 0.24361341E+00 0.34392713E+04</pdfrwt>
<pdfrwt beam="2">  1       -1 0.28730618E+00 0.34392713E+04</pdfrwt>
<totfact> 0.18745187E-01</totfact>
</mgrwt>
</event>
<event>
 6    1  0.1585031E-006  0.1243519E+04  0.7818608E-02  0.9075595E-01
         -2   -1    0    0    0  501 -0.00000000000E+00  0.00000000000E+00  0.27718183372E+03  0.27718183372E+03  0.00000000000E+00 0.  1.
          2   -1    0    0  501    0  0.00000000000E+00 -0.00000000000E+00 -0.13946974035E+04  0.13946974035E+04  0.00000000000E+00 0. -1.
         23    2    1    2    0    0 -0.22927004764E+03  0.55087261212E+02  0.20719878170E+03  0.32634310834E+03  0.89269973296E+02 0.  0.
         13    1    3    3    0    0 -0.61312421867E+02  0.25694959962E+02  0.11414820303E+03  0.13209563315E+03  0.00000000000E+00 0. -1.
        -13    1    3    3    0    0 -0.16795762577E+03  0.29392301250E+02  0.93050578676E+02  0.19424747520E+03  0.00000000000E+00 0.  1.
         22    1    1    2    0    0  0.22927004764E+03 -0.55087261212E+02 -0.13247143515E+04  0.13455361289E+04  0.00000000000E+00 0. -1.
<mgrwt>
<rscale>  0 0.12435189E+04</rscale>
<asrwt>0</asrwt>
<pdfrwt beam="1">  1        2 0.21456884E+00 0.12435189E+04</pdfrwt>
<pdfrwt beam="2">  1       -2 0.42643358E-01 0.12435189E+04</pdfrwt>
<totfact> 0.74709761E+01</totfact>
</mgrwt>
</event>
<event>
 6    1  0.1585031E-006  0.7911637E+03  0.7818608E-02  0.9572896E-01
          1   -1    0    0  501    0  0.00000000000E+00  0.00000000000E+00  0.38680541253E+03  0.38680541253E+03  0.00000000000E+00 0. -1.
         -1   -1    0    0    0  501 -0.00000000000E+00 -0.00000000000E+00 -0.40455742792E+03  0.40455742792E+03  0.00000000000E+00 0.  1.
         23    2    1    2    0    0 -0.23093825240E+03  0.30788125354E+03 -0.80258166511E+02  0.40145213063E+03  0.81234827464E+02 0.  0.
         11    1    3    3    0    0 -0.58367141120E+01  0.29153275453E+02 -0.25195980230E+02  0.38972017154E+02  0.00000000000E+00 0.  1.
        -11    1    3    3    0    0 -0.22510153829E+03  0.27872797809E+03 -0.55062186281E+02  0.36248011348E+03  0.00000000000E+00 0. -1.
         22    1    1    2    0    0  0.23093825240E+03 -0.30788125354E+03  0.62506151125E+02  0.38991070982E+03  0.00000000000E+00 0. -1.
<mgrwt>
<rscale>  0 0.79116371E+03</rscale>
<asrwt>0</asrwt>
<pdfrwt beam="1">  1        1 0.59508526E-01 0.79116371E+03</pdfrwt>
<pdfrwt beam="2">  1       -1 0.62239604E-01 0.79116371E+03</pdfrwt>
<totfact> 0.16631841E+02</totfact>
</mgrwt>
</event>
<event>
 6    1  0.1585031E-006  0.2278276E+04  0.7818608E-02  0.8486536E-01
         -2   -1    0    0    0  501 -0.00000000000E+00  0.00000000000E+00  0.10873689306E+04  0.10873689306E+04  0.00000000000E+00 0.  1.
          2   -1    0    0  501    0  0.00000000000E+00 -0.00000000000E+00 -0.11933720002E+04  0.11933720002E+04  0.00000000000E+00 0. -1.
         23    2    1    2    0    0  0.73421476365E+03 -0.84371041324E+03 -0.25981421971E+03  0.11517695182E+04  0.90282964876E+02 0.  0.
         11    1    3    3    0    0  0.56491129585E+03 -0.66900987770E+03 -0.23876298835E+03  0.90758291811E+03  0.00000000000E+00 0. -1.
        -11    1    3    3    0    0  0.16930346780E+03 -0.17470053554E+03 -0.21051231354E+02  0.24418660010E+03  0.00000000000E+00 0.  1.
         22    1    1    2    0    0 -0.73421476365E+03  0.84371041324E+03  0.15381115016E+03  0.11289714126E+04  0.00000000000E+00 0. -1.
<mgrwt>
<rscale>  0 0.22782762E+04</rscale>
<asrwt>0</asrwt>
<pdfrwt beam="1">  1        2 0.18359569E+00 0.22782762E+04</pdfrwt>
<pdfrwt beam="2">  1       -2 0.16728753E+00 0.22782762E+04</pdfrwt>
<totfact> 0.38693298E+00</totfact>
</mgrwt>
</event>
<event>
 6    1  0.1585031E-006  0.1890077E+04  0.7818608E-02  0.8659812E-01
          2   -1    0    0  501    0  0.00000000000E+00  0.00000000000E+00  0.65392593322E+03  0.65392593322E+03  0.00000000000E+00 0. -1.
         -2   -1    0    0    0  501 -0.00000000000E+00 -0.00000000000E+00 -0.13657473853E+04  0.13657473853E+04  0.00000000000E+00 0.  1.
         23    2    1    2    0    0  0.19835086476E+03 -0.83423398719E+03  0.62502307465E+02  0.86430900563E+03  0.88510495686E+02 0.  0.
         11    1    3    3    0    0  0.77526973258E+02 -0.46520205603E+03  0.41131971018E+01  0.47163577356E+03  0.00000000000E+00 0. -1.
        -11    1    3    3    0    0  0.12082389150E+03 -0.36903193116E+03  0.58389110363E+02  0.39267323207E+03  0.00000000000E+00 0.  1.
         22    1    1    2    0    0 -0.19835086476E+03  0.83423398719E+03 -0.77432375956E+03  0.11553643129E+04  0.00000000000E+00 0.  1.
<mgrwt>
<rscale>  0 0.18900769E+04</rscale>
<asrwt>0</asrwt>
<pdfrwt beam="1">  1        2 0.10060399E+00 0.18900769E+04</pdfrwt>
<pdfrwt beam="2">  1       -2 0.21011498E+00 0.18900769E+04</pdfrwt>
<totfact> 0.47784808E+00</totfact>
</mgrwt>
</event>
<event>
 6    1  0.1585031E-006  0.2487786E+04  0.7818608E-02  0.8407350E-01
          1   -1    0    0  501    0  0.00000000000E+00  0.00000000000E+00  0.12231021190E+04  0.12231021190E+04  0.00000000000E+00 0.  1.
         -1   -1    0    0    0  501 -0.00000000000E+00 -0.00000000000E+00 -0.12650375242E+04  0.12650375242E+04  0.00000000000E+00 0. -1.
         23    2    1    2    0    0  0.11053731311E+04  0.49532071494E+03 -0.29643736260E+03  0.12504144654E+04  0.92026387033E+02 0.  0.
         11    1    3    3    0    0  0.53664208536E+03  0.19154082330E+03 -0.15012529599E+03  0.58924546605E+03  0.00000000000E+00 0. -1.
        -11    1    3    3    0    0  0.56873104570E+03  0.30377989164E+03 -0.14631206661E+03  0.66116899939E+03  0.00000000000E+00 0.  1.
         22    1    1    2    0    0 -0.11053731311E+04 -0.49532071494E+03  0.25450195742E+03  0.12377251778E+04  0.00000000000E+00 0.  1.
<mgrwt>
<rscale>  0 0.24877862E+04</rscale>
<asrwt>0</asrwt>
<pdfrwt beam="1">  1        1 0.18816956E+00 0.24877862E+04</pdfrwt>
<pdfrwt beam="2">  1       -1 0.19462116E+00 0.24877862E+04</pdfrwt>
<totfact> 0.14993216E+00</totfact>
</mgrwt>
</event>
<event>
 6    1  0.1585031E-006  0.2763637E+04  0.7818608E-02  0.8314647E-01
          2   -1    0    0  501    0  0.00000000000E+00  0.00000000000E+00  0.26973102976E+04  0.26973102976E+04  0.00000000000E+00 0. -1.
         -2   -1    0    0    0  501 -0.00000000000E+00 -0.00000000000E+00 -0.70789881558E+03  0.70789881558E+03  0.00000000000E+00 0.  1.
         23    2    1    2    0    0 -0.51517862088E+03  0.44050106904E+03 -0.48577038752E+03  0.83889356545E+03  0.91210424371E+02 0.  0.
         11    1    3    3    0    0 -0.23819123414E+03  0.22657327552E+03 -0.18372842113E+03  0.37659878642E+03  0.00000000000E+00 0. -1.
        -11    1    3    3    0    0 -0.27698738675E+03  0.21392779352E+03 -0.30204196639E+03  0.46229477903E+03  0.00000000000E+00 0.  1.
         22    1    1    2    0    0  0.51517862088E+03 -0.44050106904E+03  0.24751818695E+04  0.25663155477E+04  0.00000000000E+00 0. -1.
<mgrwt>
<rscale>  0 0.27636373E+04</rscale>
<asrwt>0</asrwt>
<pdfrwt beam="1">  1        2 0.41497081E+00 0.27636373E+04</pdfrwt>
<pdfrwt beam="2">  1       -2 0.10890751E+00 0.27636373E+04</pdfrwt>
<totfact> 0.15652069E+00</totfact>
</mgrwt>
</event>
<event>
 6    1  0.1585031E-006  0.1075949E+04  0.7818608E-02  0.9228956E-01
         -1   -1    0    0    0  501 -0.00000000000E+00  0.00000000000E+00  0.20096831798E+03  0.20096831798E+03  0.00000000000E+00 0.  1.
          1   -1    0    0  501    0  0.00000000000E+00 -0.00000000000E+00 -0.14401113672E+04  0.14401113672E+04  0.00000000000E+00 0. -1.
         23    2    1    2    0    0  0.28839652292E+03 -0.41998833131E+03 -0.86879550007E+03  0.10112225109E+04  0.90568165897E+02 0.  0.
         11    1    3    3    0    0  0.21100509371E+03 -0.24474004675E+03 -0.49398364062E+03  0.59028863893E+03  0.00000000000E+00 0.  1.
        -11    1    3    3    0    0  0.77391429214E+02 -0.17524828456E+03 -0.37481185945E+03  0.42093387193E+03  0.00000000000E+00 0. -1.
         22    1    1    2    0    0 -0.28839652292E+03  0.41998833131E+03 -0.37034754917E+03  0.62985717432E+03  0.00000000000E+00 0. -1.
<mgrwt>
<rscale>  0 0.10759494E+04</rscale>
<asrwt>0</asrwt>
<pdfrwt beam="1">  1        1 0.22155559E+00 0.10759494E+04</pdfrwt>
<pdfrwt beam="2">  1       -1 0.30918203E-01 0.10759494E+04</pdfrwt>
<totfact> 0.69510525E+01</totfact>
</mgrwt>
</event>
<event>
 6    1  0.1585031E-006  0.2145393E+04  0.7818608E-02  0.8541507E-01
          2   -1    0    0  501    0  0.00000000000E+00  0.00000000000E+00  0.24370348831E+04  0.24370348831E+04  0.00000000000E+00 0. -1.
         -2   -1    0    0    0  501 -0.00000000000E+00 -0.00000000000E+00 -0.47216303924E+03  0.47216303924E+03  0.00000000000E+00 0.  1.
         23    2    1    2    0    0 -0.80347694615E+03 -0.32406253262E+03  0.13110101252E+03  0.88106893486E+03  0.92213146810E+02 0.  0.
         13    1    3    3    0    0 -0.38311943875E+03 -0.14674028765E+03  0.16125824803E+02  0.41057673898E+03  0.00000000000E+00 0.  1.
        -13    1    3    3    0    0 -0.42035750740E+03 -0.17732224497E+03  0.11497518772E+03  0.47049219587E+03  0.00000000000E+00 0. -1.
         22    1    1    2    0    0  0.80347694615E+03  0.32406253262E+03  0.18337708313E+04  0.20281289875E+04  0.00000000000E+00 0. -1.
<mgrwt>
<rscale>  0 0.21453930E+04</rscale>
<asrwt>0</asrwt>
<pdfrwt beam="1">  1        2 0.37492844E+00 0.21453930E+04</pdfrwt>
<pdfrwt beam="2">  1       -2 0.72640469E-01 0.21453930E+04</pdfrwt>
<totfact> 0.59569820E+00</totfact>
</mgrwt>
</event>
<event>
 6    1  0.1585031E-006  0.2476007E+04  0.7818608E-02  0.8411583E-01
          2   -1    0    0  501    0  0.00000000000E+00  0.00000000000E+00  0.25406736820E+04  0.25406736820E+04  0.00000000000E+00 0. -1.
         -2   -1    0    0    0  501 -0.00000000000E+00 -0.00000000000E+00 -0.60324663193E+03  0.60324663193E+03  0.00000000000E+00 0.  1.
         23    2    1    2    0    0  0.11974687809E+04  0.30431120148E+03  0.91496832356E+03  0.15401875943E+04  0.92054354438E+02 0.  0.
         11    1    3    3    0    0  0.88546408984E+03  0.24216734236E+03  0.72406678938E+03  0.11691725243E+04  0.00000000000E+00 0. -1.
        -11    1    3    3    0    0  0.31200469102E+03  0.62143859120E+02  0.19090153418E+03  0.37101507004E+03  0.00000000000E+00 0.  1.
         22    1    1    2    0    0 -0.11974687809E+04 -0.30431120148E+03  0.10224587265E+04  0.16037327196E+04  0.00000000000E+00 0.  1.
<mgrwt>
<rscale>  0 0.24760071E+04</rscale>
<asrwt>0</asrwt>
<pdfrwt beam="1">  1        2 0.39087287E+00 0.24760071E+04</pdfrwt>
<pdfrwt beam="2">  1       -2 0.92807176E-01 0.24760071E+04</pdfrwt>
<totfact> 0.28989286E+00</totfact>
</mgrwt>
</event>
<event>
 6    1  0.1585031E-006  0.8488605E+03  0.7818608E-02  0.9491868E-01
          2   -1    0    0  501    0  0.00000000000E+00  0.00000000000E+00  0.10494258588E+04  0.10494258588E+04  0.00000000000E+00 0. -1.
         -2   -1    0    0    0  501 -0.00000000000E+00 -0.00000000000E+00 -0.17165674840E+03  0.17165674840E+03  0.00000000000E+00 0.  1.
         23    2    1    2    0    0  0.64019418882E+02  0.86179925375E+01  0.10403453410E+04  0.10461432276E+04  0.89019483279E+02 0.  0.
         13    1    3    3    0    0  0.75973688729E+02  0.32073031722E+02  0.84893352389E+03  0.85292954500E+03  0.00000000000E+00 0.  1.
        -13    1    3    3    0    0 -0.11954269847E+02 -0.23455039185E+02  0.19141181711E+03  0.19321368264E+03  0.00000000000E+00 0. -1.
         22    1    1    2    0    0 -0.64019418882E+02 -0.86179925375E+01 -0.16257623056E+03  0.17493937960E+03  0.00000000000E+00 0.  1.
<mgrwt>
<rscale>  0 0.84886048E+03</rscale>
<asrwt>0</asrwt>
<pdfrwt beam="1">  1        2 0.16145013E+00 0.84886048E+03</pdfrwt>
<pdfrwt beam="2">  1       -2 0.26408731E-01 0.84886048E+03</pdfrwt>
<totfact> 0.30492838E+02</totfact>
</mgrwt>
</event>
<event>
 6    1  0.1585031E-006  0.1878386E+04  0.7818608E-02  0.8665691E-01
          2   -1    0    0  501    0  0.00000000000E+00  0.00000000000E+00  0.12824876552E+04  0.12824876552E+04  0.00000000000E+00 0. -1.
         -2   -1    0    0    0  501 -0.00000000000E+00 -0.00000000000E+00 -0.68779071348E+03  0.68779071348E+03  0.00000000000E+00 0.  1.
         23    2    1    2    0    0 -0.47482384214E+03 -0.66597943987E+03 -0.18156660814E+03  0.84263862381E+03  0.89928425680E+02 0.  0.
         13    1    3    3    0    0 -0.14261196543E+03 -0.27373306894E+03 -0.59975028427E+02  0.31442800407E+03  0.00000000000E+00 0.  1.
        -13    1    3    3    0    0 -0.33221187671E+03 -0.39224637094E+03 -0.12159157971E+03  0.52821061974E+03  0.00000000000E+00 0. -1.
         22    1    1    2    0    0  0.47482384214E+03  0.66597943987E+03  0.77626354988E+03  0.11276397449E+04  0.00000000000E+00 0. -1.
<mgrwt>
<rscale>  0 0.18783856E+04</rscale>
<asrwt>0</asrwt>
<pdfrwt beam="1">  1        2 0.19730579E+00 0.18783856E+04</pdfrwt>
<pdfrwt beam="2">  1       -2 0.10581396E+00 0.18783856E+04</pdfrwt>
<totfact> 0.11460172E+01</totfact>
</mgrwt>
</event>
<event>
 6    1  0.1585031E-006  0.1744860E+04  0.7818608E-02  0.8736184E-01
          2   -1    0    0  501    0  0.00000000000E+00  0.00000000000E+00  0.87534072089E+03  0.87534072089E+03  0.00000000000E+00 0. -1.
         -2   -1    0    0    0  501 -0.00000000000E+00 -0.00000000000E+00 -0.86952938860E+03  0.86952938860E+03  0.00000000000E+00 0.  1.
         23    2    1    2    0    0  0.75134795723E+03 -0.41333958972E+03  0.15013924202E+03  0.87527025047E+03  0.90459107360E+02 0.  0.
         13    1    3    3    0    0  0.33555672493E+02 -0.14743906220E+02  0.25912684749E+02  0.44886892942E+02  0.00000000000E+00 0.  1.
        -13    1    3    3    0    0  0.71779228474E+03 -0.39859568350E+03  0.12422655727E+03  0.83038335753E+03  0.00000000000E+00 0. -1.
         22    1    1    2    0    0 -0.75134795723E+03  0.41333958972E+03 -0.14432790973E+03  0.86959985901E+03  0.00000000000E+00 0.  1.
<mgrwt>
<rscale>  0 0.17448604E+04</rscale>
<asrwt>0</asrwt>
<pdfrwt beam="1">  1        2 0.13466780E+00 0.17448604E+04</pdfrwt>
<pdfrwt beam="2">  1       -2 0.13377375E+00 0.17448604E+04</pdfrwt>
<totfact> 0.11669333E+01</totfact>
</mgrwt>
</event>
<event>
 6    1  0.1585031E-006  0.2844470E+04  0.7818608E-02  0.8289594E-01
          1   -1    0    0  501    0  0.00000000000E+00  0.00000000000E+00  0.30488047345E+04  0.30488047345E+04  0.00000000000E+00 0. -1.
         -1   -1    0    0    0  501 -0.00000000000E+00 -0.00000000000E+00 -0.66345766986E+03  0.66345766986E+03  0.00000000000E+00 0.  1.
         23    2    1    2    0    0 -0.31053039416E+03  0.82057960170E+03  0.26523440323E+04  0.27951651417E+04  0.90770563712E+02 0.  0.
         13    1    3    3    0    0 -0.17265144364E+03  0.56196040639E+03  0.18343916261E+04  0.19262919450E+04  0.00000000000E+00 0.  1.
        -13    1    3    3    0    0 -0.13787895052E+03  0.25861919532E+03  0.81795240620E+03  0.86887319673E+03  0.00000000000E+00 0. -1.
         22    1    1    2    0    0  0.31053039416E+03 -0.82057960170E+03 -0.26699696767E+03  0.91709726266E+03  0.00000000000E+00 0.  1.
<mgrwt>
<rscale>  0 0.28444703E+04</rscale>
<asrwt>0</asrwt>
<pdfrwt beam="1">  1        1 0.46904687E+00 0.28444703E+04</pdfrwt>
<pdfrwt beam="2">  1       -1 0.10207041E+00 0.28444703E+04</pdfrwt>
<totfact> 0.43138253E-01</totfact>
</mgrwt>
</event>
<event>
 6    1  0.1585031E-006  0.2538801E+04  0.7818608E-02  0.8389291E-01
          1   -1    0    0  501    0  0.00000000000E+00  0.00000000000E+00  0.26526362623E+04  0.26526362623E+04  0.00000000000E+00 0. -1.
         -1   -1    0    0    0  501 -0.00000000000E+00 -0.00000000000E+00 -0.60746271308E+03  0.60746271308E+03  0.00000000000E+00 0.  1.
         23    2    1    2    0    0  0.28218514308E+03 -0.12195945029E+04  0.76639730162E+03  0.14705996326E+04  0.90880410904E+02 0.  0.
         11    1    3    3    0    0  0.12274372291E+03 -0.72851230637E+03  0.44799583369E+03  0.86400027144E+03  0.00000000000E+00 0. -1.
        -11    1    3    3    0    0  0.15944142018E+03 -0.49108219648E+03  0.31840146794E+03  0.60659936115E+03  0.00000000000E+00 0.  1.
         22    1    1    2    0    0 -0.28218514308E+03  0.12195945029E+04  0.12787762476E+04  0.17894993427E+04  0.00000000000E+00 0. -1.
<mgrwt>
<rscale>  0 0.25388010E+04</rscale>
<asrwt>0</asrwt>
<pdfrwt beam="1">  1        1 0.40809788E+00 0.25388010E+04</pdfrwt>
<pdfrwt beam="2">  1       -1 0.93455803E-01 0.25388010E+04</pdfrwt>
<totfact> 0.10420422E+00</totfact>
</mgrwt>
</event>
<event>
 6    1  0.1585031E-006  0.6063695E+03  0.7818608E-02  0.9892279E-01
         -2   -1    0    0    0  501 -0.00000000000E+00  0.00000000000E+00  0.50110379701E+02  0.50110379701E+02  0.00000000000E+00 0.  1.
          2   -1    0    0  501    0  0.00000000000E+00 -0.00000000000E+00 -0.18343703140E+04  0.18343703140E+04  0.00000000000E+00 0. -1.
         23    2    1    2    0    0 -0.16958253686E+03  0.19295426632E+03 -0.45797100668E+03  0.53354327649E+03  0.94558972230E+02 0.  0.
         11    1    3    3    0    0 -0.10573378343E+03  0.79692593813E+02 -0.30679688929E+03  0.33414798181E+03  0.00000000000E+00 0. -1.
        -11    1    3    3    0    0 -0.63848753429E+02  0.11326167250E+03 -0.15117411739E+03  0.19939529468E+03  0.00000000000E+00 0.  1.
         22    1    1    2    0    0  0.16958253686E+03 -0.19295426632E+03 -0.13262889276E+04  0.13509374172E+04  0.00000000000E+00 0. -1.
<mgrwt>
<rscale>  0 0.60636950E+03</rscale>
<asrwt>0</asrwt>
<pdfrwt beam="1">  1        2 0.28221078E+00 0.60636950E+03</pdfrwt>
<pdfrwt beam="2">  1       -2 0.77092902E-02 0.60636950E+03</pdfrwt>
<totfact> 0.88598818E+02</totfact>
</mgrwt>
</event>
<event>
 6    1  0.1585031E-006  0.5121371E+04  0.7818608E-02  0.7810053E-01
          2   -1    0    0  501    0  0.00000000000E+00  0.00000000000E+00  0.30286097701E+04  0.30286097701E+04  0.00000000000E+00 0. -1.
         -2   -1    0    0    0  501 -0.00000000000E+00 -0.00000000000E+00 -0.21650560348E+04  0.21650560348E+04  0.00000000000E+00 0.  1.
         23    2    1    2    0    0  0.19954467795E+04  0.82356568907E+03 -0.96329542207E+03  0.23656901794E+04  0.92106789223E+02 0.  0.
         13    1    3    3    0    0  0.16857674395E+04  0.73097838363E+03 -0.82373010736E+03  0.20136217487E+04  0.00000000000E+00 0. -1.
        -13    1    3    3    0    0  0.30967934008E+03  0.92587305444E+02 -0.13956531472E+03  0.35206843067E+03  0.00000000000E+00 0.  1.
         22    1    1    2    0    0 -0.19954467795E+04 -0.82356568907E+03  0.18268491574E+04  0.28279756254E+04  0.00000000000E+00 0. -1.
<mgrwt>
<rscale>  0 0.51213709E+04</rscale>
<asrwt>0</asrwt>
<pdfrwt beam="1">  1        2 0.46593996E+00 0.51213709E+04</pdfrwt>
<pdfrwt beam="2">  1       -2 0.33308554E+00 0.51213709E+04</pdfrwt>
<totfact> 0.23910133E-02</totfact>
</mgrwt>
</event>
<event>
 6    1  0.1585031E-006  0.4726705E+04  0.7818608E-02  0.7872106E-01
         -1   -1    0    0    0  501 -0.00000000000E+00  0.00000000000E+00  0.20828439657E+04  0.20828439657E+04  0.00000000000E+00 0.  1.
          1   -1    0    0  501    0  0.00000000000E+00 -0.00000000000E+00 -0.26816388551E+04  0.26816388551E+04  0.00000000000E+00 0. -1.
         23    2    1    2    0    0 -0.20238735109E+03 -0.72958895741E+03  0.19561986897E+04  0.20996652144E+04  0.92844022240E+02 0.  0.
         11    1    3    3    0    0 -0.14872228192E+03 -0.44037184336E+03  0.10931371257E+04  0.11878528752E+04  0.00000000000E+00 0. -1.
        -11    1    3    3    0    0 -0.53665069177E+02 -0.28921711404E+03  0.86306156393E+03  0.91181233916E+03  0.00000000000E+00 0.  1.
         22    1    1    2    0    0  0.20238735109E+03  0.72958895741E+03 -0.25549935790E+04  0.26648176064E+04  0.00000000000E+00 0. -1.
<mgrwt>
<rscale>  0 0.47267051E+04</rscale>
<asrwt>0</asrwt>
<pdfrwt beam="1">  1        1 0.41255982E+00 0.47267051E+04</pdfrwt>
<pdfrwt beam="2">  1       -1 0.32043754E+00 0.47267051E+04</pdfrwt>
<totfact> 0.18139132E-02</totfact>
</mgrwt>
</event>
<event>
 6    1  0.2642342E-006  0.3405424E+04  0.7818608E-02  0.8136576E-01
         -2   -1    0    0    0  501 -0.00000000000E+00  0.00000000000E+00  0.11161471726E+04  0.11161471726E+04  0.00000000000E+00 0.  1.
          2   -1    0    0  501    0  0.00000000000E+00 -0.00000000000E+00 -0.25975315459E+04  0.25975315459E+04  0.00000000000E+00 0. -1.
         23    2    1    2    0    0  0.62920128263E+03 -0.27670067952E+03  0.95610401672E+03  0.11811291786E+04  0.92052841421E+02 0.  0.
         13    1    3    3    0    0  0.37878290754E+03 -0.18503581884E+03  0.51323975463E+03  0.66417602413E+03  0.00000000000E+00 0.  1.
        -13    1    3    3    0    0  0.25041837509E+03 -0.91664860680E+02  0.44286426209E+03  0.51695315446E+03  0.00000000000E+00 0. -1.
         22    1    1    2    0    0 -0.62920128263E+03  0.27670067952E+03 -0.24374883901E+04  0.25325495399E+04  0.00000000000E+00 0. -1.
<mgrwt>
<rscale>  0 0.34054236E+04</rscale>
<asrwt>0</asrwt>
<pdfrwt beam="1">  1        2 0.39962024E+00 0.34054236E+04</pdfrwt>
<pdfrwt beam="2">  1       -2 0.17171495E+00 0.34054236E+04</pdfrwt>
<totfact> 0.52388010E-01</totfact>
</mgrwt>
</event>
<event>
 6    1  0.1585031E-006  0.3724881E+04  0.7818608E-02  0.8062470E-01
          2   -1    0    0  501    0  0.00000000000E+00  0.00000000000E+00  0.37069477793E+04  0.37069477793E+04  0.00000000000E+00 0. -1.
         -2   -1    0    0    0  501 -0.00000000000E+00 -0.00000000000E+00 -0.93572510306E+03  0.93572510306E+03  0.00000000000E+00 0.  1.
         23    2    1    2    0    0 -0.12890660229E+04 -0.12324567117E+04  0.72262506564E+03  0.19265372216E+04  0.93369817676E+02 0.  0.
         11    1    3    3    0    0 -0.70088924112E+03 -0.64407366417E+03  0.33958337671E+03  0.10106401352E+04  0.00000000000E+00 0. -1.
        -11    1    3    3    0    0 -0.58817678180E+03 -0.58838304755E+03  0.38304168894E+03  0.91589708633E+03  0.00000000000E+00 0.  1.
         22    1    1    2    0    0  0.12890660229E+04  0.12324567117E+04  0.20485976106E+04  0.27161356608E+04  0.00000000000E+00 0. -1.
<mgrwt>
<rscale>  0 0.37248807E+04</rscale>
<asrwt>0</asrwt>
<pdfrwt beam="1">  1        2 0.57029965E+00 0.37248807E+04</pdfrwt>
<pdfrwt beam="2">  1       -2 0.14395771E+00 0.37248807E+04</pdfrwt>
<totfact> 0.15504690E-01</totfact>
</mgrwt>
</event>
<event>
 6    1  0.1585031E-006  0.1108450E+04  0.7818608E-02  0.9196995E-01
          1   -1    0    0  501    0  0.00000000000E+00  0.00000000000E+00  0.11247752920E+04  0.11247752920E+04  0.00000000000E+00 0. -1.
         -1   -1    0    0    0  501 -0.00000000000E+00 -0.00000000000E+00 -0.27309037758E+03  0.27309037758E+03  0.00000000000E+00 0.  1.
         23    2    1    2    0    0 -0.18259670003E+03 -0.12104759616E+03 -0.20770196552E+03  0.31606409961E+03  0.93607335103E+02 0.  0.
         13    1    3    3    0    0 -0.11318123512E+03 -0.20015130785E+02 -0.88276940632E+02  0.14492555224E+03  0.00000000000E+00 0. -1.
        -13    1    3    3    0    0 -0.69415464905E+02 -0.10103246537E+03 -0.11942502489E+03  0.17113854737E+03  0.00000000000E+00 0.  1.
         22    1    1    2    0    0  0.18259670003E+03  0.12104759616E+03  0.10593868800E+04  0.10818015700E+04  0.00000000000E+00 0. -1.
<mgrwt>
<rscale>  0 0.11084499E+04</rscale>
<asrwt>0</asrwt>
<pdfrwt beam="1">  1        1 0.17304235E+00 0.11084499E+04</pdfrwt>
<pdfrwt beam="2">  1       -1 0.42013905E-01 0.11084499E+04</pdfrwt>
<totfact> 0.67270676E+01</totfact>
</mgrwt>
</event>
<event>
 6    1  0.1585031E-006  0.1642347E+04  0.7818608E-02  0.8794947E-01
          2   -1    0    0  501    0  0.00000000000E+00  0.00000000000E+00  0.72081756268E+03  0.72081756268E+03  0.00000000000E+00 0.  1.
         -2   -1    0    0    0  501 -0.00000000000E+00 -0.00000000000E+00 -0.93550181274E+03  0.93550181274E+03  0.00000000000E+00 0. -1.
         23    2    1    2    0    0 -0.72962645821E+02  0.80945943964E+03 -0.88976902929E+01  0.81793030090E+03  0.91556955659E+02 0.  0.
         13    1    3    3    0    0  0.21033941874E+02  0.18745273796E+03 -0.93597344021E+01  0.18886121970E+03  0.00000000000E+00 0. -1.
        -13    1    3    3    0    0 -0.93996587695E+02  0.62200670168E+03  0.46204410917E+00  0.62906908120E+03  0.00000000000E+00 0.  1.
         22    1    1    2    0    0  0.72962645821E+02 -0.80945943964E+03 -0.20578655976E+03  0.83838907452E+03  0.00000000000E+00 0.  1.
<mgrwt>
<rscale>  0 0.16423473E+04</rscale>
<asrwt>0</asrwt>
<pdfrwt beam="1">  1        2 0.11089501E+00 0.16423473E+04</pdfrwt>
<pdfrwt beam="2">  1       -2 0.14392335E+00 0.16423473E+04</pdfrwt>
<totfact> 0.12600574E+01</totfact>
</mgrwt>
</event>
<event>
 6    1  0.1585031E-006  0.1500969E+04  0.7818608E-02  0.8883809E-01
          2   -1    0    0  501    0  0.00000000000E+00  0.00000000000E+00  0.18380129920E+04  0.18380129920E+04  0.00000000000E+00 0. -1.
         -2   -1    0    0    0  501 -0.00000000000E+00 -0.00000000000E+00 -0.30643263300E+03  0.30643263300E+03  0.00000000000E+00 0.  1.
         23    2    1    2    0    0 -0.75970746251E+02 -0.72282286483E+03  0.10190230498E+04  0.12550866180E+04  0.92682222407E+02 0.  0.
         11    1    3    3    0    0  0.10501318544E+02 -0.16628032829E+03  0.28134659586E+03  0.32697910066E+03  0.00000000000E+00 0. -1.
        -11    1    3    3    0    0 -0.86472064795E+02 -0.55654253654E+03  0.73767645394E+03  0.92810751730E+03  0.00000000000E+00 0.  1.
         22    1    1    2    0    0  0.75970746251E+02  0.72282286483E+03  0.51255730923E+03  0.88935900706E+03  0.00000000000E+00 0.  1.
<mgrwt>
<rscale>  0 0.15009692E+04</rscale>
<asrwt>0</asrwt>
<pdfrwt beam="1">  1        2 0.28277122E+00 0.15009692E+04</pdfrwt>
<pdfrwt beam="2">  1       -2 0.47143483E-01 0.15009692E+04</pdfrwt>
<totfact> 0.33867273E+01</totfact>
</mgrwt>
</event>
<event>
 6    1  0.1585031E-006  0.1419246E+04  0.7818608E-02  0.8940004E-01
         -1   -1    0    0    0  501 -0.00000000000E+00  0.00000000000E+00  0.10099987686E+04  0.10099987686E+04  0.00000000000E+00 0.  1.
          1   -1    0    0  501    0  0.00000000000E+00 -0.00000000000E+00 -0.49857949927E+03  0.49857949927E+03  0.00000000000E+00 0. -1.
         23    2    1    2    0    0 -0.28720848138E+03  0.59748210637E+03  0.51686493054E+03  0.84562786670E+03  0.91997572331E+02 0.  0.
         11    1    3    3    0    0 -0.45675685171E+02  0.43049001285E+02  0.31740841270E+02  0.70334669488E+02  0.00000000000E+00 0.  1.
        -11    1    3    3    0    0 -0.24153279621E+03  0.55443310508E+03  0.48512408927E+03  0.77529319721E+03  0.00000000000E+00 0. -1.
         22    1    1    2    0    0  0.28720848138E+03 -0.59748210637E+03 -0.54456611926E+01  0.66295040118E+03  0.00000000000E+00 0.  1.
<mgrwt>
<rscale>  0 0.14192458E+04</rscale>
<asrwt>0</asrwt>
<pdfrwt beam="1">  1        1 0.76704539E-01 0.14192458E+04</pdfrwt>
<pdfrwt beam="2">  1       -1 0.15538443E+00 0.14192458E+04</pdfrwt>
<totfact> 0.13731625E+01</totfact>
</mgrwt>
</event>
<event>
 6    1  0.1585031E-006  0.3244324E+04  0.7818608E-02  0.8177208E-01
          1   -1    0    0  501    0  0.00000000000E+00  0.00000000000E+00  0.24644153663E+04  0.24644153663E+04  0.00000000000E+00 0. -1.
         -1   -1    0    0    0  501 -0.00000000000E+00 -0.00000000000E+00 -0.10677623665E+04  0.10677623665E+04  0.00000000000E+00 0.  1.
         23    2    1    2    0    0  0.10854306557E+04  0.98461620362E+03  0.14526673922E+04  0.20656285898E+04  0.94605190028E+02 0.  0.
         11    1    3    3    0    0  0.30842987841E+03  0.28521567981E+03  0.35775099146E+03  0.55178142937E+03  0.00000000000E+00 0.  1.
        -11    1    3    3    0    0  0.77700077726E+03  0.69940052381E+03  0.10949164007E+04  0.15138471604E+04  0.00000000000E+00 0. -1.
         22    1    1    2    0    0 -0.10854306557E+04 -0.98461620362E+03 -0.56014392414E+02  0.14665491430E+04  0.00000000000E+00 0.  1.
<mgrwt>
<rscale>  0 0.32443243E+04</rscale>
<asrwt>0</asrwt>
<pdfrwt beam="1">  1        1 0.37914082E+00 0.32443243E+04</pdfrwt>
<pdfrwt beam="2">  1       -1 0.16427113E+00 0.32443243E+04</pdfrwt>
<totfact> 0.32425145E-01</totfact>
</mgrwt>
</event>
<event>
 6    1  0.1585031E-006  0.1643149E+04  0.7818608E-02  0.8794470E-01
         -2   -1    0    0    0  501 -0.00000000000E+00  0.00000000000E+00  0.23476302210E+03  0.23476302210E+03  0.00000000000E+00 0.  1.
          2   -1    0    0  501    0  0.00000000000E+00 -0.00000000000E+00 -0.28751755164E+04  0.28751755164E+04  0.00000000000E+00 0. -1.
         23    2    1    2    0    0  0.58501713469E+02 -0.75262557399E+03 -0.19283344733E+04  0.20721896223E+04  0.75021895326E+02 0.  0.
         13    1    3    3    0    0  0.20507979438E+02 -0.20385374159E+03 -0.61788766845E+03  0.65097011913E+03  0.00000000000E+00 0. -1.
        -13    1    3    3    0    0  0.37993734031E+02 -0.54877183241E+03 -0.13104468048E+04  0.14212195031E+04  0.00000000000E+00 0.  1.
         22    1    1    2    0    0 -0.58501713469E+02  0.75262557399E+03 -0.71207802107E+03  0.10377489163E+04  0.00000000000E+00 0.  1.
<mgrwt>
<rscale>  0 0.16431493E+04</rscale>
<asrwt>0</asrwt>
<pdfrwt beam="1">  1        2 0.44233468E+00 0.16431493E+04</pdfrwt>
<pdfrwt beam="2">  1       -2 0.36117390E-01 0.16431493E+04</pdfrwt>
<totfact> 0.14407022E+01</totfact>
</mgrwt>
</event>
<event>
 6    1  0.1585031E-006  0.2373141E+04  0.7818608E-02  0.8449628E-01
         -2   -1    0    0    0  501 -0.00000000000E+00  0.00000000000E+00  0.64436040344E+03  0.64436040344E+03  0.00000000000E+00 0.  1.
          2   -1    0    0  501    0  0.00000000000E+00 -0.00000000000E+00 -0.21850350678E+04  0.21850350678E+04  0.00000000000E+00 0. -1.
         23    2    1    2    0    0  0.87978000188E+03 -0.73669460581E+03 -0.11215510309E+04  0.16077586946E+04  0.10138792414E+03 0.  0.
         13    1    3    3    0    0  0.21801852835E+03 -0.22637311052E+03 -0.34956854771E+03  0.47007981601E+03  0.00000000000E+00 0. -1.
        -13    1    3    3    0    0  0.66176147353E+03 -0.51032149529E+03 -0.77198248315E+03  0.11376788786E+04  0.00000000000E+00 0.  1.
         22    1    1    2    0    0 -0.87978000188E+03  0.73669460581E+03 -0.41912363347E+03  0.12216367767E+04  0.00000000000E+00 0. -1.
<mgrwt>
<rscale>  0 0.23731414E+04</rscale>
<asrwt>0</asrwt>
<pdfrwt beam="1">  1        2 0.33615924E+00 0.23731414E+04</pdfrwt>
<pdfrwt beam="2">  1       -2 0.99132369E-01 0.23731414E+04</pdfrwt>
<totfact> 0.40004326E+00</totfact>
</mgrwt>
</event>
<event>
 6    1  0.1585031E-006  0.2190512E+04  0.7818608E-02  0.8522387E-01
         -3   -1    0    0    0  501 -0.00000000000E+00  0.00000000000E+00  0.10647329690E+04  0.10647329690E+04  0.00000000000E+00 0.  1.
          3   -1    0    0  501    0  0.00000000000E+00 -0.00000000000E+00 -0.11266543354E+04  0.11266543354E+04  0.00000000000E+00 0. -1.
         23    2    1    2    0    0  0.31274141044E+03 -0.49566851426E+03  0.89227587568E+03  0.10715717649E+04  0.92818873011E+02 0.  0.
         13    1    3    3    0    0  0.33544501736E+01 -0.47229317632E+02  0.91694530963E+02  0.10319761523E+03  0.00000000000E+00 0. -1.
        -13    1    3    3    0    0  0.30938696026E+03 -0.44843919663E+03  0.80058134472E+03  0.96837414968E+03  0.00000000000E+00 0.  1.
         22    1    1    2    0    0 -0.31274141044E+03  0.49566851426E+03 -0.95419724208E+03  0.11198155396E+04  0.00000000000E+00 0. -1.
<mgrwt>
<rscale>  0 0.21905123E+04</rscale>
<asrwt>0</asrwt>
<pdfrwt beam="1">  1        3 0.17333143E+00 0.21905123E+04</pdfrwt>
<pdfrwt beam="2">  1       -3 0.16380507E+00 0.21905123E+04</pdfrwt>
<totfact> 0.13448328E-01</totfact>
</mgrwt>
</event>
<event>
 6    1  0.1585031E-006  0.3982652E+04  0.7818608E-02  0.8008055E-01
         -2   -1    0    0    0  501 -0.00000000000E+00  0.00000000000E+00  0.13530697906E+04  0.13530697906E+04  0.00000000000E+00 0. -1.
          2   -1    0    0  501    0  0.00000000000E+00 -0.00000000000E+00 -0.29306543526E+04  0.29306543526E+04  0.00000000000E+00 0.  1.
         23    2    1    2    0    0  0.39057430290E+03 -0.34775385857E+03 -0.28548198672E+04  0.29035752175E+04  0.85273311172E+02 0.  0.
         13    1    3    3    0    0  0.34171564121E+03 -0.27094231686E+03 -0.22404679822E+04  0.22825153007E+04  0.00000000000E+00 0. -1.
        -13    1    3    3    0    0  0.48858661694E+02 -0.76811541709E+02 -0.61435188498E+03  0.62105991687E+03  0.00000000000E+00 0.  1.
         22    1    1    2    0    0 -0.39057430290E+03  0.34775385857E+03  0.12772353052E+04  0.13801489257E+04  0.00000000000E+00 0. -1.
<mgrwt>
<rscale>  0 0.39826523E+04</rscale>
<asrwt>0</asrwt>
<pdfrwt beam="1">  1        2 0.45086989E+00 0.39826523E+04</pdfrwt>
<pdfrwt beam="2">  1       -2 0.20816459E+00 0.39826523E+04</pdfrwt>
<totfact> 0.17870764E-01</totfact>
</mgrwt>
</event>
<event>
 6    1  0.1585031E-006  0.1519175E+04  0.7818608E-02  0.8871801E-01
         -2   -1    0    0    0  501 -0.00000000000E+00  0.00000000000E+00  0.35475140336E+03  0.35475140336E+03  0.00000000000E+00 0.  1.
          2   -1    0    0  501    0  0.00000000000E+00 -0.00000000000E+00 -0.16264164510E+04  0.16264164510E+04  0.00000000000E+00 0. -1.
         23    2    1    2    0    0  0.33443284449E+02 -0.97915118785E+02 -0.16148739348E+04  0.16227014487E+04  0.12098075372E+03 0.  0.
         13    1    3    3    0    0  0.72166797472E+02 -0.62855560351E+02 -0.72406228987E+03  0.73035954689E+03  0.00000000000E+00 0.  1.
        -13    1    3    3    0    0 -0.38723513024E+02 -0.35059558434E+02 -0.89081164490E+03  0.89234190185E+03  0.00000000000E+00 0. -1.
         22    1    1    2    0    0 -0.33443284449E+02  0.97915118785E+02  0.34320888713E+03  0.35846640563E+03  0.00000000000E+00 0.  1.
<mgrwt>
<rscale>  0 0.15191755E+04</rscale>
<asrwt>0</asrwt>
<pdfrwt beam="1">  1        2 0.25021791E+00 0.15191755E+04</pdfrwt>
<pdfrwt beam="2">  1       -2 0.54577139E-01 0.15191755E+04</pdfrwt>
<totfact> 0.32849814E+01</totfact>
</mgrwt>
</event>
<event>
 6    1  0.1585031E-006  0.1158386E+04  0.7818608E-02  0.9150082E-01
         -2   -1    0    0    0  501 -0.00000000000E+00  0.00000000000E+00  0.21930786723E+03  0.21930786723E+03  0.00000000000E+00 0.  1.
          2   -1    0    0  501    0  0.00000000000E+00 -0.00000000000E+00 -0.15296510370E+04  0.15296510370E+04  0.00000000000E+00 0. -1.
         23    2    1    2    0    0 -0.38258543122E+03  0.30092942341E+03 -0.11229098325E+04  0.12273638640E+04  0.92549623439E+02 0.  0.
         13    1    3    3    0    0 -0.31313592824E+03  0.20796735277E+03 -0.79156229033E+03  0.87628499294E+03  0.00000000000E+00 0. -1.
        -13    1    3    3    0    0 -0.69449502979E+02  0.92962070640E+02 -0.33134754214E+03  0.35107887109E+03  0.00000000000E+00 0.  1.
         22    1    1    2    0    0  0.38258543122E+03 -0.30092942341E+03 -0.18743333732E+03  0.52159504023E+03  0.00000000000E+00 0.  1.
<mgrwt>
<rscale>  0 0.11583860E+04</rscale>
<asrwt>0</asrwt>
<pdfrwt beam="1">  1        2 0.23533093E+00 0.11583860E+04</pdfrwt>
<pdfrwt beam="2">  1       -2 0.33739671E-01 0.11583860E+04</pdfrwt>
<totfact> 0.99229684E+01</totfact>
</mgrwt>
</event>
<event>
 6    1  0.1585031E-006  0.1708848E+04  0.7818608E-02  0.8756334E-01
         -2   -1    0    0    0  501 -0.00000000000E+00  0.00000000000E+00  0.84575545476E+03  0.84575545476E+03  0.00000000000E+00 0.  1.
          2   -1    0    0  501    0  0.00000000000E+00 -0.00000000000E+00 -0.86318113239E+03  0.86318113239E+03  0.00000000000E+00 0. -1.
         23    2    1    2    0    0  0.67032577350E+03 -0.20739379947E+03 -0.49202700513E+03  0.86182664697E+03  0.91135969770E+02 0.  0.
         11    1    3    3    0    0  0.47209597153E+02 -0.41094614994E+02 -0.40541178139E+02  0.74572787059E+02  0.00000000000E+00 0. -1.
        -11    1    3    3    0    0  0.62311617634E+03 -0.16629918447E+03 -0.45148582699E+03  0.78725385992E+03  0.00000000000E+00 0.  1.
         22    1    1    2    0    0 -0.67032577350E+03  0.20739379947E+03  0.47460132750E+03  0.84710994017E+03  0.00000000000E+00 0.  1.
<mgrwt>
<rscale>  0 0.17088477E+04</rscale>
<asrwt>0</asrwt>
<pdfrwt beam="1">  1        2 0.13279710E+00 0.17088477E+04</pdfrwt>
<pdfrwt beam="2">  1       -2 0.13011622E+00 0.17088477E+04</pdfrwt>
<totfact> 0.12802675E+01</totfact>
</mgrwt>
</event>
<event>
 6    1  0.1585031E-006  0.1581085E+04  0.7818608E-02  0.8832253E-01
         -1   -1    0    0    0  501 -0.00000000000E+00  0.00000000000E+00  0.19042055420E+04  0.19042055420E+04  0.00000000000E+00 0.  1.
          1   -1    0    0  501    0  0.00000000000E+00 -0.00000000000E+00 -0.32819843282E+03  0.32819843282E+03  0.00000000000E+00 0. -1.
         23    2    1    2    0    0 -0.13570276913E+02  0.48849069938E+03  0.16631479805E+04  0.17360161755E+04  0.94253067094E+02 0.  0.
         13    1    3    3    0    0 -0.83445354255E+01  0.18859110435E+03  0.48930359598E+03  0.52445614207E+03  0.00000000000E+00 0. -1.
        -13    1    3    3    0    0 -0.52257414877E+01  0.29989959503E+03  0.11738443846E+04  0.12115600334E+04  0.00000000000E+00 0.  1.
         22    1    1    2    0    0  0.13570276913E+02 -0.48849069938E+03 -0.87140871407E+02  0.49638779927E+03  0.00000000000E+00 0. -1.
<mgrwt>
<rscale>  0 0.15810848E+04</rscale>
<asrwt>0</asrwt>
<pdfrwt beam="1">  1        1 0.50492068E-01 0.15810848E+04</pdfrwt>
<pdfrwt beam="2">  1       -1 0.29295469E+00 0.15810848E+04</pdfrwt>
<totfact> 0.27529560E+00</totfact>
</mgrwt>
</event>
<event>
 6    1  0.1585031E-006  0.3460739E+04  0.7818608E-02  0.8123158E-01
          2   -1    0    0  501    0  0.00000000000E+00  0.00000000000E+00  0.22178859188E+04  0.22178859188E+04  0.00000000000E+00 0. -1.
         -2   -1    0    0    0  501 -0.00000000000E+00 -0.00000000000E+00 -0.13500146547E+04  0.13500146547E+04  0.00000000000E+00 0.  1.
         23    2    1    2    0    0  0.12046205102E+04  0.35129776943E+03  0.16608961124E+04  0.20835121114E+04  0.89028792322E+02 0.  0.
         11    1    3    3    0    0  0.50159883934E+03  0.11038305132E+03  0.72373348196E+03  0.88745476873E+03  0.00000000000E+00 0. -1.
        -11    1    3    3    0    0  0.70302167082E+03  0.24091471811E+03  0.93716263048E+03  0.11960573427E+04  0.00000000000E+00 0.  1.
         22    1    1    2    0    0 -0.12046205102E+04 -0.35129776943E+03 -0.79302484828E+03  0.14843884621E+04  0.00000000000E+00 0.  1.
<mgrwt>
<rscale>  0 0.34607389E+04</rscale>
<asrwt>0</asrwt>
<pdfrwt beam="1">  1        2 0.34121322E+00 0.34607389E+04</pdfrwt>
<pdfrwt beam="2">  1       -2 0.20769456E+00 0.34607389E+04</pdfrwt>
<totfact> 0.49286018E-01</totfact>
</mgrwt>
</event>
<event>
 6    1  0.1585031E-006  0.1652712E+04  0.7818608E-02  0.8788804E-01
         -2   -1    0    0    0  501 -0.00000000000E+00  0.00000000000E+00  0.23554261670E+03  0.23554261670E+03  0.00000000000E+00 0.  1.
          2   -1    0    0  501    0  0.00000000000E+00 -0.00000000000E+00 -0.28991107345E+04  0.28991107345E+04  0.00000000000E+00 0. -1.
         23    2    1    2    0    0  0.17208896236E+03 -0.80472239334E+03 -0.14100086173E+04  0.16351187025E+04  0.91083089114E+02 0.  0.
         13    1    3    3    0    0  0.83289092653E+02 -0.57802958402E+03 -0.10201386628E+04  0.11754735915E+04  0.00000000000E+00 0. -1.
        -13    1    3    3    0    0  0.88799869710E+02 -0.22669280932E+03 -0.38986995444E+03  0.45964511096E+03  0.00000000000E+00 0.  1.
         22    1    1    2    0    0 -0.17208896236E+03  0.80472239334E+03 -0.12535595005E+04  0.14995346487E+04  0.00000000000E+00 0.  1.
<mgrwt>
<rscale>  0 0.16527119E+04</rscale>
<asrwt>0</asrwt>
<pdfrwt beam="1">  1        2 0.44601706E+00 0.16527119E+04</pdfrwt>
<pdfrwt beam="2">  1       -2 0.36237323E-01 0.16527119E+04</pdfrwt>
<totfact> 0.13829681E+01</totfact>
</mgrwt>
</event>
<event>
 6    1  0.1609308E-006  0.2980797E+04  0.7818608E-02  0.8249236E-01
          2   -1    0    0  501    0  0.00000000000E+00  0.00000000000E+00  0.26808244069E+04  0.26808244069E+04  0.00000000000E+00 0. -1.
         -2   -1    0    0    0  501 -0.00000000000E+00 -0.00000000000E+00 -0.82858399733E+03  0.82858399733E+03  0.00000000000E+00 0.  1.
         23    2    1    2    0    0 -0.21760763649E+03  0.97709836849E+03 -0.37084552602E+03  0.10713383925E+04  0.90361727873E+02 0.  0.
         11    1    3    3    0    0 -0.13388400537E+03  0.41647813579E+03 -0.14037924305E+03  0.45944019890E+03  0.00000000000E+00 0. -1.
        -11    1    3    3    0    0 -0.83723631126E+02  0.56062023270E+03 -0.23046628297E+03  0.61189819358E+03  0.00000000000E+00 0.  1.
         22    1    1    2    0    0  0.21760763649E+03 -0.97709836849E+03  0.22230859356E+04  0.24380700117E+04  0.00000000000E+00 0. -1.
<mgrwt>
<rscale>  0 0.29807973E+04</rscale>
<asrwt>0</asrwt>
<pdfrwt beam="1">  1        2 0.41243452E+00 0.29807973E+04</pdfrwt>
<pdfrwt beam="2">  1       -2 0.12747446E+00 0.29807973E+04</pdfrwt>
<totfact> 0.10663859E+00</totfact>
</mgrwt>
</event>
<event>
 6    1  0.1585031E-006  0.3333178E+04  0.7818608E-02  0.8154504E-01
         -1   -1    0    0    0  501 -0.00000000000E+00  0.00000000000E+00  0.17500996890E+04  0.17500996890E+04  0.00000000000E+00 0.  1.
          1   -1    0    0  501    0  0.00000000000E+00 -0.00000000000E+00 -0.15870629414E+04  0.15870629414E+04  0.00000000000E+00 0. -1.
         23    2    1    2    0    0  0.80632632515E+03  0.16989501867E+03 -0.13673844799E+04  0.15989981981E+04  0.89601683530E+02 0.  0.
         11    1    3    3    0    0  0.25639470511E+03  0.52752113924E+02 -0.35676859778E+03  0.44249843242E+03  0.00000000000E+00 0. -1.
        -11    1    3    3    0    0  0.54993162004E+03  0.11714290475E+03 -0.10106158821E+04  0.11564997657E+04  0.00000000000E+00 0.  1.
         22    1    1    2    0    0 -0.80632632515E+03 -0.16989501867E+03  0.15304212275E+04  0.17381644322E+04  0.00000000000E+00 0.  1.
<mgrwt>
<rscale>  0 0.33331777E+04</rscale>
<asrwt>0</asrwt>
<pdfrwt beam="1">  1        1 0.24416353E+00 0.33331777E+04</pdfrwt>
<pdfrwt beam="2">  1       -1 0.26924611E+00 0.33331777E+04</pdfrwt>
<totfact> 0.24621776E-01</totfact>
</mgrwt>
</event>
<event>
 6    1  0.1585031E-006  0.3238870E+04  0.7818608E-02  0.8178626E-01
          2   -1    0    0  501    0  0.00000000000E+00  0.00000000000E+00  0.24337454927E+04  0.24337454927E+04  0.00000000000E+00 0. -1.
         -2   -1    0    0    0  501 -0.00000000000E+00 -0.00000000000E+00 -0.10775858923E+04  0.10775858923E+04  0.00000000000E+00 0.  1.
         23    2    1    2    0    0  0.48735773875E+01 -0.54649434727E+03 -0.97231604946E+03  0.11195791665E+04  0.96846200577E+02 0.  0.
         11    1    3    3    0    0  0.42374684090E+02 -0.28373139591E+03 -0.56023692487E+03  0.62941602368E+03  0.00000000000E+00 0. -1.
        -11    1    3    3    0    0 -0.37501106703E+02 -0.26276295137E+03 -0.41207912459E+03  0.49016314277E+03  0.00000000000E+00 0.  1.
         22    1    1    2    0    0 -0.48735773875E+01  0.54649434727E+03  0.23284756499E+04  0.23917522186E+04  0.00000000000E+00 0. -1.
<mgrwt>
<rscale>  0 0.32388701E+04</rscale>
<asrwt>0</asrwt>
<pdfrwt beam="1">  1        2 0.37442238E+00 0.32388701E+04</pdfrwt>
<pdfrwt beam="2">  1       -2 0.16578245E+00 0.32388701E+04</pdfrwt>
<totfact> 0.72914671E-01</totfact>
</mgrwt>
</event>
<event>
 6    1  0.1585031E-006  0.3100719E+04  0.7818608E-02  0.8215541E-01
         -1   -1    0    0    0  501 -0.00000000000E+00  0.00000000000E+00  0.12319721680E+04  0.12319721680E+04  0.00000000000E+00 0.  1.
          1   -1    0    0  501    0  0.00000000000E+00 -0.00000000000E+00 -0.19510300899E+04  0.19510300899E+04  0.00000000000E+00 0. -1.
         23    2    1    2    0    0  0.62632485468E+03 -0.10878905577E+04 -0.12913806226E+04  0.18033856580E+04  0.93526627435E+02 0.  0.
         13    1    3    3    0    0  0.34007621392E+03 -0.50607570713E+03 -0.65458663328E+03  0.89456587968E+03  0.00000000000E+00 0.  1.
        -13    1    3    3    0    0  0.28624864076E+03 -0.58181485059E+03 -0.63679398928E+03  0.90881977834E+03  0.00000000000E+00 0. -1.
         22    1    1    2    0    0 -0.62632485468E+03  0.10878905577E+04  0.57232270062E+03  0.13796165999E+04  0.00000000000E+00 0.  1.
<mgrwt>
<rscale>  0 0.31007191E+04</rscale>
<asrwt>0</asrwt>
<pdfrwt beam="1">  1        1 0.30015848E+00 0.31007191E+04</pdfrwt>
<pdfrwt beam="2">  1       -1 0.18953418E+00 0.31007191E+04</pdfrwt>
<totfact> 0.48328297E-01</totfact>
</mgrwt>
</event>
<event>
 6    1  0.1585031E-006  0.1629728E+04  0.7818608E-02  0.8802490E-01
         -1   -1    0    0    0  501 -0.00000000000E+00  0.00000000000E+00  0.51637698593E+03  0.51637698593E+03  0.00000000000E+00 0.  1.
          1   -1    0    0  501    0  0.00000000000E+00 -0.00000000000E+00 -0.12858888043E+04  0.12858888043E+04  0.00000000000E+00 0. -1.
         23    2    1    2    0    0 -0.50158621776E+03  0.49611525246E+03  0.58862099451E+02  0.71418379640E+03  0.94205470718E+02 0.  0.
         11    1    3    3    0    0 -0.29614145045E+03  0.23679705281E+03  0.65080219751E+01  0.37922942561E+03  0.00000000000E+00 0. -1.
        -11    1    3    3    0    0 -0.20544476731E+03  0.25931819965E+03  0.52354077476E+02  0.33495437079E+03  0.00000000000E+00 0.  1.
         22    1    1    2    0    0  0.50158621776E+03 -0.49611525246E+03 -0.82837391781E+03  0.10880819938E+04  0.00000000000E+00 0. -1.
<mgrwt>
<rscale>  0 0.16297281E+04</rscale>
<asrwt>0</asrwt>
<pdfrwt beam="1">  1        1 0.19782904E+00 0.16297281E+04</pdfrwt>
<pdfrwt beam="2">  1       -1 0.79442614E-01 0.16297281E+04</pdfrwt>
<totfact> 0.14032524E+01</totfact>
</mgrwt>
</event>
<event>
 6    1  0.1585031E-006  0.3449603E+04  0.7818608E-02  0.8125838E-01
          1   -1    0    0  501    0  0.00000000000E+00  0.00000000000E+00  0.16100587098E+04  0.16100587098E+04  0.00000000000E+00 0. -1.
         -1   -1    0    0    0  501 -0.00000000000E+00 -0.00000000000E+00 -0.18477212112E+04  0.18477212112E+04  0.00000000000E+00 0.  1.
         23    2    1    2    0    0  0.12787293661E+04  0.38773466995E+03  0.97188173463E+03  0.16554247327E+04  0.10193121935E+03 0.  0.
         13    1    3    3    0    0  0.66488152784E+03  0.23099949765E+03  0.45899554328E+03  0.84030061450E+03  0.00000000000E+00 0. -1.
        -13    1    3    3    0    0  0.61384783823E+03  0.15673517230E+03  0.51288619136E+03  0.81512411817E+03  0.00000000000E+00 0.  1.
         22    1    1    2    0    0 -0.12787293661E+04 -0.38773466995E+03 -0.12095442360E+04  0.18023551883E+04  0.00000000000E+00 0.  1.
<mgrwt>
<rscale>  0 0.34496027E+04</rscale>
<asrwt>0</asrwt>
<pdfrwt beam="1">  1        1 0.24770134E+00 0.34496027E+04</pdfrwt>
<pdfrwt beam="2">  1       -1 0.28426480E+00 0.34496027E+04</pdfrwt>
<totfact> 0.18791384E-01</totfact>
</mgrwt>
</event>
<event>
 6    1  0.1585031E-006  0.8222071E+03  0.7818608E-02  0.9528418E-01
         -2   -1    0    0    0  501 -0.00000000000E+00  0.00000000000E+00  0.65800926955E+02  0.65800926955E+02  0.00000000000E+00 0.  1.
          2   -1    0    0  501    0  0.00000000000E+00 -0.00000000000E+00 -0.25684461902E+04  0.25684461902E+04  0.00000000000E+00 0. -1.
         23    2    1    2    0    0  0.34075194341E+03 -0.22163337735E+03 -0.12567760280E+04  0.13237421030E+04  0.87028327088E+02 0.  0.
         13    1    3    3    0    0  0.23435689731E+03 -0.10261372807E+03 -0.79473791033E+03  0.83490183772E+03  0.00000000000E+00 0. -1.
        -13    1    3    3    0    0  0.10639504610E+03 -0.11901964928E+03 -0.46203811767E+03  0.48884026525E+03  0.00000000000E+00 0.  1.
         22    1    1    2    0    0 -0.34075194341E+03  0.22163337735E+03 -0.12458692353E+04  0.13105050142E+04  0.00000000000E+00 0.  1.
<mgrwt>
<rscale>  0 0.82220713E+03</rscale>
<asrwt>0</asrwt>
<pdfrwt beam="1">  1        2 0.39514559E+00 0.82220713E+03</pdfrwt>
<pdfrwt beam="2">  1       -2 0.10123219E-01 0.82220713E+03</pdfrwt>
<totfact> 0.22069540E+02</totfact>
</mgrwt>
</event>
<event>
 6    1  0.1585031E-006  0.1979349E+04  0.7818608E-02  0.8616337E-01
          1   -1    0    0  501    0  0.00000000000E+00  0.00000000000E+00  0.78146333002E+03  0.78146333002E+03  0.00000000000E+00 0. -1.
         -1   -1    0    0    0  501 -0.00000000000E+00 -0.00000000000E+00 -0.12533610395E+04  0.12533610395E+04  0.00000000000E+00 0.  1.
         23    2    1    2    0    0 -0.45502572788E+03 -0.76938569638E+03 -0.66614530871E+03  0.11200922270E+04  0.10887727860E+03 0.  0.
         13    1    3    3    0    0 -0.10763729921E+03 -0.25749712011E+03 -0.24839101666E+03  0.37361564770E+03  0.00000000000E+00 0.  1.
        -13    1    3    3    0    0 -0.34738842868E+03 -0.51188857627E+03 -0.41775429205E+03  0.74647657929E+03  0.00000000000E+00 0. -1.
         22    1    1    2    0    0  0.45502572788E+03  0.76938569638E+03  0.19424759921E+03  0.91473214256E+03  0.00000000000E+00 0. -1.
<mgrwt>
<rscale>  0 0.19793491E+04</rscale>
<asrwt>0</asrwt>
<pdfrwt beam="1">  1        1 0.12022513E+00 0.19793491E+04</pdfrwt>
<pdfrwt beam="2">  1       -1 0.19282477E+00 0.19793491E+04</pdfrwt>
<totfact> 0.36009326E+00</totfact>
</mgrwt>
</event>
<event>
 6    1  0.1585031E-006  0.3733315E+04  0.7818608E-02  0.8060619E-01
          2   -1    0    0  501    0  0.00000000000E+00  0.00000000000E+00  0.11053514595E+04  0.11053514595E+04  0.00000000000E+00 0. -1.
         -2   -1    0    0    0  501 -0.00000000000E+00 -0.00000000000E+00 -0.31523101750E+04  0.31523101750E+04  0.00000000000E+00 0.  1.
         23    2    1    2    0    0  0.79505085449E+03 -0.11051546304E+04 -0.24786929926E+04  0.28294224722E+04  0.90774206782E+02 0.  0.
         11    1    3    3    0    0  0.67553749497E+03 -0.98556894761E+03 -0.21963556003E+04  0.25003349737E+04  0.00000000000E+00 0. -1.
        -11    1    3    3    0    0  0.11951335952E+03 -0.11958568283E+03 -0.28233739225E+03  0.32908749855E+03  0.00000000000E+00 0.  1.
         22    1    1    2    0    0 -0.79505085449E+03  0.11051546304E+04  0.43173427706E+03  0.14282391622E+04  0.00000000000E+00 0. -1.
<mgrwt>
<rscale>  0 0.37333152E+04</rscale>
<asrwt>0</asrwt>
<pdfrwt beam="1">  1        2 0.17005407E+00 0.37333152E+04</pdfrwt>
<pdfrwt beam="2">  1       -2 0.48497079E+00 0.37333152E+04</pdfrwt>
<totfact> 0.35754792E-02</totfact>
</mgrwt>
</event>
<event>
 6    1  0.1585031E-006  0.1894238E+04  0.7818608E-02  0.8657730E-01
         -1   -1    0    0    0  501 -0.00000000000E+00  0.00000000000E+00  0.84520469292E+03  0.84520469292E+03  0.00000000000E+00 0.  1.
          1   -1    0    0  501    0  0.00000000000E+00 -0.00000000000E+00 -0.10613216322E+04  0.10613216322E+04  0.00000000000E+00 0. -1.
         23    2    1    2    0    0  0.91784419379E+03  0.40940481943E+02  0.11379932747E+03  0.93033022279E+03  0.91923606140E+02 0.  0.
         13    1    3    3    0    0  0.28766087284E+03  0.18093452265E+02 -0.67755153378E+01  0.28830896341E+03  0.00000000000E+00 0. -1.
        -13    1    3    3    0    0  0.63018332096E+03  0.22847029678E+02  0.12057484281E+03  0.64202125938E+03  0.00000000000E+00 0.  1.
         22    1    1    2    0    0 -0.91784419379E+03 -0.40940481943E+02 -0.32991626676E+03  0.97619610234E+03  0.00000000000E+00 0. -1.
<mgrwt>
<rscale>  0 0.18942376E+04</rscale>
<asrwt>0</asrwt>
<pdfrwt beam="1">  1        1 0.16328025E+00 0.18942376E+04</pdfrwt>
<pdfrwt beam="2">  1       -1 0.13003149E+00 0.18942376E+04</pdfrwt>
<totfact> 0.64368233E+00</totfact>
</mgrwt>
</event>
<event>
 6    1  0.1585031E-006  0.2862167E+04  0.7818608E-02  0.8284224E-01
          2   -1    0    0  501    0  0.00000000000E+00  0.00000000000E+00  0.34319232054E+04  0.34319232054E+04  0.00000000000E+00 0.  1.
         -2   -1    0    0    0  501 -0.00000000000E+00 -0.00000000000E+00 -0.59674976826E+03  0.59674976826E+03  0.00000000000E+00 0. -1.
         23    2    1    2    0    0  0.38851712936E+02 -0.55373187615E+03 -0.43516647828E+03  0.71155802108E+03  0.93896258081E+02 0.  0.
         13    1    3    3    0    0  0.52799189996E+02 -0.20657255284E+03 -0.13454647560E+03  0.25211649717E+03  0.00000000000E+00 0.  1.
        -13    1    3    3    0    0 -0.13947477059E+02 -0.34715932331E+03 -0.30062000268E+03  0.45944152390E+03  0.00000000000E+00 0. -1.
         22    1    1    2    0    0 -0.38851712936E+02  0.55373187615E+03  0.32703399154E+04  0.33171149526E+04  0.00000000000E+00 0.  1.
<mgrwt>
<rscale>  0 0.28621666E+04</rscale>
<asrwt>0</asrwt>
<pdfrwt beam="1">  1        2 0.52798818E+00 0.28621666E+04</pdfrwt>
<pdfrwt beam="2">  1       -2 0.91807658E-01 0.28621666E+04</pdfrwt>
<totfact> 0.79173431E-01</totfact>
</mgrwt>
</event>
<event>
 6    1  0.1585031E-006  0.1688284E+04  0.7818608E-02  0.8768075E-01
          1   -1    0    0  501    0  0.00000000000E+00  0.00000000000E+00  0.65323303595E+03  0.65323303595E+03  0.00000000000E+00 0.  1.
         -1   -1    0    0    0  501 -0.00000000000E+00 -0.00000000000E+00 -0.10908444289E+04  0.10908444289E+04  0.00000000000E+00 0. -1.
         23    2    1    2    0    0  0.47044588254E+03  0.47613143845E+03 -0.74739411373E+03  0.10065235284E+04  0.80443626273E+02 0.  0.
         13    1    3    3    0    0  0.11680726883E+03  0.10803829138E+03 -0.13015817586E+03  0.20556595341E+03  0.00000000000E+00 0. -1.
        -13    1    3    3    0    0  0.35363861370E+03  0.36809314707E+03 -0.61723593787E+03  0.80095757504E+03  0.00000000000E+00 0.  1.
         22    1    1    2    0    0 -0.47044588254E+03 -0.47613143845E+03  0.30978272075E+03  0.73755393643E+03  0.00000000000E+00 0.  1.
<mgrwt>
<rscale>  0 0.16882839E+04</rscale>
<asrwt>0</asrwt>
<pdfrwt beam="1">  1        1 0.10049739E+00 0.16882839E+04</pdfrwt>
<pdfrwt beam="2">  1       -1 0.16782222E+00 0.16882839E+04</pdfrwt>
<totfact> 0.73530247E+00</totfact>
</mgrwt>
</event>
<event>
 6    1  0.1585031E-006  0.1301136E+04  0.7818608E-02  0.9028665E-01
          1   -1    0    0  501    0  0.00000000000E+00  0.00000000000E+00  0.46125767746E+03  0.46125767746E+03  0.00000000000E+00 0. -1.
         -1   -1    0    0    0  501 -0.00000000000E+00 -0.00000000000E+00 -0.91757487971E+03  0.91757487971E+03  0.00000000000E+00 0.  1.
         23    2    1    2    0    0 -0.12447759501E+03 -0.37700048989E+03  0.31280579409E+03  0.51328404637E+03  0.89381241910E+02 0.  0.
         13    1    3    3    0    0 -0.45255020196E+02 -0.23831310753E+03  0.14994743240E+03  0.28517606238E+03  0.00000000000E+00 0.  1.
        -13    1    3    3    0    0 -0.79222574814E+02 -0.13868738236E+03  0.16285836169E+03  0.22810798399E+03  0.00000000000E+00 0. -1.
         22    1    1    2    0    0  0.12447759501E+03  0.37700048989E+03 -0.76912299634E+03  0.86554851079E+03  0.00000000000E+00 0.  1.
<mgrwt>
<rscale>  0 0.13011356E+04</rscale>
<asrwt>0</asrwt>
<pdfrwt beam="1">  1        1 0.70962720E-01 0.13011356E+04</pdfrwt>
<pdfrwt beam="2">  1       -1 0.14116537E+00 0.13011356E+04</pdfrwt>
<totfact> 0.19953535E+01</totfact>
</mgrwt>
</event>
<event>
 6    1  0.1585031E-006  0.4486348E+04  0.7818608E-02  0.7913031E-01
         -2   -1    0    0    0  501 -0.00000000000E+00  0.00000000000E+00  0.11684946955E+04  0.11684946955E+04  0.00000000000E+00 0.  1.
          2   -1    0    0  501    0  0.00000000000E+00 -0.00000000000E+00 -0.43062496068E+04  0.43062496068E+04  0.00000000000E+00 0. -1.
         23    2    1    2    0    0 -0.15343387478E+04  0.86277540830E+03  0.12672255593E+03  0.17659183517E+04  0.61904930541E+02 0.  0.
         13    1    3    3    0    0 -0.66443072141E+03  0.40213000768E+03  0.37760804516E+02  0.77756196215E+03  0.00000000000E+00 0.  1.
        -13    1    3    3    0    0 -0.86990802636E+03  0.46064540063E+03  0.88961751419E+02  0.98835638950E+03  0.00000000000E+00 0. -1.
         22    1    1    2    0    0  0.15343387478E+04 -0.86277540830E+03 -0.32644774672E+04  0.37088259506E+04  0.00000000000E+00 0. -1.
<mgrwt>
<rscale>  0 0.44863481E+04</rscale>
<asrwt>0</asrwt>
<pdfrwt beam="1">  1        2 0.66249994E+00 0.44863481E+04</pdfrwt>
<pdfrwt beam="2">  1       -2 0.17976841E+00 0.44863481E+04</pdfrwt>
<totfact> 0.25677607E-02</totfact>
</mgrwt>
</event>
<event>
 6    1  0.1585031E-006  0.2829608E+04  0.7818608E-02  0.8294135E-01
         -2   -1    0    0    0  501 -0.00000000000E+00  0.00000000000E+00  0.81322454275E+03  0.81322454275E+03  0.00000000000E+00 0.  1.
          2   -1    0    0  501    0  0.00000000000E+00 -0.00000000000E+00 -0.24613986334E+04  0.24613986334E+04  0.00000000000E+00 0. -1.
         23    2    1    2    0    0 -0.10221303232E+04  0.97100982858E+03 -0.70963724601E+03  0.15809697601E+04  0.90938862881E+02 0.  0.
         13    1    3    3    0    0 -0.78286147494E+03  0.71562180491E+03 -0.49543878801E+03  0.11706606038E+04  0.00000000000E+00 0.  1.
        -13    1    3    3    0    0 -0.23926884825E+03  0.25538802367E+03 -0.21419845799E+03  0.41030915635E+03  0.00000000000E+00 0. -1.
         22    1    1    2    0    0  0.10221303232E+04 -0.97100982858E+03 -0.93853684463E+03  0.16936534160E+04  0.00000000000E+00 0. -1.
<mgrwt>
<rscale>  0 0.28296076E+04</rscale>
<asrwt>0</asrwt>
<pdfrwt beam="1">  1        2 0.37867672E+00 0.28296076E+04</pdfrwt>
<pdfrwt beam="2">  1       -2 0.12511147E+00 0.28296076E+04</pdfrwt>
<totfact> 0.15216523E+00</totfact>
</mgrwt>
</event>
<event>
 6    1  0.1585031E-006  0.3621800E+04  0.7818608E-02  0.8085516E-01
         -2   -1    0    0    0  501 -0.00000000000E+00  0.00000000000E+00  0.17162969619E+04  0.17162969619E+04  0.00000000000E+00 0.  1.
          2   -1    0    0  501    0  0.00000000000E+00 -0.00000000000E+00 -0.19107170985E+04  0.19107170985E+04  0.00000000000E+00 0. -1.
         23    2    1    2    0    0 -0.13721439050E+04 -0.40441097036E+02 -0.12782666436E+04  0.18779750016E+04  0.91706686253E+02 0.  0.
         13    1    3    3    0    0 -0.95376102746E+03 -0.51646807780E+02 -0.84019513171E+03  0.12721066581E+04  0.00000000000E+00 0. -1.
        -13    1    3    3    0    0 -0.41838287754E+03  0.11205710744E+02 -0.43807151184E+03  0.60586834350E+03  0.00000000000E+00 0.  1.
         22    1    1    2    0    0  0.13721439050E+04  0.40441097036E+02  0.10838465070E+04  0.17490390588E+04  0.00000000000E+00 0.  1.
<mgrwt>
<rscale>  0 0.36217995E+04</rscale>
<asrwt>0</asrwt>
<pdfrwt beam="1">  1        2 0.29395648E+00 0.36217995E+04</pdfrwt>
<pdfrwt beam="2">  1       -2 0.26404568E+00 0.36217995E+04</pdfrwt>
<totfact> 0.32117981E-01</totfact>
</mgrwt>
</event>
<event>
 6    1  0.1585031E-006  0.2604963E+04  0.7818608E-02  0.8366517E-01
          1   -1    0    0  501    0  0.00000000000E+00  0.00000000000E+00  0.24684274280E+04  0.24684274280E+04  0.00000000000E+00 0. -1.
         -1   -1    0    0    0  501 -0.00000000000E+00 -0.00000000000E+00 -0.68726259966E+03  0.68726259966E+03  0.00000000000E+00 0.  1.
         23    2    1    2    0    0  0.86613350599E+03 -0.23784706152E+03 -0.24890868594E+03  0.93578981633E+03  0.83597676562E+02 0.  0.
         13    1    3    3    0    0  0.20579355516E+03 -0.34853205218E+02 -0.28595379013E+02  0.21067375005E+03  0.00000000000E+00 0.  1.
        -13    1    3    3    0    0  0.66033995083E+03 -0.20299385630E+03 -0.22031330693E+03  0.72511606627E+03  0.00000000000E+00 0. -1.
         22    1    1    2    0    0 -0.86613350599E+03  0.23784706152E+03  0.20300735142E+04  0.22199002113E+04  0.00000000000E+00 0. -1.
<mgrwt>
<rscale>  0 0.26049628E+04</rscale>
<asrwt>0</asrwt>
<pdfrwt beam="1">  1        1 0.37975806E+00 0.26049628E+04</pdfrwt>
<pdfrwt beam="2">  1       -1 0.10573271E+00 0.26049628E+04</pdfrwt>
<totfact> 0.10502783E+00</totfact>
</mgrwt>
</event>
<event>
 6    1  0.1585031E-006  0.3088150E+04  0.7818608E-02  0.8218998E-01
         -2   -1    0    0    0  501 -0.00000000000E+00  0.00000000000E+00  0.17909493403E+04  0.17909493403E+04  0.00000000000E+00 0.  1.
          2   -1    0    0  501    0  0.00000000000E+00 -0.00000000000E+00 -0.13312313299E+04  0.13312313299E+04  0.00000000000E+00 0. -1.
         23    2    1    2    0    0 -0.12685384670E+04 -0.53107422904E+03 -0.47669875919E+03  0.14584180533E+04  0.92259591199E+02 0.  0.
         11    1    3    3    0    0 -0.58710476418E+03 -0.22574515194E+03 -0.17351085280E+03  0.65250202589E+03  0.00000000000E+00 0.  1.
        -11    1    3    3    0    0 -0.68143370286E+03 -0.30532907710E+03 -0.30318790639E+03  0.80591602744E+03  0.00000000000E+00 0. -1.
         22    1    1    2    0    0  0.12685384670E+04  0.53107422904E+03  0.93641676960E+03  0.16637626169E+04  0.00000000000E+00 0.  1.
<mgrwt>
<rscale>  0 0.30881502E+04</rscale>
<asrwt>0</asrwt>
<pdfrwt beam="1">  1        2 0.20480482E+00 0.30881502E+04</pdfrwt>
<pdfrwt beam="2">  1       -2 0.27553067E+00 0.30881502E+04</pdfrwt>
<totfact> 0.60413938E-01</totfact>
</mgrwt>
</event>
<event>
 6    1  0.1585031E-006  0.2778961E+04  0.7818608E-02  0.8309830E-01
          2   -1    0    0  501    0  0.00000000000E+00  0.00000000000E+00  0.30645240446E+04  0.30645240446E+04  0.00000000000E+00 0. -1.
         -2   -1    0    0    0  501 -0.00000000000E+00 -0.00000000000E+00 -0.63000204554E+03  0.63000204554E+03  0.00000000000E+00 0.  1.
         23    2    1    2    0    0 -0.12539915470E+03 -0.13658984942E+04  0.15013431557E+04  0.20355425465E+04  0.89434574082E+02 0.  0.
         13    1    3    3    0    0 -0.20388953848E+02 -0.10006478743E+03  0.14451801952E+03  0.17695798678E+03  0.00000000000E+00 0. -1.
        -13    1    3    3    0    0 -0.10501020085E+03 -0.12658337067E+04  0.13568251362E+04  0.18585845597E+04  0.00000000000E+00 0.  1.
         22    1    1    2    0    0  0.12539915470E+03  0.13658984942E+04  0.93317884334E+03  0.16589835436E+04  0.00000000000E+00 0.  1.
<mgrwt>
<rscale>  0 0.27789613E+04</rscale>
<asrwt>0</asrwt>
<pdfrwt beam="1">  1        2 0.47146523E+00 0.27789613E+04</pdfrwt>
<pdfrwt beam="2">  1       -2 0.96923393E-01 0.27789613E+04</pdfrwt>
<totfact> 0.12282758E+00</totfact>
</mgrwt>
</event>
<event>
 6    1  0.1585031E-006  0.2115804E+04  0.7818608E-02  0.8554313E-01
          1   -1    0    0  501    0  0.00000000000E+00  0.00000000000E+00  0.33102464997E+04  0.33102464997E+04  0.00000000000E+00 0. -1.
         -1   -1    0    0    0  501 -0.00000000000E+00 -0.00000000000E+00 -0.33808869854E+03  0.33808869854E+03  0.00000000000E+00 0.  1.
         23    2    1    2    0    0 -0.51181202541E+03 -0.65940549721E+03  0.37379147393E+03  0.91918244883E+03  0.91701413100E+02 0.  0.
         13    1    3    3    0    0 -0.15283446134E+03 -0.26894832557E+03  0.13558383885E+03  0.33774924390E+03  0.00000000000E+00 0.  1.
        -13    1    3    3    0    0 -0.35897756406E+03 -0.39045717163E+03  0.23820763509E+03  0.58143320493E+03  0.00000000000E+00 0. -1.
         22    1    1    2    0    0  0.51181202541E+03  0.65940549721E+03  0.25983663272E+04  0.27291527494E+04  0.00000000000E+00 0. -1.
<mgrwt>
<rscale>  0 0.21158043E+04</rscale>
<asrwt>0</asrwt>
<pdfrwt beam="1">  1        1 0.50926867E+00 0.21158043E+04</pdfrwt>
<pdfrwt beam="2">  1       -1 0.52013648E-01 0.21158043E+04</pdfrwt>
<totfact> 0.12018802E+00</totfact>
</mgrwt>
</event>
<event>
 6    1  0.1585031E-006  0.8479919E+03  0.7818608E-02  0.9493036E-01
          2   -1    0    0  501    0  0.00000000000E+00  0.00000000000E+00  0.12523951488E+04  0.12523951488E+04  0.00000000000E+00 0. -1.
         -2   -1    0    0    0  501 -0.00000000000E+00 -0.00000000000E+00 -0.14354299616E+03  0.14354299616E+03  0.00000000000E+00 0.  1.
         23    2    1    2    0    0 -0.15099263309E+03 -0.38125650363E+03  0.70112225256E+03  0.81766574527E+03  0.94072106112E+02 0.  0.
         13    1    3    3    0    0 -0.15937983043E+02 -0.15340628848E+03  0.29329570477E+03  0.33137573702E+03  0.00000000000E+00 0. -1.
        -13    1    3    3    0    0 -0.13505465005E+03 -0.22785021516E+03  0.40782654779E+03  0.48629000825E+03  0.00000000000E+00 0.  1.
         22    1    1    2    0    0  0.15099263309E+03  0.38125650363E+03  0.40772990007E+03  0.57827239967E+03  0.00000000000E+00 0.  1.
<mgrwt>
<rscale>  0 0.84799187E+03</rscale>
<asrwt>0</asrwt>
<pdfrwt beam="1">  1        2 0.19267617E+00 0.84799187E+03</pdfrwt>
<pdfrwt beam="2">  1       -2 0.22083539E-01 0.84799187E+03</pdfrwt>
<totfact> 0.31716689E+02</totfact>
</mgrwt>
</event>
<event>
 6    1  0.1585031E-006  0.1612683E+04  0.7818608E-02  0.8812794E-01
          2   -1    0    0  501    0  0.00000000000E+00  0.00000000000E+00  0.10975466665E+04  0.10975466665E+04  0.00000000000E+00 0. -1.
         -2   -1    0    0    0  501 -0.00000000000E+00 -0.00000000000E+00 -0.59239994363E+03  0.59239994363E+03  0.00000000000E+00 0.  1.
         23    2    1    2    0    0  0.91299480782E+02  0.56902278957E+03 -0.33366055627E+03  0.67224322417E+03  0.91973123213E+02 0.  0.
         11    1    3    3    0    0  0.91146778553E+02  0.29078396943E+03 -0.15891764327E+03  0.34368280356E+03  0.00000000000E+00 0. -1.
        -11    1    3    3    0    0  0.15270222878E+00  0.27823882014E+03 -0.17474291301E+03  0.32856042061E+03  0.00000000000E+00 0.  1.
         22    1    1    2    0    0 -0.91299480782E+02 -0.56902278957E+03  0.83880727916E+03  0.10177033860E+04  0.00000000000E+00 0. -1.
<mgrwt>
<rscale>  0 0.16126830E+04</rscale>
<asrwt>0</asrwt>
<pdfrwt beam="1">  1        2 0.16885333E+00 0.16126830E+04</pdfrwt>
<pdfrwt beam="2">  1       -2 0.91138453E-01 0.16126830E+04</pdfrwt>
<totfact> 0.21503982E+01</totfact>
</mgrwt>
</event>
<event>
 6    1  0.1585031E-006  0.3925751E+04  0.7818608E-02  0.8019695E-01
         -1   -1    0    0    0  501 -0.00000000000E+00  0.00000000000E+00  0.14432564689E+04  0.14432564689E+04  0.00000000000E+00 0.  1.
          1   -1    0    0  501    0  0.00000000000E+00 -0.00000000000E+00 -0.26695747697E+04  0.26695747697E+04  0.00000000000E+00 0. -1.
         23    2    1    2    0    0  0.16514718882E+04 -0.21547573189E+03  0.47257203899E+03  0.17337520943E+04  0.93716614061E+02 0.  0.
         11    1    3    3    0    0  0.30799441434E+03 -0.77233965166E+02  0.88756993385E+02  0.32970206022E+03  0.00000000000E+00 0.  1.
        -11    1    3    3    0    0  0.13434774739E+04 -0.13824176673E+03  0.38381504560E+03  0.14040500340E+04  0.00000000000E+00 0. -1.
         22    1    1    2    0    0 -0.16514718882E+04  0.21547573189E+03 -0.16988903398E+04  0.23790791444E+04  0.00000000000E+00 0.  1.
<mgrwt>
<rscale>  0 0.39257514E+04</rscale>
<asrwt>0</asrwt>
<pdfrwt beam="1">  1        1 0.41070381E+00 0.39257514E+04</pdfrwt>
<pdfrwt beam="2">  1       -1 0.22203946E+00 0.39257514E+04</pdfrwt>
<totfact> 0.86571663E-02</totfact>
</mgrwt>
</event>
<event>
 6    1  0.1755680E-006  0.2080756E+04  0.7818608E-02  0.8569768E-01
         -2   -1    0    0    0  501 -0.00000000000E+00  0.00000000000E+00  0.91100725941E+03  0.91100725941E+03  0.00000000000E+00 0.  1.
          2   -1    0    0  501    0  0.00000000000E+00 -0.00000000000E+00 -0.11881204846E+04  0.11881204846E+04  0.00000000000E+00 0. -1.
         23    2    1    2    0    0  0.93793688591E+03  0.44475123354E+03 -0.97848499246E+02  0.10457213155E+04  0.80184032793E+02 0.  0.
         13    1    3    3    0    0  0.25179110342E+03  0.88210564040E+02 -0.42829026583E+01  0.26682992078E+03  0.00000000000E+00 0. -1.
        -13    1    3    3    0    0  0.68614578250E+03  0.35654066950E+03 -0.93565596588E+02  0.77889139468E+03  0.00000000000E+00 0.  1.
         22    1    1    2    0    0 -0.93793688591E+03 -0.44475123354E+03 -0.17926472592E+03  0.10534064285E+04  0.00000000000E+00 0.  1.
<mgrwt>
<rscale>  0 0.20807560E+04</rscale>
<asrwt>0</asrwt>
<pdfrwt beam="1">  1        2 0.18278777E+00 0.20807560E+04</pdfrwt>
<pdfrwt beam="2">  1       -2 0.14015496E+00 0.20807560E+04</pdfrwt>
<totfact> 0.63650900E+00</totfact>
</mgrwt>
</event>
<event>
 6    1  0.1585031E-006  0.5995341E+04  0.7818608E-02  0.7690980E-01
         -1   -1    0    0    0  501 -0.00000000000E+00  0.00000000000E+00  0.33590833861E+04  0.33590833861E+04  0.00000000000E+00 0.  1.
          1   -1    0    0  501    0  0.00000000000E+00 -0.00000000000E+00 -0.26751430894E+04  0.26751430894E+04  0.00000000000E+00 0. -1.
         23    2    1    2    0    0  0.21550167146E+04 -0.10565647563E+04  0.21489114343E+04  0.32223647153E+04  0.73402190982E+02 0.  0.
         11    1    3    3    0    0  0.16497269527E+04 -0.83863238205E+03  0.16356556491E+04  0.24698730116E+04  0.00000000000E+00 0. -1.
        -11    1    3    3    0    0  0.50528976190E+03 -0.21793237423E+03  0.51325578516E+03  0.75249170375E+03  0.00000000000E+00 0.  1.
         22    1    1    2    0    0 -0.21550167146E+04  0.10565647563E+04 -0.14649711377E+04  0.28118617602E+04  0.00000000000E+00 0. -1.
<mgrwt>
<rscale>  0 0.59953411E+04</rscale>
<asrwt>0</asrwt>
<pdfrwt beam="1">  1        1 0.41156048E+00 0.59953411E+04</pdfrwt>
<pdfrwt beam="2">  1       -1 0.51678206E+00 0.59953411E+04</pdfrwt>
<totfact> 0.80720070E-04</totfact>
</mgrwt>
</event>
<event>
 6    1  0.1585031E-006  0.9550226E+03  0.7818608E-02  0.9359299E-01
         -1   -1    0    0    0  501 -0.00000000000E+00  0.00000000000E+00  0.51839100815E+03  0.51839100815E+03  0.00000000000E+00 0.  1.
          1   -1    0    0  501    0  0.00000000000E+00 -0.00000000000E+00 -0.43985530537E+03  0.43985530537E+03  0.00000000000E+00 0. -1.
         23    2    1    2    0    0  0.24629313163E+03 -0.40086210493E+03 -0.10073352096E+02  0.47949554489E+03  0.91998756983E+02 0.  0.
         13    1    3    3    0    0  0.13926863988E+02 -0.90003896844E+02 -0.74584935079E+01  0.91379910884E+02  0.00000000000E+00 0. -1.
        -13    1    3    3    0    0  0.23236626764E+03 -0.31085820809E+03 -0.26148585885E+01  0.38811563400E+03  0.00000000000E+00 0.  1.
         22    1    1    2    0    0 -0.24629313163E+03  0.40086210493E+03  0.88609054875E+02  0.47875076863E+03  0.00000000000E+00 0.  1.
<mgrwt>
<rscale>  0 0.95502259E+03</rscale>
<asrwt>0</asrwt>
<pdfrwt beam="1">  1        1 0.67670047E-01 0.95502259E+03</pdfrwt>
<pdfrwt beam="2">  1       -1 0.79752462E-01 0.95502259E+03</pdfrwt>
<totfact> 0.83400422E+01</totfact>
</mgrwt>
</event>
<event>
 6    1  0.1585031E-006  0.1695099E+04  0.7818608E-02  0.8764164E-01
         -2   -1    0    0    0  501 -0.00000000000E+00  0.00000000000E+00  0.28476616656E+03  0.28476616656E+03  0.00000000000E+00 0. -1.
          2   -1    0    0  501    0  0.00000000000E+00 -0.00000000000E+00 -0.25225624372E+04  0.25225624372E+04  0.00000000000E+00 0.  1.
         23    2    1    2    0    0 -0.44352371067E+03 -0.49043332236E+03 -0.25072965377E+03  0.71312902743E+03  0.91921297171E+02 0.  0.
         13    1    3    3    0    0 -0.33196933057E+03 -0.40706579837E+03 -0.22536905271E+03  0.57157450132E+03  0.00000000000E+00 0.  1.
        -13    1    3    3    0    0 -0.11155438009E+03 -0.83367523996E+02 -0.25360601058E+02  0.14155452610E+03  0.00000000000E+00 0. -1.
         22    1    1    2    0    0  0.44352371067E+03  0.49043332236E+03 -0.19870666169E+04  0.20941995764E+04  0.00000000000E+00 0.  1.
<mgrwt>
<rscale>  0 0.16950993E+04</rscale>
<asrwt>0</asrwt>
<pdfrwt beam="1">  1        2 0.38808652E+00 0.16950993E+04</pdfrwt>
<pdfrwt beam="2">  1       -2 0.43810181E-01 0.16950993E+04</pdfrwt>
<totfact> 0.15913620E+01</totfact>
</mgrwt>
</event>
<event>
 6    1  0.1585031E-006  0.2802875E+04  0.7818608E-02  0.8302376E-01
          2   -1    0    0  501    0  0.00000000000E+00  0.00000000000E+00  0.27209106655E+04  0.27209106655E+04  0.00000000000E+00 0. -1.
         -2   -1    0    0    0  501 -0.00000000000E+00 -0.00000000000E+00 -0.72182685008E+03  0.72182685008E+03  0.00000000000E+00 0.  1.
         23    2    1    2    0    0 -0.48296927966E+03 -0.97840096188E+03 -0.76568611447E+02  0.10977725341E+04  0.93348899255E+02 0.  0.
         11    1    3    3    0    0 -0.41386433760E+03 -0.75267149750E+03 -0.54713805497E+02  0.86069255463E+03  0.00000000000E+00 0. -1.
        -11    1    3    3    0    0 -0.69104942058E+02 -0.22572946438E+03 -0.21854805950E+02  0.23707997944E+03  0.00000000000E+00 0.  1.
         22    1    1    2    0    0  0.48296927966E+03  0.97840096188E+03  0.20756524269E+04  0.23449649815E+04  0.00000000000E+00 0. -1.
<mgrwt>
<rscale>  0 0.28028745E+04</rscale>
<asrwt>0</asrwt>
<pdfrwt beam="1">  1        2 0.41860164E+00 0.28028745E+04</pdfrwt>
<pdfrwt beam="2">  1       -2 0.11105029E+00 0.28028745E+04</pdfrwt>
<totfact> 0.14406898E+00</totfact>
</mgrwt>
</event>
<event>
 6    1  0.1585031E-006  0.2919111E+04  0.7818608E-02  0.8267214E-01
          2   -1    0    0  501    0  0.00000000000E+00  0.00000000000E+00  0.61551869441E+03  0.61551869441E+03  0.00000000000E+00 0. -1.
         -2   -1    0    0    0  501 -0.00000000000E+00 -0.00000000000E+00 -0.34609880797E+04  0.34609880797E+04  0.00000000000E+00 0.  1.
         23    2    1    2    0    0  0.12170474082E+03  0.25734263773E+03 -0.34212271144E+04  0.34342184901E+04  0.89578971829E+02 0.  0.
         13    1    3    3    0    0  0.73692087388E+02  0.22630413236E+03 -0.29371583111E+04  0.29467852024E+04  0.00000000000E+00 0. -1.
        -13    1    3    3    0    0  0.48012653429E+02  0.31038505369E+02 -0.48406880326E+03  0.48743328774E+03  0.00000000000E+00 0.  1.
         22    1    1    2    0    0 -0.12170474082E+03 -0.25734263773E+03  0.57575772913E+03  0.64228828401E+03  0.00000000000E+00 0. -1.
<mgrwt>
<rscale>  0 0.29191114E+04</rscale>
<asrwt>0</asrwt>
<pdfrwt beam="1">  1        2 0.94695182E-01 0.29191114E+04</pdfrwt>
<pdfrwt beam="2">  1       -2 0.53245971E+00 0.29191114E+04</pdfrwt>
<totfact> 0.43653873E-02</totfact>
</mgrwt>
</event>
<event>
 6    1  0.1585031E-006  0.1143668E+04  0.7818608E-02  0.9163645E-01
          2   -1    0    0  501    0  0.00000000000E+00  0.00000000000E+00  0.77816103766E+03  0.77816103766E+03  0.00000000000E+00 0. -1.
         -2   -1    0    0    0  501 -0.00000000000E+00 -0.00000000000E+00 -0.42021425928E+03  0.42021425928E+03  0.00000000000E+00 0.  1.
         23    2    1    2    0    0 -0.50094720031E+03  0.12369218361E+03 -0.69326512535E+02  0.52844222646E+03  0.90538210607E+02 0.  0.
         11    1    3    3    0    0 -0.25732144308E+03  0.84758425402E+02  0.43596446340E+01  0.27095631059E+03  0.00000000000E+00 0.  1.
        -11    1    3    3    0    0 -0.24362575723E+03  0.38933758204E+02 -0.73686157169E+02  0.25748591587E+03  0.00000000000E+00 0. -1.
         22    1    1    2    0    0  0.50094720031E+03 -0.12369218361E+03  0.42727329091E+03  0.66993307047E+03  0.00000000000E+00 0. -1.
<mgrwt>
<rscale>  0 0.11436684E+04</rscale>
<asrwt>0</asrwt>
<pdfrwt beam="1">  1        2 0.11971708E+00 0.11436684E+04</pdfrwt>
<pdfrwt beam="2">  1       -2 0.64648347E-01 0.11436684E+04</pdfrwt>
<totfact> 0.78192687E+01</totfact>
</mgrwt>
</event>
<event>
 6    1  0.1585031E-006  0.9832320E+03  0.7818608E-02  0.9327129E-01
         -2   -1    0    0    0  501 -0.00000000000E+00  0.00000000000E+00  0.23975380395E+03  0.23975380395E+03  0.00000000000E+00 0.  1.
          2   -1    0    0  501    0  0.00000000000E+00 -0.00000000000E+00 -0.10080602896E+04  0.10080602896E+04  0.00000000000E+00 0. -1.
         23    2    1    2    0    0 -0.22876940263E+03  0.17708957389E+03 -0.88634361905E+03  0.93535782198E+03  0.74786946399E+02 0.  0.
         13    1    3    3    0    0 -0.19679526859E+03  0.11348380141E+03 -0.69607426822E+03  0.73220648577E+03  0.00000000000E+00 0. -1.
        -13    1    3    3    0    0 -0.31974134034E+02  0.63605772476E+02 -0.19026935083E+03  0.20315133621E+03  0.00000000000E+00 0.  1.
         22    1    1    2    0    0  0.22876940263E+03 -0.17708957389E+03  0.11803713343E+03  0.31245627154E+03  0.00000000000E+00 0.  1.
<mgrwt>
<rscale>  0 0.98323200E+03</rscale>
<asrwt>0</asrwt>
<pdfrwt beam="1">  1        2 0.15508620E+00 0.98323200E+03</pdfrwt>
<pdfrwt beam="2">  1       -2 0.36885200E-01 0.98323200E+03</pdfrwt>
<totfact> 0.17203705E+02</totfact>
</mgrwt>
</event>
<event>
 6    1  0.1872253E-006  0.2533145E+04  0.7818608E-02  0.8391272E-01
          1   -1    0    0  501    0  0.00000000000E+00  0.00000000000E+00  0.17383744248E+04  0.17383744248E+04  0.00000000000E+00 0. -1.
         -1   -1    0    0    0  501 -0.00000000000E+00 -0.00000000000E+00 -0.92281957283E+03  0.92281957283E+03  0.00000000000E+00 0.  1.
         23    2    1    2    0    0 -0.20845295892E+03  0.30813089883E+03 -0.86177290680E+03  0.94310619509E+03  0.91648597516E+02 0.  0.
         13    1    3    3    0    0 -0.52213753815E+02  0.10907511196E+03 -0.38207916593E+03  0.40075946049E+03  0.00000000000E+00 0. -1.
        -13    1    3    3    0    0 -0.15623920510E+03  0.19905578688E+03 -0.47969374087E+03  0.54234673460E+03  0.00000000000E+00 0.  1.
         22    1    1    2    0    0  0.20845295892E+03 -0.30813089883E+03  0.16773277588E+04  0.17180878025E+04  0.00000000000E+00 0. -1.
<mgrwt>
<rscale>  0 0.25331450E+04</rscale>
<asrwt>0</asrwt>
<pdfrwt beam="1">  1        1 0.26744222E+00 0.25331450E+04</pdfrwt>
<pdfrwt beam="2">  1       -1 0.14197224E+00 0.25331450E+04</pdfrwt>
<totfact> 0.16059914E+00</totfact>
</mgrwt>
</event>
<event>
 6    1  0.1585031E-006  0.3422922E+04  0.7818608E-02  0.8132303E-01
          1   -1    0    0  501    0  0.00000000000E+00  0.00000000000E+00  0.13542670428E+04  0.13542670428E+04  0.00000000000E+00 0. -1.
         -1   -1    0    0    0  501 -0.00000000000E+00 -0.00000000000E+00 -0.21628665649E+04  0.21628665649E+04  0.00000000000E+00 0.  1.
         23    2    1    2    0    0  0.60845768087E+03 -0.14429788894E+04  0.30178486082E+03  0.15974038604E+04  0.90643071043E+02 0.  0.
         13    1    3    3    0    0  0.93671221473E+02 -0.24218535944E+03  0.83797354295E+02  0.27285535114E+03  0.00000000000E+00 0. -1.
        -13    1    3    3    0    0  0.51478645940E+03 -0.12007935300E+04  0.21798750652E+03  0.13245485093E+04  0.00000000000E+00 0.  1.
         22    1    1    2    0    0 -0.60845768087E+03  0.14429788894E+04 -0.11103843829E+04  0.19197297473E+04  0.00000000000E+00 0.  1.
<mgrwt>
<rscale>  0 0.34229221E+04</rscale>
<asrwt>0</asrwt>
<pdfrwt beam="1">  1        1 0.20834878E+00 0.34229221E+04</pdfrwt>
<pdfrwt beam="2">  1       -1 0.33274870E+00 0.34229221E+04</pdfrwt>
<totfact> 0.13718469E-01</totfact>
</mgrwt>
</event>
<event>
 6    1  0.1585031E-006  0.1999294E+04  0.7818608E-02  0.8606951E-01
         -2   -1    0    0    0  501 -0.00000000000E+00  0.00000000000E+00  0.52094258833E+03  0.52094258833E+03  0.00000000000E+00 0.  1.
          2   -1    0    0  501    0  0.00000000000E+00 -0.00000000000E+00 -0.19182414439E+04  0.19182414439E+04  0.00000000000E+00 0. -1.
         23    2    1    2    0    0  0.19465740964E+03  0.17578828290E+03 -0.18742635025E+04  0.18948603216E+04  0.94015605402E+02 0.  0.
         13    1    3    3    0    0  0.96698778301E+02  0.14253737908E+03 -0.10331884169E+04  0.10474473079E+04  0.00000000000E+00 0.  1.
        -13    1    3    3    0    0  0.97958631338E+02  0.33250903813E+02 -0.84107508563E+03  0.84741301366E+03  0.00000000000E+00 0. -1.
         22    1    1    2    0    0 -0.19465740964E+03 -0.17578828290E+03  0.47696464693E+03  0.54432371063E+03  0.00000000000E+00 0.  1.
<mgrwt>
<rscale>  0 0.19992935E+04</rscale>
<asrwt>0</asrwt>
<pdfrwt beam="1">  1        2 0.29511407E+00 0.19992935E+04</pdfrwt>
<pdfrwt beam="2">  1       -2 0.80145013E-01 0.19992935E+04</pdfrwt>
<totfact> 0.94879345E+00</totfact>
</mgrwt>
</event>
<event>
 6    1  0.1585031E-006  0.3423446E+04  0.7818608E-02  0.8132176E-01
         -1   -1    0    0    0  501 -0.00000000000E+00  0.00000000000E+00  0.76642460852E+03  0.76642460852E+03  0.00000000000E+00 0.  1.
          1   -1    0    0  501    0  0.00000000000E+00 -0.00000000000E+00 -0.38229406979E+04  0.38229406979E+04  0.00000000000E+00 0. -1.
         23    2    1    2    0    0 -0.16217400056E+04  0.16105722478E+03 -0.83282634028E+03  0.18324147853E+04  0.90355724879E+02 0.  0.
         11    1    3    3    0    0 -0.11419664901E+04  0.12926437488E+03 -0.62946584703E+03  0.13103526226E+04  0.00000000000E+00 0. -1.
        -11    1    3    3    0    0 -0.47977351555E+03  0.31792849898E+02 -0.20336049325E+03  0.52206216272E+03  0.00000000000E+00 0.  1.
         22    1    1    2    0    0  0.16217400056E+04 -0.16105722478E+03 -0.22236897491E+04  0.27569505211E+04  0.00000000000E+00 0. -1.
<mgrwt>
<rscale>  0 0.34234461E+04</rscale>
<asrwt>0</asrwt>
<pdfrwt beam="1">  1        1 0.58814472E+00 0.34234461E+04</pdfrwt>
<pdfrwt beam="2">  1       -1 0.11791148E+00 0.34234461E+04</pdfrwt>
<totfact> 0.72192505E-02</totfact>
</mgrwt>
</event>
<event>
 6    1  0.1585031E-006  0.4711104E+04  0.7818608E-02  0.7874686E-01
          2   -1    0    0  501    0  0.00000000000E+00  0.00000000000E+00  0.18138482753E+04  0.18138482753E+04  0.00000000000E+00 0. -1.
         -2   -1    0    0    0  501 -0.00000000000E+00 -0.00000000000E+00 -0.30590348885E+04  0.30590348885E+04  0.00000000000E+00 0.  1.
         23    2    1    2    0    0  0.23166859692E+04 -0.11356592663E+03 -0.10423345011E+04  0.25445618632E+04  0.91666590867E+02 0.  0.
         13    1    3    3    0    0  0.67674291045E+03 -0.58067852964E+02 -0.26865375876E+03  0.73042979436E+03  0.00000000000E+00 0. -1.
        -13    1    3    3    0    0  0.16399430588E+04 -0.55498073670E+02 -0.77368074233E+03  0.18141320688E+04  0.00000000000E+00 0.  1.
         22    1    1    2    0    0 -0.23166859692E+04  0.11356592663E+03 -0.20285211209E+03  0.23283213006E+04  0.00000000000E+00 0.  1.
<mgrwt>
<rscale>  0 0.47111040E+04</rscale>
<asrwt>0</asrwt>
<pdfrwt beam="1">  1        2 0.27905358E+00 0.47111040E+04</pdfrwt>
<pdfrwt beam="2">  1       -2 0.47062075E+00 0.47111040E+04</pdfrwt>
<totfact> 0.16091018E-02</totfact>
</mgrwt>
</event>
<event>
 6    1  0.1585031E-006  0.2122877E+04  0.7818608E-02  0.8551232E-01
         -1   -1    0    0    0  501 -0.00000000000E+00  0.00000000000E+00  0.61871851038E+03  0.61871851038E+03  0.00000000000E+00 0.  1.
          1   -1    0    0  501    0  0.00000000000E+00 -0.00000000000E+00 -0.18209446544E+04  0.18209446544E+04  0.00000000000E+00 0. -1.
         23    2    1    2    0    0 -0.83841314921E+03 -0.46541084560E+03 -0.11201673021E+04  0.14772300412E+04  0.88825366433E+02 0.  0.
         13    1    3    3    0    0 -0.38718787711E+03 -0.26241478585E+03 -0.52023496831E+03  0.69958587340E+03  0.00000000000E+00 0. -1.
        -13    1    3    3    0    0 -0.45122527210E+03 -0.20299605975E+03 -0.59993233383E+03  0.77764416775E+03  0.00000000000E+00 0.  1.
         22    1    1    2    0    0  0.83841314921E+03  0.46541084560E+03 -0.82058841895E+02  0.96243312365E+03  0.00000000000E+00 0. -1.
<mgrwt>
<rscale>  0 0.21228774E+04</rscale>
<asrwt>0</asrwt>
<pdfrwt beam="1">  1        1 0.28014533E+00 0.21228774E+04</pdfrwt>
<pdfrwt beam="2">  1       -1 0.95187463E-01 0.21228774E+04</pdfrwt>
<totfact> 0.38571546E+00</totfact>
</mgrwt>
</event>
<event>
 6    1  0.1585031E-006  0.5523968E+04  0.7818608E-02  0.7752400E-01
          2   -1    0    0  501    0  0.00000000000E+00  0.00000000000E+00  0.28697892757E+04  0.28697892757E+04  0.00000000000E+00 0.  1.
         -2   -1    0    0    0  501 -0.00000000000E+00 -0.00000000000E+00 -0.26582281177E+04  0.26582281177E+04  0.00000000000E+00 0. -1.
         23    2    1    2    0    0 -0.13883257701E+04  0.77029857970E+03  0.23665926724E+04  0.28512713886E+04  0.90439529073E+02 0.  0.
         11    1    3    3    0    0 -0.45441254466E+03  0.25597892434E+03  0.85464133531E+03  0.10012131554E+04  0.00000000000E+00 0.  1.
        -11    1    3    3    0    0 -0.93391322540E+03  0.51431965536E+03  0.15119513371E+04  0.18500582332E+04  0.00000000000E+00 0. -1.
         22    1    1    2    0    0  0.13883257701E+04 -0.77029857970E+03 -0.21550315145E+04  0.26767460048E+04  0.00000000000E+00 0. -1.
<mgrwt>
<rscale>  0 0.55239676E+04</rscale>
<asrwt>0</asrwt>
<pdfrwt beam="1">  1        2 0.44150604E+00 0.55239676E+04</pdfrwt>
<pdfrwt beam="2">  1       -2 0.40895817E+00 0.55239676E+04</pdfrwt>
<totfact> 0.95061574E-03</totfact>
</mgrwt>
</event>
<event>
 6    1  0.1585031E-006  0.3395958E+04  0.7818608E-02  0.8138899E-01
          1   -1    0    0  501    0  0.00000000000E+00  0.00000000000E+00  0.24796780032E+04  0.24796780032E+04  0.00000000000E+00 0. -1.
         -1   -1    0    0    0  501 -0.00000000000E+00 -0.00000000000E+00 -0.11627047427E+04  0.11627047427E+04  0.00000000000E+00 0.  1.
         23    2    1    2    0    0 -0.14179494152E+04  0.84830966144E+03  0.10723920915E+04  0.19720445245E+04  0.93407615742E+02 0.  0.
         13    1    3    3    0    0 -0.11967652638E+04  0.72237632086E+03  0.86636025612E+03  0.16445834546E+04  0.00000000000E+00 0.  1.
        -13    1    3    3    0    0 -0.22118415139E+03  0.12593334058E+03  0.20603183542E+03  0.32746106990E+03  0.00000000000E+00 0. -1.
         22    1    1    2    0    0  0.14179494152E+04 -0.84830966144E+03  0.24458116903E+03  0.16703382215E+04  0.00000000000E+00 0.  1.
<mgrwt>
<rscale>  0 0.33959584E+04</rscale>
<asrwt>0</asrwt>
<pdfrwt beam="1">  1        1 0.38148892E+00 0.33959584E+04</pdfrwt>
<pdfrwt beam="2">  1       -1 0.17887765E+00 0.33959584E+04</pdfrwt>
<totfact> 0.24413514E-01</totfact>
</mgrwt>
</event>
<event>
 6    1  0.1585031E-006  0.5462324E+04  0.7818608E-02  0.7760895E-01
         -2   -1    0    0    0  501 -0.00000000000E+00  0.00000000000E+00  0.44814454043E+04  0.44814454043E+04  0.00000000000E+00 0.  1.
          2   -1    0    0  501    0  0.00000000000E+00 -0.00000000000E+00 -0.16644733466E+04  0.16644733466E+04  0.00000000000E+00 0. -1.
         23    2    1    2    0    0 -0.16713893108E+04  0.28011115645E+03  0.38173565612E+04  0.41779823588E+04  0.10640012900E+03 0.  0.
         13    1    3    3    0    0 -0.73848781038E+03  0.71648158400E+02  0.16387605632E+04  0.17988979649E+04  0.00000000000E+00 0. -1.
        -13    1    3    3    0    0 -0.93290150046E+03  0.20846299805E+03  0.21785959980E+04  0.23790843939E+04  0.00000000000E+00 0.  1.
         22    1    1    2    0    0  0.16713893108E+04 -0.28011115645E+03 -0.10003845035E+04  0.19679363921E+04  0.00000000000E+00 0. -1.
<mgrwt>
<rscale>  0 0.54623242E+04</rscale>
<asrwt>0</asrwt>
<pdfrwt beam="1">  1        2 0.25607282E+00 0.54623242E+04</pdfrwt>
<pdfrwt beam="2">  1       -2 0.68945313E+00 0.54623242E+04</pdfrwt>
<totfact> 0.18093746E-03</totfact>
</mgrwt>
</event>
<event>
 6    1  0.1585031E-006  0.2123987E+04  0.7818608E-02  0.8550750E-01
         -1   -1    0    0    0  501 -0.00000000000E+00  0.00000000000E+00  0.39466015843E+03  0.39466015843E+03  0.00000000000E+00 0.  1.
          1   -1    0    0  501    0  0.00000000000E+00 -0.00000000000E+00 -0.28577253785E+04  0.28577253785E+04  0.00000000000E+00 0. -1.
         23    2    1    2    0    0 -0.34184706322E+03  0.19014755839E+03 -0.27424371087E+04  0.27716942007E+04  0.91169834316E+02 0.  0.
         11    1    3    3    0    0 -0.15474620564E+03  0.11089978615E+03 -0.10518897744E+04  0.10689795359E+04  0.00000000000E+00 0. -1.
        -11    1    3    3    0    0 -0.18710085759E+03  0.79247772243E+02 -0.16905473343E+04  0.17027146648E+04  0.00000000000E+00 0.  1.
         22    1    1    2    0    0  0.34184706322E+03 -0.19014755839E+03  0.27937188859E+03  0.48069133623E+03  0.00000000000E+00 0.  1.
<mgrwt>
<rscale>  0 0.21239871E+04</rscale>
<asrwt>0</asrwt>
<pdfrwt beam="1">  1        1 0.43965005E+00 0.21239871E+04</pdfrwt>
<pdfrwt beam="2">  1       -1 0.60716948E-01 0.21239871E+04</pdfrwt>
<totfact> 0.19147632E+00</totfact>
</mgrwt>
</event>
<event>
 6    1  0.1585031E-006  0.2899906E+04  0.7818608E-02  0.8272905E-01
          1   -1    0    0  501    0  0.00000000000E+00  0.00000000000E+00  0.12422936987E+04  0.12422936987E+04  0.00000000000E+00 0. -1.
         -1   -1    0    0    0  501 -0.00000000000E+00 -0.00000000000E+00 -0.16923241591E+04  0.16923241591E+04  0.00000000000E+00 0.  1.
         23    2    1    2    0    0 -0.99813662095E+02 -0.14436820117E+04 -0.28888220251E+03  0.14785446183E+04  0.91982298952E+02 0.  0.
         11    1    3    3    0    0  0.17231703862E+02 -0.23248699410E+03 -0.40518735201E+02  0.23661974125E+03  0.00000000000E+00 0. -1.
        -11    1    3    3    0    0 -0.11704536596E+03 -0.12111950176E+04 -0.24836346731E+03  0.12419248770E+04  0.00000000000E+00 0.  1.
         22    1    1    2    0    0  0.99813662095E+02  0.14436820117E+04 -0.16114825791E+03  0.14560732396E+04  0.00000000000E+00 0.  1.
<mgrwt>
<rscale>  0 0.28999060E+04</rscale>
<asrwt>0</asrwt>
<pdfrwt beam="1">  1        1 0.19112211E+00 0.28999060E+04</pdfrwt>
<pdfrwt beam="2">  1       -1 0.26035756E+00 0.28999060E+04</pdfrwt>
<totfact> 0.50989881E-01</totfact>
</mgrwt>
</event>
<event>
 6    1  0.1585031E-006  0.4138931E+04  0.7818608E-02  0.7977091E-01
          1   -1    0    0  501    0  0.00000000000E+00  0.00000000000E+00  0.25843258869E+04  0.25843258869E+04  0.00000000000E+00 0. -1.
         -1   -1    0    0    0  501 -0.00000000000E+00 -0.00000000000E+00 -0.16571781348E+04  0.16571781348E+04  0.00000000000E+00 0.  1.
         23    2    1    2    0    0 -0.34098166844E+03 -0.15217445882E+04 -0.92867693319E+03  0.18174453688E+04  0.93229461665E+02 0.  0.
         11    1    3    3    0    0 -0.30776052602E+02 -0.28149344596E+03 -0.18862721061E+03  0.34024395676E+03  0.00000000000E+00 0.  1.
        -11    1    3    3    0    0 -0.31020561584E+03 -0.12402511422E+04 -0.74004972258E+03  0.14772014120E+04  0.00000000000E+00 0. -1.
         22    1    1    2    0    0  0.34098166844E+03  0.15217445882E+04  0.18558246853E+04  0.24240586528E+04  0.00000000000E+00 0. -1.
<mgrwt>
<rscale>  0 0.41389314E+04</rscale>
<asrwt>0</asrwt>
<pdfrwt beam="1">  1        1 0.39758860E+00 0.41389314E+04</pdfrwt>
<pdfrwt beam="2">  1       -1 0.25495048E+00 0.41389314E+04</pdfrwt>
<totfact> 0.59263795E-02</totfact>
</mgrwt>
</event>
<event>
 6    1  0.1585031E-006  0.4792054E+04  0.7818608E-02  0.7861411E-01
         -1   -1    0    0    0  501 -0.00000000000E+00  0.00000000000E+00  0.14960884558E+04  0.14960884558E+04  0.00000000000E+00 0.  1.
          1   -1    0    0  501    0  0.00000000000E+00 -0.00000000000E+00 -0.38373027977E+04  0.38373027977E+04  0.00000000000E+00 0. -1.
         23    2    1    2    0    0  0.19477697548E+04 -0.67816442196E+03  0.18442621014E+03  0.20726284288E+04  0.89786279751E+02 0.  0.
         13    1    3    3    0    0  0.95219095470E+03 -0.29612664003E+03  0.59082971227E+02  0.99892412056E+03  0.00000000000E+00 0. -1.
        -13    1    3    3    0    0  0.99557880013E+03 -0.38203778193E+03  0.12534323891E+03  0.10737043083E+04  0.00000000000E+00 0.  1.
         22    1    1    2    0    0 -0.19477697548E+04  0.67816442196E+03 -0.25256405520E+04  0.32607628247E+04  0.00000000000E+00 0. -1.
<mgrwt>
<rscale>  0 0.47920536E+04</rscale>
<asrwt>0</asrwt>
<pdfrwt beam="1">  1        1 0.59035426E+00 0.47920536E+04</pdfrwt>
<pdfrwt beam="2">  1       -1 0.23016746E+00 0.47920536E+04</pdfrwt>
<totfact> 0.91374174E-03</totfact>
</mgrwt>
</event>
<event>
 6    1  0.1585031E-006  0.2050830E+04  0.7818608E-02  0.8583218E-01
         -1   -1    0    0    0  501 -0.00000000000E+00  0.00000000000E+00  0.41905204365E+03  0.41905204365E+03  0.00000000000E+00 0. -1.
          1   -1    0    0  501    0  0.00000000000E+00 -0.00000000000E+00 -0.25091772620E+04  0.25091772620E+04  0.00000000000E+00 0.  1.
         23    2    1    2    0    0 -0.30003899677E+03 -0.93996065067E+03 -0.14351242446E+04  0.17439254173E+04  0.90248763312E+02 0.  0.
         13    1    3    3    0    0 -0.11481272758E+03 -0.24714929947E+03 -0.35847786265E+03  0.45030113996E+03  0.00000000000E+00 0.  1.
        -13    1    3    3    0    0 -0.18522626919E+03 -0.69281135120E+03 -0.10766463819E+04  0.12936242773E+04  0.00000000000E+00 0. -1.
         22    1    1    2    0    0  0.30003899677E+03  0.93996065067E+03 -0.65500097381E+03  0.11843038884E+04  0.00000000000E+00 0. -1.
<mgrwt>
<rscale>  0 0.20508299E+04</rscale>
<asrwt>0</asrwt>
<pdfrwt beam="1">  1        1 0.38602728E+00 0.20508299E+04</pdfrwt>
<pdfrwt beam="2">  1       -1 0.64469544E-01 0.20508299E+04</pdfrwt>
<totfact> 0.30092729E+00</totfact>
</mgrwt>
</event>
<event>
 6    1  0.1585031E-006  0.2063506E+04  0.7818608E-02  0.8577492E-01
          1   -1    0    0  501    0  0.00000000000E+00  0.00000000000E+00  0.11037801932E+04  0.11037801932E+04  0.00000000000E+00 0. -1.
         -1   -1    0    0    0  501 -0.00000000000E+00 -0.00000000000E+00 -0.96442573275E+03  0.96442573275E+03  0.00000000000E+00 0.  1.
         23    2    1    2    0    0 -0.46489292478E+03  0.25134726230E+03 -0.81591548546E+03  0.97649096895E+03  0.92280308077E+02 0.  0.
         13    1    3    3    0    0 -0.31167782748E+03  0.15418973787E+03 -0.60916638705E+03  0.70142799382E+03  0.00000000000E+00 0. -1.
        -13    1    3    3    0    0 -0.15321509730E+03  0.97157524432E+02 -0.20674909841E+03  0.27506297513E+03  0.00000000000E+00 0.  1.
         22    1    1    2    0    0  0.46489292478E+03 -0.25134726230E+03  0.95526994590E+03  0.10917149570E+04  0.00000000000E+00 0. -1.
<mgrwt>
<rscale>  0 0.20635058E+04</rscale>
<asrwt>0</asrwt>
<pdfrwt beam="1">  1        1 0.16981234E+00 0.20635058E+04</pdfrwt>
<pdfrwt beam="2">  1       -1 0.14837319E+00 0.20635058E+04</pdfrwt>
<totfact> 0.41756886E+00</totfact>
</mgrwt>
</event>
<event>
 6    1  0.1585031E-006  0.3132339E+04  0.7818608E-02  0.8206918E-01
          1   -1    0    0  501    0  0.00000000000E+00  0.00000000000E+00  0.19473912810E+04  0.19473912810E+04  0.00000000000E+00 0. -1.
         -1   -1    0    0    0  501 -0.00000000000E+00 -0.00000000000E+00 -0.12595760310E+04  0.12595760310E+04  0.00000000000E+00 0.  1.
         23    2    1    2    0    0 -0.56744422008E+03 -0.14021007774E+04  0.75480421556E+03  0.16929108221E+04  0.91313278573E+02 0.  0.
         11    1    3    3    0    0 -0.21982280884E+03 -0.52856572692E+03  0.23688302114E+03  0.61952995139E+03  0.00000000000E+00 0. -1.
        -11    1    3    3    0    0 -0.34762141124E+03 -0.87353505051E+03  0.51792119441E+03  0.10733808707E+04  0.00000000000E+00 0.  1.
         22    1    1    2    0    0  0.56744422008E+03  0.14021007774E+04 -0.66988965488E+02  0.15140564899E+04  0.00000000000E+00 0.  1.
<mgrwt>
<rscale>  0 0.31323393E+04</rscale>
<asrwt>0</asrwt>
<pdfrwt beam="1">  1        1 0.29959866E+00 0.31323393E+04</pdfrwt>
<pdfrwt beam="2">  1       -1 0.19378093E+00 0.31323393E+04</pdfrwt>
<totfact> 0.45262377E-01</totfact>
</mgrwt>
</event>
<event>
 6    1  0.1585031E-006  0.1644776E+04  0.7818608E-02  0.8793503E-01
          2   -1    0    0  501    0  0.00000000000E+00  0.00000000000E+00  0.11219667426E+04  0.11219667426E+04  0.00000000000E+00 0. -1.
         -2   -1    0    0    0  501 -0.00000000000E+00 -0.00000000000E+00 -0.60280050927E+03  0.60280050927E+03  0.00000000000E+00 0.  1.
         23    2    1    2    0    0  0.27645013382E+03  0.18182644440E+03  0.10470420316E+04  0.11017597153E+04  0.89955110474E+02 0.  0.
         13    1    3    3    0    0  0.68558368372E+02  0.12799165833E+02  0.14740855561E+03  0.16307467856E+03  0.00000000000E+00 0. -1.
        -13    1    3    3    0    0  0.20789176545E+03  0.16902727857E+03  0.89963347596E+03  0.93868503669E+03  0.00000000000E+00 0.  1.
         22    1    1    2    0    0 -0.27645013382E+03 -0.18182644440E+03 -0.52787579821E+03  0.62300753664E+03  0.00000000000E+00 0.  1.
<mgrwt>
<rscale>  0 0.16447761E+04</rscale>
<asrwt>0</asrwt>
<pdfrwt beam="1">  1        2 0.17261027E+00 0.16447761E+04</pdfrwt>
<pdfrwt beam="2">  1       -2 0.92738540E-01 0.16447761E+04</pdfrwt>
<totfact> 0.19900291E+01</totfact>
</mgrwt>
</event>
<event>
 6    1  0.1585031E-006  0.3654830E+04  0.7818608E-02  0.8078046E-01
          1   -1    0    0  501    0  0.00000000000E+00  0.00000000000E+00  0.26421776900E+04  0.26421776900E+04  0.00000000000E+00 0. -1.
         -1   -1    0    0    0  501 -0.00000000000E+00 -0.00000000000E+00 -0.12638992100E+04  0.12638992100E+04  0.00000000000E+00 0.  1.
         23    2    1    2    0    0  0.12758711915E+03 -0.17802066044E+04  0.27546137209E+03  0.18080731820E+04  0.88519130366E+02 0.  0.
         13    1    3    3    0    0  0.69133950783E+02 -0.11550394787E+04  0.13798031162E+03  0.11653043667E+04  0.00000000000E+00 0. -1.
        -13    1    3    3    0    0  0.58453168362E+02 -0.62516712570E+03  0.13748106047E+03  0.64276881531E+03  0.00000000000E+00 0.  1.
         22    1    1    2    0    0 -0.12758711915E+03  0.17802066044E+04  0.11028171078E+04  0.20980037180E+04  0.00000000000E+00 0.  1.
<mgrwt>
<rscale>  0 0.36548304E+04</rscale>
<asrwt>0</asrwt>
<pdfrwt beam="1">  1        1 0.40648888E+00 0.36548304E+04</pdfrwt>
<pdfrwt beam="2">  1       -1 0.19444603E+00 0.36548304E+04</pdfrwt>
<totfact> 0.14274507E-01</totfact>
</mgrwt>
</event>
<event>
 6    1  0.1585031E-006  0.4462951E+04  0.7818608E-02  0.7917155E-01
         -2   -1    0    0    0  501 -0.00000000000E+00  0.00000000000E+00  0.15183586492E+04  0.15183586492E+04  0.00000000000E+00 0.  1.
          2   -1    0    0  501    0  0.00000000000E+00 -0.00000000000E+00 -0.32795164008E+04  0.32795164008E+04  0.00000000000E+00 0. -1.
         23    2    1    2    0    0 -0.99476801333E+03 -0.63920750392E+03  0.11524056797E+04  0.16535147809E+04  0.89009250724E+02 0.  0.
         13    1    3    3    0    0 -0.36930885476E+03 -0.20182886631E+03  0.36768804465E+03  0.55885456038E+03  0.00000000000E+00 0. -1.
        -13    1    3    3    0    0 -0.62545915856E+03 -0.43737863760E+03  0.78471763508E+03  0.10946602206E+04  0.00000000000E+00 0.  1.
         22    1    1    2    0    0  0.99476801333E+03  0.63920750392E+03 -0.29135634313E+04  0.31443602690E+04  0.00000000000E+00 0. -1.
<mgrwt>
<rscale>  0 0.44629506E+04</rscale>
<asrwt>0</asrwt>
<pdfrwt beam="1">  1        2 0.50454098E+00 0.44629506E+04</pdfrwt>
<pdfrwt beam="2">  1       -2 0.23359364E+00 0.44629506E+04</pdfrwt>
<totfact> 0.70835804E-02</totfact>
</mgrwt>
</event>
<event>
 6    1  0.1585031E-006  0.3591386E+04  0.7818608E-02  0.8092468E-01
          2   -1    0    0  501    0  0.00000000000E+00  0.00000000000E+00  0.18435149758E+04  0.18435149758E+04  0.00000000000E+00 0. -1.
         -2   -1    0    0    0  501 -0.00000000000E+00 -0.00000000000E+00 -0.17491112985E+04  0.17491112985E+04  0.00000000000E+00 0.  1.
         23    2    1    2    0    0 -0.15160363214E+04  0.35528022322E+03 -0.84502570978E+03  0.17740780241E+04  0.93242805027E+02 0.  0.
         13    1    3    3    0    0 -0.33189198431E+03  0.10113091895E+03 -0.15296232587E+03  0.37917967397E+03  0.00000000000E+00 0.  1.
        -13    1    3    3    0    0 -0.11841443371E+04  0.25414930427E+03 -0.69206338391E+03  0.13948983502E+04  0.00000000000E+00 0. -1.
         22    1    1    2    0    0  0.15160363214E+04 -0.35528022322E+03  0.93942938710E+03  0.18185482502E+04  0.00000000000E+00 0. -1.
<mgrwt>
<rscale>  0 0.35913857E+04</rscale>
<asrwt>0</asrwt>
<pdfrwt beam="1">  1        2 0.28361769E+00 0.35913857E+04</pdfrwt>
<pdfrwt beam="2">  1       -2 0.26909405E+00 0.35913857E+04</pdfrwt>
<totfact> 0.32679093E-01</totfact>
</mgrwt>
</event>
<event>
 6    1  0.1585031E-006  0.6448018E+03  0.7818608E-02  0.9816583E-01
         -2   -1    0    0    0  501 -0.00000000000E+00  0.00000000000E+00  0.55744731268E+02  0.55744731268E+02  0.00000000000E+00 0.  1.
          2   -1    0    0  501    0  0.00000000000E+00 -0.00000000000E+00 -0.18646125377E+04  0.18646125377E+04  0.00000000000E+00 0. -1.
         23    2    1    2    0    0  0.21387994405E+03  0.21976326540E+03 -0.11498947606E+04  0.11935244144E+04  0.90565137410E+02 0.  0.
         13    1    3    3    0    0  0.10613609802E+03  0.46852011390E+02 -0.41436105583E+03  0.43029648717E+03  0.00000000000E+00 0. -1.
        -13    1    3    3    0    0  0.10774384603E+03  0.17291125401E+03 -0.73553370478E+03  0.76322792728E+03  0.00000000000E+00 0.  1.
         22    1    1    2    0    0 -0.21387994405E+03 -0.21976326540E+03 -0.65897304579E+03  0.72683285449E+03  0.00000000000E+00 0. -1.
<mgrwt>
<rscale>  0 0.64480175E+03</rscale>
<asrwt>0</asrwt>
<pdfrwt beam="1">  1        2 0.28686345E+00 0.64480175E+03</pdfrwt>
<pdfrwt beam="2">  1       -2 0.85761130E-02 0.64480175E+03</pdfrwt>
<totfact> 0.71793515E+02</totfact>
</mgrwt>
</event>
<event>
 6    1  0.1585031E-006  0.6427073E+03  0.7818608E-02  0.9820560E-01
          1   -1    0    0  501    0  0.00000000000E+00  0.00000000000E+00  0.19317202895E+04  0.19317202895E+04  0.00000000000E+00 0. -1.
         -1   -1    0    0    0  501 -0.00000000000E+00 -0.00000000000E+00 -0.53459178591E+02  0.53459178591E+02  0.00000000000E+00 0.  1.
         23    2    1    2    0    0  0.84193420040E+02  0.13553539292E+03  0.17964921023E+04  0.18058904682E+04  0.91641337320E+02 0.  0.
         13    1    3    3    0    0 -0.51323769804E+01 -0.11102511961E+02  0.10784300911E+03  0.10853442624E+03  0.00000000000E+00 0. -1.
        -13    1    3    3    0    0  0.89325797020E+02  0.14663790488E+03  0.16886490932E+04  0.16973560419E+04  0.00000000000E+00 0.  1.
         22    1    1    2    0    0 -0.84193420040E+02 -0.13553539292E+03  0.81769008553E+02  0.17928899986E+03  0.00000000000E+00 0.  1.
<mgrwt>
<rscale>  0 0.64270734E+03</rscale>
<asrwt>0</asrwt>
<pdfrwt beam="1">  1        1 0.29718768E+00 0.64270734E+03</pdfrwt>
<pdfrwt beam="2">  1       -1 0.82244905E-02 0.64270734E+03</pdfrwt>
<totfact> 0.29501900E+02</totfact>
</mgrwt>
</event>
<event>
 6    1  0.1585031E-006  0.1561916E+04  0.7818608E-02  0.8844292E-01
          2   -1    0    0  501    0  0.00000000000E+00  0.00000000000E+00  0.44027511867E+04  0.44027511867E+04  0.00000000000E+00 0. -1.
         -2   -1    0    0    0  501 -0.00000000000E+00 -0.00000000000E+00 -0.13852606091E+03  0.13852606091E+03  0.00000000000E+00 0.  1.
         23    2    1    2    0    0  0.56187197543E+03  0.38863398895E+03  0.32233613408E+04  0.32962335082E+04  0.91435840842E+02 0.  0.
         11    1    3    3    0    0  0.26592849674E+03  0.14608110679E+03  0.12691854709E+04  0.13049480506E+04  0.00000000000E+00 0. -1.
        -11    1    3    3    0    0  0.29594347869E+03  0.24255288216E+03  0.19541758699E+04  0.19912854576E+04  0.00000000000E+00 0.  1.
         22    1    1    2    0    0 -0.56187197543E+03 -0.38863398895E+03  0.10408637850E+04  0.12450437394E+04  0.00000000000E+00 0.  1.
<mgrwt>
<rscale>  0 0.15619165E+04</rscale>
<asrwt>0</asrwt>
<pdfrwt beam="1">  1        2 0.67734623E+00 0.15619165E+04</pdfrwt>
<pdfrwt beam="2">  1       -2 0.21311705E-01 0.15619165E+04</pdfrwt>
<totfact> 0.28889149E+00</totfact>
</mgrwt>
</event>
<event>
 6    1  0.1585031E-006  0.3694298E+04  0.7818608E-02  0.8069227E-01
          1   -1    0    0  501    0  0.00000000000E+00  0.00000000000E+00  0.43925028921E+04  0.43925028921E+04  0.00000000000E+00 0. -1.
         -1   -1    0    0    0  501 -0.00000000000E+00 -0.00000000000E+00 -0.77676895371E+03  0.77676895371E+03  0.00000000000E+00 0.  1.
         23    2    1    2    0    0  0.16892631627E+04 -0.59844985200E+03  0.24282714306E+04  0.30194301154E+04  0.93294280629E+02 0.  0.
         11    1    3    3    0    0  0.12230603904E+04 -0.47697310246E+03  0.17703741299E+04  0.22039974181E+04  0.00000000000E+00 0.  1.
        -11    1    3    3    0    0  0.46620277232E+03 -0.12147674953E+03  0.65789730070E+03  0.81543269732E+03  0.00000000000E+00 0. -1.
         22    1    1    2    0    0 -0.16892631627E+04  0.59844985200E+03  0.11874625078E+04  0.21498417304E+04  0.00000000000E+00 0.  1.
<mgrwt>
<rscale>  0 0.36942982E+04</rscale>
<asrwt>0</asrwt>
<pdfrwt beam="1">  1        1 0.67576966E+00 0.36942982E+04</pdfrwt>
<pdfrwt beam="2">  1       -1 0.11950292E+00 0.36942982E+04</pdfrwt>
<totfact> 0.20666471E-02</totfact>
</mgrwt>
</event>
<event>
 6    1  0.1585031E-006  0.1290422E+04  0.7818608E-02  0.9037195E-01
         -1   -1    0    0    0  501 -0.00000000000E+00  0.00000000000E+00  0.16267429966E+03  0.16267429966E+03  0.00000000000E+00 0.  1.
          1   -1    0    0  501    0  0.00000000000E+00 -0.00000000000E+00 -0.25590845050E+04  0.25590845050E+04  0.00000000000E+00 0. -1.
         23    2    1    2    0    0  0.29480093163E+03  0.42320759041E+03 -0.20105024734E+04  0.20776027433E+04  0.91108228381E+02 0.  0.
         11    1    3    3    0    0  0.18529790057E+03  0.27262170973E+03 -0.14495440354E+04  0.14865516537E+04  0.00000000000E+00 0.  1.
        -11    1    3    3    0    0  0.10950303106E+03  0.15058588068E+03 -0.56095843805E+03  0.59105108958E+03  0.00000000000E+00 0. -1.
         22    1    1    2    0    0 -0.29480093163E+03 -0.42320759041E+03 -0.38590773189E+03  0.64415606137E+03  0.00000000000E+00 0.  1.
<mgrwt>
<rscale>  0 0.12904221E+04</rscale>
<asrwt>0</asrwt>
<pdfrwt beam="1">  1        1 0.39370533E+00 0.12904221E+04</pdfrwt>
<pdfrwt beam="2">  1       -1 0.25026814E-01 0.12904221E+04</pdfrwt>
<totfact> 0.17031598E+01</totfact>
</mgrwt>
</event>
<event>
 6    1  0.1585031E-006  0.1639182E+04  0.7818608E-02  0.8796832E-01
         -1   -1    0    0    0  501 -0.00000000000E+00  0.00000000000E+00  0.95744107998E+03  0.95744107998E+03  0.00000000000E+00 0. -1.
          1   -1    0    0  501    0  0.00000000000E+00 -0.00000000000E+00 -0.70158844797E+03  0.70158844797E+03  0.00000000000E+00 0.  1.
         23    2    1    2    0    0 -0.14896330977E+03  0.77352357960E+03  0.34779209983E+03  0.86594588696E+03  0.91510319567E+02 0.  0.
         13    1    3    3    0    0 -0.49657591987E+02  0.48773861405E+03  0.22511182613E+03  0.53947211823E+03  0.00000000000E+00 0.  1.
        -13    1    3    3    0    0 -0.99305717785E+02  0.28578496555E+03  0.12268027371E+03  0.32647376874E+03  0.00000000000E+00 0. -1.
         22    1    1    2    0    0  0.14896330977E+03 -0.77352357960E+03 -0.91939467827E+02  0.79308364099E+03  0.00000000000E+00 0.  1.
<mgrwt>
<rscale>  0 0.16391822E+04</rscale>
<asrwt>0</asrwt>
<pdfrwt beam="1">  1        1 0.10793668E+00 0.16391822E+04</pdfrwt>
<pdfrwt beam="2">  1       -1 0.14729863E+00 0.16391822E+04</pdfrwt>
<totfact> 0.95147402E+00</totfact>
</mgrwt>
</event>
<event>
 6    1  0.1585031E-006  0.2739742E+04  0.7818608E-02  0.8322224E-01
          1   -1    0    0  501    0  0.00000000000E+00  0.00000000000E+00  0.18520369111E+04  0.18520369111E+04  0.00000000000E+00 0. -1.
         -1   -1    0    0    0  501 -0.00000000000E+00 -0.00000000000E+00 -0.10132335694E+04  0.10132335694E+04  0.00000000000E+00 0.  1.
         23    2    1    2    0    0  0.10048494105E+04  0.70053411658E+03 -0.21794285703E+03  0.12474995095E+04  0.91025002120E+02 0.  0.
         13    1    3    3    0    0  0.66555326135E+03  0.51542611616E+03 -0.14708282423E+03  0.85455168486E+03  0.00000000000E+00 0.  1.
        -13    1    3    3    0    0  0.33929614910E+03  0.18510800042E+03 -0.70860032803E+02  0.39294782460E+03  0.00000000000E+00 0. -1.
         22    1    1    2    0    0 -0.10048494105E+04 -0.70053411658E+03  0.10567461987E+04  0.16177709710E+04  0.00000000000E+00 0.  1.
<mgrwt>
<rscale>  0 0.27397416E+04</rscale>
<asrwt>0</asrwt>
<pdfrwt beam="1">  1        1 0.28492875E+00 0.27397416E+04</pdfrwt>
<pdfrwt beam="2">  1       -1 0.15588209E+00 0.27397416E+04</pdfrwt>
<totfact> 0.10266849E+00</totfact>
</mgrwt>
</event>
<event>
 6    1  0.1585031E-006  0.2065025E+04  0.7818608E-02  0.8576809E-01
          1   -1    0    0  501    0  0.00000000000E+00  0.00000000000E+00  0.24231989892E+04  0.24231989892E+04  0.00000000000E+00 0. -1.
         -1   -1    0    0    0  501 -0.00000000000E+00 -0.00000000000E+00 -0.43994817596E+03  0.43994817596E+03  0.00000000000E+00 0.  1.
         23    2    1    2    0    0 -0.26757193365E+03  0.56914356837E+03  0.21255876970E+04  0.22183379456E+04  0.85912993657E+02 0.  0.
         11    1    3    3    0    0 -0.91195185248E+02  0.20423184739E+03  0.90447665322E+03  0.93172164594E+03  0.00000000000E+00 0.  1.
        -11    1    3    3    0    0 -0.17637674840E+03  0.36491172098E+03  0.12211110437E+04  0.12866162997E+04  0.00000000000E+00 0. -1.
         22    1    1    2    0    0  0.26757193365E+03 -0.56914356837E+03 -0.14233688373E+03  0.64480921951E+03  0.00000000000E+00 0.  1.
<mgrwt>
<rscale>  0 0.20650249E+04</rscale>
<asrwt>0</asrwt>
<pdfrwt beam="1">  1        1 0.37279984E+00 0.20650249E+04</pdfrwt>
<pdfrwt beam="2">  1       -1 0.67684336E-01 0.20650249E+04</pdfrwt>
<totfact> 0.31228698E+00</totfact>
</mgrwt>
</event>
<event>
 6    1  0.1585031E-006  0.2003465E+04  0.7818608E-02  0.8605002E-01
          2   -1    0    0  501    0  0.00000000000E+00  0.00000000000E+00  0.27243467239E+04  0.27243467239E+04  0.00000000000E+00 0. -1.
         -2   -1    0    0    0  501 -0.00000000000E+00 -0.00000000000E+00 -0.36833343772E+03  0.36833343772E+03  0.00000000000E+00 0.  1.
         23    2    1    2    0    0 -0.45298587987E+03 -0.86191646705E+03  0.15298602720E+04  0.18157208802E+04  0.90959658523E+02 0.  0.
         11    1    3    3    0    0 -0.15837635238E+03 -0.24125423582E+03  0.39702636448E+03  0.49083256757E+03  0.00000000000E+00 0.  1.
        -11    1    3    3    0    0 -0.29460952749E+03 -0.62066223123E+03  0.11328339075E+04  0.13248883126E+04  0.00000000000E+00 0. -1.
         22    1    1    2    0    0  0.45298587987E+03  0.86191646705E+03  0.82615301419E+03  0.12769592814E+04  0.00000000000E+00 0. -1.
<mgrwt>
<rscale>  0 0.20034650E+04</rscale>
<asrwt>0</asrwt>
<pdfrwt beam="1">  1        2 0.41913025E+00 0.20034650E+04</pdfrwt>
<pdfrwt beam="2">  1       -2 0.56666684E-01 0.20034650E+04</pdfrwt>
<totfact> 0.69759222E+00</totfact>
</mgrwt>
</event>
<event>
 6    1  0.1585031E-006  0.1819914E+04  0.7818608E-02  0.8695781E-01
          2   -1    0    0  501    0  0.00000000000E+00  0.00000000000E+00  0.12713367765E+04  0.12713367765E+04  0.00000000000E+00 0. -1.
         -2   -1    0    0    0  501 -0.00000000000E+00 -0.00000000000E+00 -0.65129974183E+03  0.65129974183E+03  0.00000000000E+00 0.  1.
         23    2    1    2    0    0  0.85828865230E+03 -0.28988078549E+03  0.24995227559E+03  0.94403904781E+03  0.89684464873E+02 0.  0.
         13    1    3    3    0    0  0.43147788887E+03 -0.13066050657E+03  0.16841343072E+03  0.48125712484E+03  0.00000000000E+00 0. -1.
        -13    1    3    3    0    0  0.42681076343E+03 -0.15922027892E+03  0.81538844869E+02  0.46278192297E+03  0.00000000000E+00 0.  1.
         22    1    1    2    0    0 -0.85828865230E+03  0.28988078549E+03  0.37008475913E+03  0.97859747057E+03  0.00000000000E+00 0.  1.
<mgrwt>
<rscale>  0 0.18199135E+04</rscale>
<asrwt>0</asrwt>
<pdfrwt beam="1">  1        2 0.19559027E+00 0.18199135E+04</pdfrwt>
<pdfrwt beam="2">  1       -2 0.10019996E+00 0.18199135E+04</pdfrwt>
<totfact> 0.13317158E+01</totfact>
</mgrwt>
</event>
<event>
 6    1  0.1585031E-006  0.7318847E+04  0.7818608E-02  0.7545418E-01
          2   -1    0    0  501    0  0.00000000000E+00  0.00000000000E+00  0.47833628303E+04  0.47833628303E+04  0.00000000000E+00 0. -1.
         -2   -1    0    0    0  501 -0.00000000000E+00 -0.00000000000E+00 -0.27995744119E+04  0.27995744119E+04  0.00000000000E+00 0.  1.
         23    2    1    2    0    0 -0.26466795844E+04  0.10474236555E+04  0.33739714721E+04  0.44151907151E+04  0.90644471389E+02 0.  0.
         13    1    3    3    0    0 -0.89655069391E+02  0.41073647712E+02  0.14279580547E+03  0.17353880852E+03  0.00000000000E+00 0.  1.
        -13    1    3    3    0    0 -0.25570245150E+04  0.10063500078E+04  0.32311756666E+04  0.42416519066E+04  0.00000000000E+00 0. -1.
         22    1    1    2    0    0  0.26466795844E+04 -0.10474236555E+04 -0.13901830536E+04  0.31677465270E+04  0.00000000000E+00 0.  1.
<mgrwt>
<rscale>  0 0.73188470E+04</rscale>
<asrwt>0</asrwt>
<pdfrwt beam="1">  1        2 0.73590198E+00 0.73188470E+04</pdfrwt>
<pdfrwt beam="2">  1       -2 0.43070375E+00 0.73188470E+04</pdfrwt>
<totfact> 0.17360975E-04</totfact>
</mgrwt>
</event>
<event>
 6    1  0.1585031E-006  0.1995769E+04  0.7818608E-02  0.8608601E-01
         -1   -1    0    0    0  501 -0.00000000000E+00  0.00000000000E+00  0.57870446032E+03  0.57870446032E+03  0.00000000000E+00 0.  1.
          1   -1    0    0  501    0  0.00000000000E+00 -0.00000000000E+00 -0.17206944821E+04  0.17206944821E+04  0.00000000000E+00 0. -1.
         23    2    1    2    0    0 -0.39723978382E+03  0.84340755635E+03 -0.16894334605E+03  0.95182497966E+03  0.91066930187E+02 0.  0.
         13    1    3    3    0    0 -0.19199058990E+03  0.30493514964E+03 -0.58006972531E+02  0.36498032955E+03  0.00000000000E+00 0.  1.
        -13    1    3    3    0    0 -0.20524919391E+03  0.53847240671E+03 -0.11093637352E+03  0.58684465011E+03  0.00000000000E+00 0. -1.
         22    1    1    2    0    0  0.39723978382E+03 -0.84340755635E+03 -0.97304667575E+03  0.13475739628E+04  0.00000000000E+00 0. -1.
<mgrwt>
<rscale>  0 0.19957691E+04</rscale>
<asrwt>0</asrwt>
<pdfrwt beam="1">  1        1 0.26472222E+00 0.19957691E+04</pdfrwt>
<pdfrwt beam="2">  1       -1 0.89031457E-01 0.19957691E+04</pdfrwt>
<totfact> 0.52959296E+00</totfact>
</mgrwt>
</event>
<event>
 6    1  0.1585031E-006  0.5383058E+04  0.7818608E-02  0.7771989E-01
          1   -1    0    0  501    0  0.00000000000E+00  0.00000000000E+00  0.21268509418E+04  0.21268509418E+04  0.00000000000E+00 0. -1.
         -1   -1    0    0    0  501 -0.00000000000E+00 -0.00000000000E+00 -0.34061285586E+04  0.34061285586E+04  0.00000000000E+00 0.  1.
         23    2    1    2    0    0  0.15334892695E+04 -0.17680124492E+04  0.72485465923E+03  0.24517454067E+04  0.90464920043E+02 0.  0.
         13    1    3    3    0    0  0.18240877162E+03 -0.17265532711E+03  0.64030017375E+02  0.25919619030E+03  0.00000000000E+00 0. -1.
        -13    1    3    3    0    0  0.13510804979E+04 -0.15953571221E+04  0.66082464185E+03  0.21925492164E+04  0.00000000000E+00 0.  1.
         22    1    1    2    0    0 -0.15334892695E+04  0.17680124492E+04 -0.20041322761E+04  0.30812340937E+04  0.00000000000E+00 0.  1.
<mgrwt>
<rscale>  0 0.53830578E+04</rscale>
<asrwt>0</asrwt>
<pdfrwt beam="1">  1        1 0.32720784E+00 0.53830578E+04</pdfrwt>
<pdfrwt beam="2">  1       -1 0.52401977E+00 0.53830578E+04</pdfrwt>
<totfact> 0.18242115E-03</totfact>
</mgrwt>
</event>
<event>
 6    1  0.1585031E-006  0.1517135E+04  0.7818608E-02  0.8873137E-01
          1   -1    0    0  501    0  0.00000000000E+00  0.00000000000E+00  0.15442054070E+04  0.15442054070E+04  0.00000000000E+00 0. -1.
         -1   -1    0    0    0  501 -0.00000000000E+00 -0.00000000000E+00 -0.37263501984E+03  0.37263501984E+03  0.00000000000E+00 0.  1.
         23    2    1    2    0    0 -0.69416133270E+03 -0.13856239116E+03  0.92226717908E+03  0.11663661890E+04  0.93668806320E+02 0.  0.
         13    1    3    3    0    0 -0.15123846128E+03 -0.17849005258E+02  0.26220589598E+03  0.30322201610E+03  0.00000000000E+00 0. -1.
        -13    1    3    3    0    0 -0.54292287142E+03 -0.12071338590E+03  0.66006128310E+03  0.86314417295E+03  0.00000000000E+00 0.  1.
         22    1    1    2    0    0  0.69416133270E+03  0.13856239116E+03  0.24930320811E+03  0.75047423782E+03  0.00000000000E+00 0.  1.
<mgrwt>
<rscale>  0 0.15171355E+04</rscale>
<asrwt>0</asrwt>
<pdfrwt beam="1">  1        1 0.23757006E+00 0.15171355E+04</pdfrwt>
<pdfrwt beam="2">  1       -1 0.57328465E-01 0.15171355E+04</pdfrwt>
<totfact> 0.18145847E+01</totfact>
</mgrwt>
</event>
<event>
 6    1  0.1585031E-006  0.2786196E+04  0.7818608E-02  0.8307567E-01
          2   -1    0    0  501    0  0.00000000000E+00  0.00000000000E+00  0.16668998671E+04  0.16668998671E+04  0.00000000000E+00 0. -1.
         -2   -1    0    0    0  501 -0.00000000000E+00 -0.00000000000E+00 -0.11642702181E+04  0.11642702181E+04  0.00000000000E+00 0.  1.
         23    2    1    2    0    0 -0.74994918531E+03 -0.73928356014E+03 -0.67261265869E+03  0.12531464970E+04  0.94891472389E+02 0.  0.
         11    1    3    3    0    0 -0.11009119366E+03 -0.65983246435E+02 -0.88520203069E+02  0.15591563771E+03  0.00000000000E+00 0.  1.
        -11    1    3    3    0    0 -0.63985799165E+03 -0.67330031371E+03 -0.58409245563E+03  0.10972308593E+04  0.00000000000E+00 0. -1.
         22    1    1    2    0    0  0.74994918531E+03  0.73928356014E+03  0.11752423078E+04  0.15780235882E+04  0.00000000000E+00 0. -1.
<mgrwt>
<rscale>  0 0.27861959E+04</rscale>
<asrwt>0</asrwt>
<pdfrwt beam="1">  1        2 0.25644613E+00 0.27861959E+04</pdfrwt>
<pdfrwt beam="2">  1       -2 0.17911849E+00 0.27861959E+04</pdfrwt>
<totfact> 0.16394384E+00</totfact>
</mgrwt>
</event>
<event>
 6    1  0.1585031E-006  0.3373294E+04  0.7818608E-02  0.8144492E-01
          1   -1    0    0  501    0  0.00000000000E+00  0.00000000000E+00  0.42308751757E+04  0.42308751757E+04  0.00000000000E+00 0. -1.
         -1   -1    0    0    0  501 -0.00000000000E+00 -0.00000000000E+00 -0.67238534753E+03  0.67238534753E+03  0.00000000000E+00 0.  1.
         23    2    1    2    0    0  0.44410116089E+03 -0.72198738276E+03  0.38979991787E+04  0.39901569031E+04  0.91993980135E+02 0.  0.
         11    1    3    3    0    0  0.31642288920E+03 -0.58643511566E+03  0.30294692765E+04  0.31018887289E+04  0.00000000000E+00 0.  1.
        -11    1    3    3    0    0  0.12767827169E+03 -0.13555226711E+03  0.86852990224E+03  0.88826817418E+03  0.00000000000E+00 0. -1.
         22    1    1    2    0    0 -0.44410116089E+03  0.72198738276E+03 -0.33950935052E+03  0.91310362011E+03  0.00000000000E+00 0.  1.
<mgrwt>
<rscale>  0 0.33732942E+04</rscale>
<asrwt>0</asrwt>
<pdfrwt beam="1">  1        1 0.65090386E+00 0.33732942E+04</pdfrwt>
<pdfrwt beam="2">  1       -1 0.10344390E+00 0.33732942E+04</pdfrwt>
<totfact> 0.42900003E-02</totfact>
</mgrwt>
</event>
<event>
 6    1  0.1585031E-006  0.2560563E+04  0.7818608E-02  0.8381722E-01
         -1   -1    0    0    0  501 -0.00000000000E+00  0.00000000000E+00  0.91429380117E+03  0.91429380117E+03  0.00000000000E+00 0.  1.
          1   -1    0    0  501    0  0.00000000000E+00 -0.00000000000E+00 -0.17927719087E+04  0.17927719087E+04  0.00000000000E+00 0. -1.
         23    2    1    2    0    0  0.13650256093E+03 -0.37419819267E+03 -0.17243432283E+04  0.17721084707E+04  0.91387232658E+02 0.  0.
         13    1    3    3    0    0  0.47367083802E+02 -0.21491949549E+03 -0.10916820824E+04  0.11136443774E+04  0.00000000000E+00 0.  1.
        -13    1    3    3    0    0  0.89135477128E+02 -0.15927869718E+03 -0.63266114591E+03  0.65846409333E+03  0.00000000000E+00 0. -1.
         22    1    1    2    0    0 -0.13650256093E+03  0.37419819267E+03  0.84586512079E+03  0.93495723918E+03  0.00000000000E+00 0.  1.
<mgrwt>
<rscale>  0 0.25605626E+04</rscale>
<asrwt>0</asrwt>
<pdfrwt beam="1">  1        1 0.27581106E+00 0.25605626E+04</pdfrwt>
<pdfrwt beam="2">  1       -1 0.14066059E+00 0.25605626E+04</pdfrwt>
<totfact> 0.15075409E+00</totfact>
</mgrwt>
</event>
<event>
 6    1  0.1585031E-006  0.4313869E+04  0.7818608E-02  0.7944059E-01
          2   -1    0    0  501    0  0.00000000000E+00  0.00000000000E+00  0.26231965998E+04  0.26231965998E+04  0.00000000000E+00 0. -1.
         -2   -1    0    0    0  501 -0.00000000000E+00 -0.00000000000E+00 -0.17735485933E+04  0.17735485933E+04  0.00000000000E+00 0.  1.
         23    2    1    2    0    0 -0.15404068613E+03  0.98381992585E+03  0.23739871505E+04  0.25759651390E+04  0.90284147089E+02 0.  0.
         13    1    3    3    0    0 -0.10921138612E+03  0.56334769821E+03  0.14674253104E+04  0.15756347285E+04  0.00000000000E+00 0. -1.
        -13    1    3    3    0    0 -0.44829300005E+02  0.42047222764E+03  0.90656184012E+03  0.10003304106E+04  0.00000000000E+00 0.  1.
         22    1    1    2    0    0  0.15404068613E+03 -0.98381992585E+03 -0.15243391440E+04  0.18207800541E+04  0.00000000000E+00 0.  1.
<mgrwt>
<rscale>  0 0.43138691E+04</rscale>
<asrwt>0</asrwt>
<pdfrwt beam="1">  1        2 0.40356871E+00 0.43138691E+04</pdfrwt>
<pdfrwt beam="2">  1       -2 0.27285363E+00 0.43138691E+04</pdfrwt>
<totfact> 0.10560810E-01</totfact>
</mgrwt>
</event>
<event>
 6    1  0.1585031E-006  0.3409653E+04  0.7818608E-02  0.8135541E-01
          2   -1    0    0  501    0  0.00000000000E+00  0.00000000000E+00  0.30192746053E+04  0.30192746053E+04  0.00000000000E+00 0. -1.
         -2   -1    0    0    0  501 -0.00000000000E+00 -0.00000000000E+00 -0.96262661642E+03  0.96262661642E+03  0.00000000000E+00 0.  1.
         23    2    1    2    0    0  0.64607799275E+03  0.11349557699E+04  0.23068244513E+04  0.26521908643E+04  0.84474607563E+02 0.  0.
         11    1    3    3    0    0  0.13151820204E+03  0.23532845482E+03  0.40976584824E+03  0.49049420945E+03  0.00000000000E+00 0. -1.
        -11    1    3    3    0    0  0.51455979071E+03  0.89962731509E+03  0.18970586031E+04  0.21616966549E+04  0.00000000000E+00 0.  1.
         22    1    1    2    0    0 -0.64607799275E+03 -0.11349557699E+04 -0.25017646238E+03  0.13297103574E+04  0.00000000000E+00 0.  1.
<mgrwt>
<rscale>  0 0.34096534E+04</rscale>
<asrwt>0</asrwt>
<pdfrwt beam="1">  1        2 0.46450378E+00 0.34096534E+04</pdfrwt>
<pdfrwt beam="2">  1       -2 0.14809640E+00 0.34096534E+04</pdfrwt>
<totfact> 0.43408418E-01</totfact>
</mgrwt>
</event>
<event>
 6    1  0.1585031E-006  0.3071677E+04  0.7818608E-02  0.8223554E-01
          1   -1    0    0  501    0  0.00000000000E+00  0.00000000000E+00  0.33269985036E+04  0.33269985036E+04  0.00000000000E+00 0. -1.
         -1   -1    0    0    0  501 -0.00000000000E+00 -0.00000000000E+00 -0.70898752003E+03  0.70898752003E+03  0.00000000000E+00 0.  1.
         23    2    1    2    0    0 -0.14754721786E+04  0.18078264106E+03  0.18104596726E+04  0.23442887597E+04  0.90692057819E+02 0.  0.
         13    1    3    3    0    0 -0.23805728367E+03 -0.30146577274E+01  0.27543081145E+03  0.36406385479E+03  0.00000000000E+00 0.  1.
        -13    1    3    3    0    0 -0.12374148949E+04  0.18379729878E+03  0.15350288612E+04  0.19802249049E+04  0.00000000000E+00 0. -1.
         22    1    1    2    0    0  0.14754721786E+04 -0.18078264106E+03  0.80755131099E+03  0.16916972640E+04  0.00000000000E+00 0.  1.
<mgrwt>
<rscale>  0 0.30716773E+04</rscale>
<asrwt>0</asrwt>
<pdfrwt beam="1">  1        1 0.51184591E+00 0.30716773E+04</pdfrwt>
<pdfrwt beam="2">  1       -1 0.10907501E+00 0.30716773E+04</pdfrwt>
<totfact> 0.22406154E-01</totfact>
</mgrwt>
</event>
<event>
 6    1  0.1585031E-006  0.2748287E+04  0.7818608E-02  0.8319505E-01
          2   -1    0    0  501    0  0.00000000000E+00  0.00000000000E+00  0.11448544277E+04  0.11448544277E+04  0.00000000000E+00 0. -1.
         -2   -1    0    0    0  501 -0.00000000000E+00 -0.00000000000E+00 -0.16493543713E+04  0.16493543713E+04  0.00000000000E+00 0.  1.
         23    2    1    2    0    0 -0.60243540807E+03 -0.71293487459E+03  0.77071434433E+03  0.12138999569E+04  0.91367109059E+02 0.  0.
         11    1    3    3    0    0 -0.43322189922E+03 -0.44646779647E+03  0.51897922686E+03  0.81015686454E+03  0.00000000000E+00 0. -1.
        -11    1    3    3    0    0 -0.16921350885E+03 -0.26646707813E+03  0.25173511747E+03  0.40374309241E+03  0.00000000000E+00 0.  1.
         22    1    1    2    0    0  0.60243540807E+03  0.71293487459E+03 -0.12752142879E+04  0.15803088421E+04  0.00000000000E+00 0.  1.
<mgrwt>
<rscale>  0 0.27482872E+04</rscale>
<asrwt>0</asrwt>
<pdfrwt beam="1">  1        2 0.17613145E+00 0.27482872E+04</pdfrwt>
<pdfrwt beam="2">  1       -2 0.25374683E+00 0.27482872E+04</pdfrwt>
<totfact> 0.10889544E+00</totfact>
</mgrwt>
</event>
<event>
 6    1  0.1585031E-006  0.5507328E+03  0.7818608E-02  0.1001324E+00
          1   -1    0    0  501    0  0.00000000000E+00  0.00000000000E+00  0.59152178944E+03  0.59152178944E+03  0.00000000000E+00 0. -1.
         -1   -1    0    0    0  501 -0.00000000000E+00 -0.00000000000E+00 -0.12818910320E+03  0.12818910320E+03  0.00000000000E+00 0.  1.
         23    2    1    2    0    0 -0.10159779996E+03  0.18707357925E+03  0.26599170330E+02  0.23385618089E+03  0.93072877196E+02 0.  0.
         11    1    3    3    0    0 -0.27466823145E+02  0.10208281298E+03  0.52664618976E+02  0.11810541550E+03  0.00000000000E+00 0. -1.
        -11    1    3    3    0    0 -0.74130976819E+02  0.84990766267E+02 -0.26065448646E+02  0.11575076539E+03  0.00000000000E+00 0.  1.
         22    1    1    2    0    0  0.10159779996E+03 -0.18707357925E+03  0.43673351591E+03  0.48585471175E+03  0.00000000000E+00 0. -1.
<mgrwt>
<rscale>  0 0.55073278E+03</rscale>
<asrwt>0</asrwt>
<pdfrwt beam="1">  1        1 0.91003351E-01 0.55073278E+03</pdfrwt>
<pdfrwt beam="2">  1       -1 0.19721401E-01 0.55073278E+03</pdfrwt>
<totfact> 0.73770007E+02</totfact>
</mgrwt>
</event>
<event>
 6    1  0.1585031E-006  0.2524584E+04  0.7818608E-02  0.8394279E-01
         -1   -1    0    0    0  501 -0.00000000000E+00  0.00000000000E+00  0.14707326760E+04  0.14707326760E+04  0.00000000000E+00 0. -1.
          1   -1    0    0  501    0  0.00000000000E+00 -0.00000000000E+00 -0.10833924047E+04  0.10833924047E+04  0.00000000000E+00 0.  1.
         23    2    1    2    0    0 -0.88611146884E+03 -0.30866065876E+03 -0.65769382213E+03  0.11496461048E+04  0.93059470507E+02 0.  0.
         11    1    3    3    0    0 -0.66683318672E+03 -0.18899066256E+03 -0.47944569332E+03  0.84276458296E+03  0.00000000000E+00 0.  1.
        -11    1    3    3    0    0 -0.21927828212E+03 -0.11966999620E+03 -0.17824812881E+03  0.30688152181E+03  0.00000000000E+00 0. -1.
         22    1    1    2    0    0  0.88611146884E+03  0.30866065876E+03  0.10450340934E+04  0.14044789759E+04  0.00000000000E+00 0. -1.
<mgrwt>
<rscale>  0 0.25245836E+04</rscale>
<asrwt>0</asrwt>
<pdfrwt beam="1">  1        1 0.16667576E+00 0.25245836E+04</pdfrwt>
<pdfrwt beam="2">  1       -1 0.22626656E+00 0.25245836E+04</pdfrwt>
<totfact> 0.11562449E+00</totfact>
</mgrwt>
</event>
<event>
 6    1  0.1585031E-006  0.2046847E+04  0.7818608E-02  0.8585026E-01
          1   -1    0    0  501    0  0.00000000000E+00  0.00000000000E+00  0.23006470041E+04  0.23006470041E+04  0.00000000000E+00 0. -1.
         -1   -1    0    0    0  501 -0.00000000000E+00 -0.00000000000E+00 -0.45526146757E+03  0.45526146757E+03  0.00000000000E+00 0.  1.
         23    2    1    2    0    0  0.74322735185E+03  0.32884555132E+03  0.17573695422E+04  0.19384287420E+04  0.92908485807E+02 0.  0.
         11    1    3    3    0    0  0.23000501280E+03  0.94222560869E+02  0.64187465614E+03  0.68831916367E+03  0.00000000000E+00 0. -1.
        -11    1    3    3    0    0  0.51322233905E+03  0.23462299046E+03  0.11154948861E+04  0.12501095783E+04  0.00000000000E+00 0.  1.
         22    1    1    2    0    0 -0.74322735185E+03 -0.32884555132E+03  0.88015994319E+02  0.81747972967E+03  0.00000000000E+00 0.  1.
<mgrwt>
<rscale>  0 0.20468473E+04</rscale>
<asrwt>0</asrwt>
<pdfrwt beam="1">  1        1 0.35394569E+00 0.20468473E+04</pdfrwt>
<pdfrwt beam="2">  1       -1 0.70040227E-01 0.20468473E+04</pdfrwt>
<totfact> 0.35403656E+00</totfact>
</mgrwt>
</event>
<event>
 6    1  0.1585031E-006  0.3360231E+04  0.7818608E-02  0.8147736E-01
         -2   -1    0    0    0  501 -0.00000000000E+00  0.00000000000E+00  0.82397572480E+03  0.82397572480E+03  0.00000000000E+00 0.  1.
          2   -1    0    0  501    0  0.00000000000E+00 -0.00000000000E+00 -0.34258149261E+04  0.34258149261E+04  0.00000000000E+00 0. -1.
         23    2    1    2    0    0 -0.12729928554E+04 -0.14927969761E+03 -0.26732966179E+04  0.29660845318E+04  0.91364132653E+02 0.  0.
         11    1    3    3    0    0 -0.76991865510E+03 -0.49449597019E+02 -0.16491629706E+04  0.18207027494E+04  0.00000000000E+00 0. -1.
        -11    1    3    3    0    0 -0.50307420025E+03 -0.99830100589E+02 -0.10241336473E+04  0.11453817824E+04  0.00000000000E+00 0.  1.
         22    1    1    2    0    0  0.12729928554E+04  0.14927969761E+03  0.71457416548E+02  0.12837061191E+04  0.00000000000E+00 0.  1.
<mgrwt>
<rscale>  0 0.33602311E+04</rscale>
<asrwt>0</asrwt>
<pdfrwt beam="1">  1        2 0.52704845E+00 0.33602311E+04</pdfrwt>
<pdfrwt beam="2">  1       -2 0.12676550E+00 0.33602311E+04</pdfrwt>
<totfact> 0.35163500E-01</totfact>
</mgrwt>
</event>
<event>
 6    1  0.1585031E-006  0.1297428E+04  0.7818608E-02  0.9031607E-01
          1   -1    0    0  501    0  0.00000000000E+00  0.00000000000E+00  0.29592437755E+03  0.29592437755E+03  0.00000000000E+00 0. -1.
         -1   -1    0    0    0  501 -0.00000000000E+00 -0.00000000000E+00 -0.14220858210E+04  0.14220858210E+04  0.00000000000E+00 0.  1.
         23    2    1    2    0    0  0.55673985304E+03  0.19971380016E+03 -0.22389196261E+03  0.63915196783E+03  0.92427058346E+02 0.  0.
         13    1    3    3    0    0  0.30579845949E+03  0.61454405523E+02 -0.10777310455E+03  0.33000664213E+03  0.00000000000E+00 0. -1.
        -13    1    3    3    0    0  0.25094139355E+03  0.13825939463E+03 -0.11611885806E+03  0.30914532569E+03  0.00000000000E+00 0.  1.
         22    1    1    2    0    0 -0.55673985304E+03 -0.19971380016E+03 -0.90226948080E+03  0.10788582307E+04  0.00000000000E+00 0.  1.
<mgrwt>
<rscale>  0 0.12974280E+04</rscale>
<asrwt>0</asrwt>
<pdfrwt beam="1">  1        1 0.45526828E-01 0.12974280E+04</pdfrwt>
<pdfrwt beam="2">  1       -1 0.21878243E+00 0.12974280E+04</pdfrwt>
<totfact> 0.98404114E+00</totfact>
</mgrwt>
</event>
<event>
 6    1  0.1585031E-006  0.1528801E+04  0.7818608E-02  0.8865523E-01
          1   -1    0    0  501    0  0.00000000000E+00  0.00000000000E+00  0.65374075831E+03  0.65374075831E+03  0.00000000000E+00 0. -1.
         -1   -1    0    0    0  501 -0.00000000000E+00 -0.00000000000E+00 -0.89379160312E+03  0.89379160312E+03  0.00000000000E+00 0.  1.
         23    2    1    2    0    0 -0.69074728651E+03  0.30514784311E+03 -0.18790008049E+02  0.76063759219E+03  0.89271844819E+02 0.  0.
         13    1    3    3    0    0 -0.81267091849E+02  0.28021204695E+02  0.25452300232E+02  0.89651256083E+02  0.00000000000E+00 0. -1.
        -13    1    3    3    0    0 -0.60948019466E+03  0.27712663841E+03 -0.44242308281E+02  0.67098633611E+03  0.00000000000E+00 0.  1.
         22    1    1    2    0    0  0.69074728651E+03 -0.30514784311E+03 -0.22126083675E+03  0.78689476924E+03  0.00000000000E+00 0. -1.
<mgrwt>
<rscale>  0 0.15288008E+04</rscale>
<asrwt>0</asrwt>
<pdfrwt beam="1">  1        1 0.10057550E+00 0.15288008E+04</pdfrwt>
<pdfrwt beam="2">  1       -1 0.13750640E+00 0.15288008E+04</pdfrwt>
<totfact> 0.12804668E+01</totfact>
</mgrwt>
</event>
<event>
 6    1  0.1585031E-006  0.1942141E+04  0.7818608E-02  0.8634160E-01
          1   -1    0    0  501    0  0.00000000000E+00  0.00000000000E+00  0.48212638829E+03  0.48212638829E+03  0.00000000000E+00 0. -1.
         -1   -1    0    0    0  501 -0.00000000000E+00 -0.00000000000E+00 -0.19558727128E+04  0.19558727128E+04  0.00000000000E+00 0.  1.
         23    2    1    2    0    0 -0.23629969288E+03 -0.50351192343E+03  0.25742250196E+03  0.61967368806E+03  0.91473128660E+02 0.  0.
         13    1    3    3    0    0 -0.22790925899E+03 -0.41363566593E+03  0.23024246276E+03  0.52540335564E+03  0.00000000000E+00 0. -1.
        -13    1    3    3    0    0 -0.83904338890E+01 -0.89876257502E+02  0.27180039203E+02  0.94270332420E+02  0.00000000000E+00 0.  1.
         22    1    1    2    0    0  0.23629969288E+03  0.50351192343E+03 -0.17311688265E+04  0.18183254131E+04  0.00000000000E+00 0.  1.
<mgrwt>
<rscale>  0 0.19421409E+04</rscale>
<asrwt>0</asrwt>
<pdfrwt beam="1">  1        1 0.74173291E-01 0.19421409E+04</pdfrwt>
<pdfrwt beam="2">  1       -1 0.30090349E+00 0.19421409E+04</pdfrwt>
<totfact> 0.14167506E+00</totfact>
</mgrwt>
</event>
<event>
 6    1  0.1585031E-006  0.3919575E+04  0.7818608E-02  0.8020970E-01
         -1   -1    0    0    0  501 -0.00000000000E+00  0.00000000000E+00  0.15364630811E+04  0.15364630811E+04  0.00000000000E+00 0.  1.
          1   -1    0    0  501    0  0.00000000000E+00 -0.00000000000E+00 -0.24997457318E+04  0.24997457318E+04  0.00000000000E+00 0. -1.
         23    2    1    2    0    0  0.88800828992E+03 -0.13922290132E+04  0.60299539199E+03  0.17602283087E+04  0.89106160543E+02 0.  0.
         13    1    3    3    0    0  0.11704362107E+03 -0.14280293422E+03  0.48944349073E+02  0.19101684889E+03  0.00000000000E+00 0.  1.
        -13    1    3    3    0    0  0.77096466885E+03 -0.12494260790E+04  0.55405104291E+03  0.15692114598E+04  0.00000000000E+00 0. -1.
         22    1    1    2    0    0 -0.88800828992E+03  0.13922290132E+04 -0.15662780427E+04  0.22759805041E+04  0.00000000000E+00 0. -1.
<mgrwt>
<rscale>  0 0.39195750E+04</rscale>
<asrwt>0</asrwt>
<pdfrwt beam="1">  1        1 0.38457626E+00 0.39195750E+04</pdfrwt>
<pdfrwt beam="2">  1       -1 0.23637894E+00 0.39195750E+04</pdfrwt>
<totfact> 0.91448671E-02</totfact>
</mgrwt>
</event>
<event>
 6    1  0.1585031E-006  0.1833508E+04  0.7818608E-02  0.8688681E-01
         -1   -1    0    0    0  501 -0.00000000000E+00  0.00000000000E+00  0.85860737261E+03  0.85860737261E+03  0.00000000000E+00 0.  1.
          1   -1    0    0  501    0  0.00000000000E+00 -0.00000000000E+00 -0.97883806613E+03  0.97883806613E+03  0.00000000000E+00 0. -1.
         23    2    1    2    0    0  0.21963894022E+03  0.44713634502E+03 -0.82883007994E+03  0.97125535248E+03  0.90584122329E+02 0.  0.
         13    1    3    3    0    0  0.35502049304E+02  0.10341618831E+03 -0.25523839503E+03  0.27767236414E+03  0.00000000000E+00 0. -1.
        -13    1    3    3    0    0  0.18413689091E+03  0.34372015670E+03 -0.57359168491E+03  0.69358298834E+03  0.00000000000E+00 0.  1.
         22    1    1    2    0    0 -0.21963894022E+03 -0.44713634502E+03  0.70859938642E+03  0.86619008626E+03  0.00000000000E+00 0.  1.
<mgrwt>
<rscale>  0 0.18335077E+04</rscale>
<asrwt>0</asrwt>
<pdfrwt beam="1">  1        1 0.15059047E+00 0.18335077E+04</pdfrwt>
<pdfrwt beam="2">  1       -1 0.13209344E+00 0.18335077E+04</pdfrwt>
<totfact> 0.72052761E+00</totfact>
</mgrwt>
</event>
<event>
 6    1  0.1585031E-006  0.3253499E+04  0.7818608E-02  0.8174829E-01
         -1   -1    0    0    0  501 -0.00000000000E+00  0.00000000000E+00  0.11352153411E+04  0.11352153411E+04  0.00000000000E+00 0.  1.
          1   -1    0    0  501    0  0.00000000000E+00 -0.00000000000E+00 -0.23311123464E+04  0.23311123464E+04  0.00000000000E+00 0. -1.
         23    2    1    2    0    0 -0.18107162764E+03  0.15902167784E+04 -0.29628236912E+03  0.16303312740E+04  0.92846563040E+02 0.  0.
         13    1    3    3    0    0 -0.67200085066E+02  0.46792379804E+03 -0.46953248195E+02  0.47505067069E+03  0.00000000000E+00 0. -1.
        -13    1    3    3    0    0 -0.11387154258E+03  0.11222929803E+04 -0.24932912093E+03  0.11552806033E+04  0.00000000000E+00 0.  1.
         22    1    1    2    0    0  0.18107162764E+03 -0.15902167784E+04 -0.89961463618E+03  0.18359964134E+04  0.00000000000E+00 0. -1.
<mgrwt>
<rscale>  0 0.32534993E+04</rscale>
<asrwt>0</asrwt>
<pdfrwt beam="1">  1        1 0.35863267E+00 0.32534993E+04</pdfrwt>
<pdfrwt beam="2">  1       -1 0.17464851E+00 0.32534993E+04</pdfrwt>
<totfact> 0.33572140E-01</totfact>
</mgrwt>
</event>
<event>
 6    1  0.1585031E-006  0.3844504E+04  0.7818608E-02  0.8036671E-01
          2   -1    0    0  501    0  0.00000000000E+00  0.00000000000E+00  0.29404099378E+04  0.29404099378E+04  0.00000000000E+00 0. -1.
         -2   -1    0    0    0  501 -0.00000000000E+00 -0.00000000000E+00 -0.12566453685E+04  0.12566453685E+04  0.00000000000E+00 0.  1.
         23    2    1    2    0    0  0.47291259131E+03 -0.77257473817E+02  0.28735349140E+04  0.29144140823E+04  0.83615217805E+02 0.  0.
         11    1    3    3    0    0  0.34378038934E+03 -0.58437254117E+02  0.18482976185E+04  0.18809050894E+04  0.00000000000E+00 0. -1.
        -11    1    3    3    0    0  0.12913220196E+03 -0.18820219699E+02  0.10252372956E+04  0.10335089929E+04  0.00000000000E+00 0.  1.
         22    1    1    2    0    0 -0.47291259131E+03  0.77257473817E+02 -0.11897703447E+04  0.12826412240E+04  0.00000000000E+00 0.  1.
<mgrwt>
<rscale>  0 0.38445039E+04</rscale>
<asrwt>0</asrwt>
<pdfrwt beam="1">  1        2 0.45237076E+00 0.38445039E+04</pdfrwt>
<pdfrwt beam="2">  1       -2 0.19333006E+00 0.38445039E+04</pdfrwt>
<totfact> 0.22300213E-01</totfact>
</mgrwt>
</event>
<event>
 6    1  0.1585031E-006  0.4975236E+04  0.7818608E-02  0.7832339E-01
         -1   -1    0    0    0  501 -0.00000000000E+00  0.00000000000E+00  0.45721536348E+04  0.45721536348E+04  0.00000000000E+00 0.  1.
          1   -1    0    0  501    0  0.00000000000E+00 -0.00000000000E+00 -0.13534633317E+04  0.13534633317E+04  0.00000000000E+00 0. -1.
         23    2    1    2    0    0  0.23226241850E+04  0.22757695679E+03  0.26327047698E+04  0.35194263213E+04  0.94089585597E+02 0.  0.
         13    1    3    3    0    0  0.16989499024E+04  0.19846826956E+03  0.19687209130E+04  0.26080035387E+04  0.00000000000E+00 0.  1.
        -13    1    3    3    0    0  0.62367428255E+03  0.29108687231E+02  0.66398385680E+03  0.91142278251E+03  0.00000000000E+00 0. -1.
         22    1    1    2    0    0 -0.23226241850E+04 -0.22757695679E+03  0.58598553335E+03  0.24061906452E+04  0.00000000000E+00 0. -1.
<mgrwt>
<rscale>  0 0.49752356E+04</rscale>
<asrwt>0</asrwt>
<pdfrwt beam="1">  1        1 0.20822513E+00 0.49752356E+04</pdfrwt>
<pdfrwt beam="2">  1       -1 0.70340825E+00 0.49752356E+04</pdfrwt>
<totfact> 0.11779195E-03</totfact>
</mgrwt>
</event>
<event>
 6    1  0.1585031E-006  0.1547309E+04  0.7818608E-02  0.8853588E-01
         -1   -1    0    0    0  501 -0.00000000000E+00  0.00000000000E+00  0.91857648737E+03  0.91857648737E+03  0.00000000000E+00 0. -1.
          1   -1    0    0  501    0  0.00000000000E+00 -0.00000000000E+00 -0.65159682151E+03  0.65159682151E+03  0.00000000000E+00 0.  1.
         23    2    1    2    0    0  0.18051368286E+03 -0.71767983420E+03  0.35326415475E+03  0.82512663440E+03  0.91590750861E+02 0.  0.
         13    1    3    3    0    0  0.92127297015E+02 -0.49074117669E+03  0.20330037773E+03  0.53911537257E+03  0.00000000000E+00 0.  1.
        -13    1    3    3    0    0  0.88386385843E+02 -0.22693865751E+03  0.14996377702E+03  0.28601126183E+03  0.00000000000E+00 0. -1.
         22    1    1    2    0    0 -0.18051368286E+03  0.71767983420E+03 -0.86284488894E+02  0.74504667447E+03  0.00000000000E+00 0.  1.
<mgrwt>
<rscale>  0 0.15473093E+04</rscale>
<asrwt>0</asrwt>
<pdfrwt beam="1">  1        1 0.10024566E+00 0.15473093E+04</pdfrwt>
<pdfrwt beam="2">  1       -1 0.14131946E+00 0.15473093E+04</pdfrwt>
<totfact> 0.11961092E+01</totfact>
</mgrwt>
</event>
<event>
 6    1  0.1585031E-006  0.1038669E+04  0.7818608E-02  0.9267122E-01
          2   -1    0    0  501    0  0.00000000000E+00  0.00000000000E+00  0.32870438589E+04  0.32870438589E+04  0.00000000000E+00 0. -1.
         -2   -1    0    0    0  501 -0.00000000000E+00 -0.00000000000E+00 -0.82051889532E+02  0.82051889532E+02  0.00000000000E+00 0.  1.
         23    2    1    2    0    0 -0.37501855431E+02  0.10048863533E+03  0.32497932217E+04  0.32528567395E+04  0.91742186671E+02 0.  0.
         13    1    3    3    0    0  0.28413433568E+02  0.12575531441E+02  0.64883938965E+03  0.64958295911E+03  0.00000000000E+00 0. -1.
        -13    1    3    3    0    0 -0.65915288999E+02  0.87913103892E+02  0.26009538320E+04  0.26032737804E+04  0.00000000000E+00 0.  1.
         22    1    1    2    0    0  0.37501855431E+02 -0.10048863533E+03 -0.44801252328E+02  0.11623900895E+03  0.00000000000E+00 0.  1.
<mgrwt>
<rscale>  0 0.10386687E+04</rscale>
<asrwt>0</asrwt>
<pdfrwt beam="1">  1        2 0.50569895E+00 0.10386687E+04</pdfrwt>
<pdfrwt beam="2">  1       -2 0.12623370E-01 0.10386687E+04</pdfrwt>
<totfact> 0.54703905E+01</totfact>
</mgrwt>
</event>
<event>
 6    1  0.1585031E-006  0.3340249E+04  0.7818608E-02  0.8152729E-01
         -2   -1    0    0    0  501 -0.00000000000E+00  0.00000000000E+00  0.21869611393E+04  0.21869611393E+04  0.00000000000E+00 0.  1.
          2   -1    0    0  501    0  0.00000000000E+00 -0.00000000000E+00 -0.12754302549E+04  0.12754302549E+04  0.00000000000E+00 0. -1.
         23    2    1    2    0    0  0.13148147745E+04  0.49238846224E+03 -0.47915039394E+03  0.14862388933E+04  0.90203430196E+02 0.  0.
         13    1    3    3    0    0  0.72192614459E+03  0.24419504484E+03 -0.22007408441E+03  0.79324723813E+03  0.00000000000E+00 0. -1.
        -13    1    3    3    0    0  0.59288862992E+03  0.24819341739E+03 -0.25907630953E+03  0.69299165513E+03  0.00000000000E+00 0.  1.
         22    1    1    2    0    0 -0.13148147745E+04 -0.49238846224E+03  0.13906812783E+04  0.19761525009E+04  0.00000000000E+00 0.  1.
<mgrwt>
<rscale>  0 0.33402493E+04</rscale>
<asrwt>0</asrwt>
<pdfrwt beam="1">  1        2 0.19622004E+00 0.33402493E+04</pdfrwt>
<pdfrwt beam="2">  1       -2 0.33645556E+00 0.33402493E+04</pdfrwt>
<totfact> 0.26909186E-01</totfact>
</mgrwt>
</event>
<event>
 6    1  0.1585031E-006  0.3014730E+03  0.7818608E-02  0.1084507E+00
         -2   -1    0    0    0  501 -0.00000000000E+00  0.00000000000E+00  0.42262213407E+02  0.42262213407E+02  0.00000000000E+00 0.  1.
          2   -1    0    0  501    0  0.00000000000E+00 -0.00000000000E+00 -0.53763131215E+03  0.53763131215E+03  0.00000000000E+00 0. -1.
         23    2    1    2    0    0  0.32856962410E+02  0.59912391277E+02 -0.49871533059E+03  0.51148101299E+03  0.90701549468E+02 0.  0.
         11    1    3    3    0    0  0.29571157365E+01 -0.23802325321E+02 -0.84744858017E+02  0.88073754232E+02  0.00000000000E+00 0.  1.
        -11    1    3    3    0    0  0.29899846673E+02  0.83714716598E+02 -0.41397047258E+03  0.42340725876E+03  0.00000000000E+00 0. -1.
         22    1    1    2    0    0 -0.32856962410E+02 -0.59912391277E+02  0.33462318540E+01  0.68412512561E+02  0.00000000000E+00 0.  1.
<mgrwt>
<rscale>  0 0.30147298E+03</rscale>
<asrwt>0</asrwt>
<pdfrwt beam="1">  1        2 0.82712502E-01 0.30147298E+03</pdfrwt>
<pdfrwt beam="2">  1       -2 0.65018796E-02 0.30147298E+03</pdfrwt>
<totfact> 0.74831946E+03</totfact>
</mgrwt>
</event>
<event>
 6    1  0.1585031E-006  0.3165463E+04  0.7818608E-02  0.8197998E-01
          3   -1    0    0  501    0  0.00000000000E+00  0.00000000000E+00  0.26425586631E+04  0.26425586631E+04  0.00000000000E+00 0. -1.
         -3   -1    0    0    0  501 -0.00000000000E+00 -0.00000000000E+00 -0.94795957310E+03  0.94795957310E+03  0.00000000000E+00 0.  1.
         23    2    1    2    0    0  0.45567121161E+03 -0.60797923295E+03  0.24215785084E+04  0.25389603083E+04  0.70724635371E+02 0.  0.
         11    1    3    3    0    0  0.24126345227E+03 -0.36057752294E+03  0.12920330053E+04  0.13629282777E+04  0.00000000000E+00 0. -1.
        -11    1    3    3    0    0  0.21440775934E+03 -0.24740171001E+03  0.11295455031E+04  0.11760320306E+04  0.00000000000E+00 0.  1.
         22    1    1    2    0    0 -0.45567121161E+03  0.60797923295E+03 -0.72697941844E+03  0.10515579278E+04  0.00000000000E+00 0.  1.
<mgrwt>
<rscale>  0 0.31654629E+04</rscale>
<asrwt>0</asrwt>
<pdfrwt beam="1">  1        3 0.40654748E+00 0.31654629E+04</pdfrwt>
<pdfrwt beam="2">  1       -3 0.14583994E+00 0.31654629E+04</pdfrwt>
<totfact> 0.78014584E-03</totfact>
</mgrwt>
</event>
<event>
 6    1  0.1585031E-006  0.1370966E+04  0.7818608E-02  0.8975107E-01
          1   -1    0    0  501    0  0.00000000000E+00  0.00000000000E+00  0.29537354952E+04  0.29537354952E+04  0.00000000000E+00 0. -1.
         -1   -1    0    0    0  501 -0.00000000000E+00 -0.00000000000E+00 -0.15908229156E+03  0.15908229156E+03  0.00000000000E+00 0.  1.
         23    2    1    2    0    0  0.12672178467E+03  0.37835537579E+03  0.26606156670E+04  0.26918934915E+04  0.90573954110E+02 0.  0.
         13    1    3    3    0    0  0.53468464492E+02  0.16849038543E+03  0.89047684263E+03  0.90785290325E+03  0.00000000000E+00 0. -1.
        -13    1    3    3    0    0  0.73253320177E+02  0.20986499036E+03  0.17701388244E+04  0.17840405883E+04  0.00000000000E+00 0.  1.
         22    1    1    2    0    0 -0.12672178467E+03 -0.37835537579E+03  0.13403753665E+03  0.42092429524E+03  0.00000000000E+00 0.  1.
<mgrwt>
<rscale>  0 0.13709661E+04</rscale>
<asrwt>0</asrwt>
<pdfrwt beam="1">  1        1 0.45442080E+00 0.13709661E+04</pdfrwt>
<pdfrwt beam="2">  1       -1 0.24474201E-01 0.13709661E+04</pdfrwt>
<totfact> 0.92443038E+00</totfact>
</mgrwt>
</event>
<event>
 6    1  0.1585031E-006  0.3295593E+04  0.7818608E-02  0.8164018E-01
          2   -1    0    0  501    0  0.00000000000E+00  0.00000000000E+00  0.20574183557E+04  0.20574183557E+04  0.00000000000E+00 0. -1.
         -2   -1    0    0    0  501 -0.00000000000E+00 -0.00000000000E+00 -0.13197286128E+04  0.13197286128E+04  0.00000000000E+00 0.  1.
         23    2    1    2    0    0 -0.53145953885E+03 -0.94785177459E+03 -0.89844380385E+03  0.14130173366E+04  0.92436447895E+02 0.  0.
         11    1    3    3    0    0 -0.18194483203E+03 -0.37146400747E+03 -0.29227471585E+03  0.50647205280E+03  0.00000000000E+00 0. -1.
        -11    1    3    3    0    0 -0.34951470682E+03 -0.57638776713E+03 -0.60616908800E+03  0.90654528383E+03  0.00000000000E+00 0.  1.
         22    1    1    2    0    0  0.53145953885E+03  0.94785177459E+03  0.16361335467E+04  0.19641296319E+04  0.00000000000E+00 0. -1.
<mgrwt>
<rscale>  0 0.32955933E+04</rscale>
<asrwt>0</asrwt>
<pdfrwt beam="1">  1        2 0.31652590E+00 0.32955933E+04</pdfrwt>
<pdfrwt beam="2">  1       -2 0.20303517E+00 0.32955933E+04</pdfrwt>
<totfact> 0.65888047E-01</totfact>
</mgrwt>
</event>
<event>
 6    1  0.1585031E-006  0.2698335E+04  0.7818608E-02  0.8335545E-01
          1   -1    0    0  501    0  0.00000000000E+00  0.00000000000E+00  0.13950996537E+04  0.13950996537E+04  0.00000000000E+00 0. -1.
         -1   -1    0    0    0  501 -0.00000000000E+00 -0.00000000000E+00 -0.13047480356E+04  0.13047480356E+04  0.00000000000E+00 0.  1.
         23    2    1    2    0    0  0.36599641027E+03  0.10548284965E+04  0.80025443765E+03  0.13767533833E+04  0.91794248876E+02 0.  0.
         11    1    3    3    0    0  0.19511929843E+03  0.44144476519E+03  0.31777038909E+03  0.57786074578E+03  0.00000000000E+00 0. -1.
        -11    1    3    3    0    0  0.17087711184E+03  0.61338373127E+03  0.48248404856E+03  0.79889263750E+03  0.00000000000E+00 0.  1.
         22    1    1    2    0    0 -0.36599641027E+03 -0.10548284965E+04 -0.70990281954E+03  0.13230943060E+04  0.00000000000E+00 0.  1.
<mgrwt>
<rscale>  0 0.26983354E+04</rscale>
<asrwt>0</asrwt>
<pdfrwt beam="1">  1        1 0.21463072E+00 0.26983354E+04</pdfrwt>
<pdfrwt beam="2">  1       -1 0.20073047E+00 0.26983354E+04</pdfrwt>
<totfact> 0.10061221E+00</totfact>
</mgrwt>
</event>
<event>
 6    1  0.1585031E-006  0.1369604E+04  0.7818608E-02  0.8976120E-01
          2   -1    0    0  501    0  0.00000000000E+00  0.00000000000E+00  0.21084783744E+04  0.21084783744E+04  0.00000000000E+00 0. -1.
         -2   -1    0    0    0  501 -0.00000000000E+00 -0.00000000000E+00 -0.22241330326E+03  0.22241330326E+03  0.00000000000E+00 0.  1.
         23    2    1    2    0    0 -0.39545455789E+03  0.16959587581E+03  0.18472489462E+04  0.18988572345E+04  0.90460264401E+02 0.  0.
         13    1    3    3    0    0 -0.14834740839E+03  0.10776009465E+03  0.85438107637E+03  0.87383420351E+03  0.00000000000E+00 0. -1.
        -13    1    3    3    0    0 -0.24710714950E+03  0.61835781166E+02  0.99286786984E+03  0.10250230310E+04  0.00000000000E+00 0.  1.
         22    1    1    2    0    0  0.39545455789E+03 -0.16959587581E+03  0.38816124883E+02  0.43203444308E+03  0.00000000000E+00 0.  1.
<mgrwt>
<rscale>  0 0.13696038E+04</rscale>
<asrwt>0</asrwt>
<pdfrwt beam="1">  1        2 0.32438127E+00 0.13696038E+04</pdfrwt>
<pdfrwt beam="2">  1       -2 0.34217433E-01 0.13696038E+04</pdfrwt>
<totfact> 0.45403765E+01</totfact>
</mgrwt>
</event>
<event>
 6    1  0.1585031E-006  0.8689992E+03  0.7818608E-02  0.9465186E-01
          1   -1    0    0  501    0  0.00000000000E+00  0.00000000000E+00  0.31216004525E+03  0.31216004525E+03  0.00000000000E+00 0. -1.
         -1   -1    0    0    0  501 -0.00000000000E+00 -0.00000000000E+00 -0.60478559271E+03  0.60478559271E+03  0.00000000000E+00 0.  1.
         23    2    1    2    0    0 -0.34450805895E+03  0.42831101585E+02 -0.41501580186E+03  0.54884282581E+03  0.92032742545E+02 0.  0.
         11    1    3    3    0    0 -0.87615023804E+02  0.17580757685E+02 -0.17438493867E+03  0.19594790704E+03  0.00000000000E+00 0. -1.
        -11    1    3    3    0    0 -0.25689303515E+03  0.25250343900E+02 -0.24063086319E+03  0.35289491877E+03  0.00000000000E+00 0.  1.
         22    1    1    2    0    0  0.34450805895E+03 -0.42831101585E+02  0.12239025440E+03  0.36810281216E+03  0.00000000000E+00 0. -1.
<mgrwt>
<rscale>  0 0.86899919E+03</rscale>
<asrwt>0</asrwt>
<pdfrwt beam="1">  1        1 0.48024623E-01 0.86899919E+03</pdfrwt>
<pdfrwt beam="2">  1       -1 0.93043936E-01 0.86899919E+03</pdfrwt>
<totfact> 0.94306254E+01</totfact>
</mgrwt>
</event>
<event>
 6    1  0.1585031E-006  0.2377495E+04  0.7818608E-02  0.8447977E-01
         -1   -1    0    0    0  501 -0.00000000000E+00  0.00000000000E+00  0.22766890458E+04  0.22766890458E+04  0.00000000000E+00 0. -1.
          1   -1    0    0  501    0  0.00000000000E+00 -0.00000000000E+00 -0.62069128009E+03  0.62069128009E+03  0.00000000000E+00 0.  1.
         23    2    1    2    0    0  0.49424921983E+02 -0.77814555136E+03 -0.26136632423E+03  0.82754014476E+03  0.92504128206E+02 0.  0.
         11    1    3    3    0    0  0.66318971678E+02 -0.34876491783E+03 -0.10424458921E+03  0.37000284903E+03  0.00000000000E+00 0. -1.
        -11    1    3    3    0    0 -0.16894049695E+02 -0.42938063353E+03 -0.15712173502E+03  0.45753729573E+03  0.00000000000E+00 0.  1.
         22    1    1    2    0    0 -0.49424921983E+02  0.77814555136E+03  0.19173640899E+04  0.20698401811E+04  0.00000000000E+00 0. -1.
<mgrwt>
<rscale>  0 0.23774954E+04</rscale>
<asrwt>0</asrwt>
<pdfrwt beam="1">  1        1 0.95490967E-01 0.23774954E+04</pdfrwt>
<pdfrwt beam="2">  1       -1 0.35025985E+00 0.23774954E+04</pdfrwt>
<totfact> 0.45321320E-01</totfact>
</mgrwt>
</event>
<event>
 6    1  0.1585031E-006  0.2033754E+04  0.7818608E-02  0.8591000E-01
         -2   -1    0    0    0  501 -0.00000000000E+00  0.00000000000E+00  0.58861437795E+03  0.58861437795E+03  0.00000000000E+00 0.  1.
          2   -1    0    0  501    0  0.00000000000E+00 -0.00000000000E+00 -0.17567341569E+04  0.17567341569E+04  0.00000000000E+00 0. -1.
         23    2    1    2    0    0  0.12137348412E+02 -0.36447932206E+03 -0.16774084286E+04  0.17189561498E+04  0.90103924372E+02 0.  0.
         11    1    3    3    0    0  0.51052459955E+02 -0.23312547999E+03 -0.10642723470E+04  0.10907013669E+04  0.00000000000E+00 0. -1.
        -11    1    3    3    0    0 -0.38915111543E+02 -0.13135384207E+03 -0.61313608155E+03  0.62825478289E+03  0.00000000000E+00 0.  1.
         22    1    1    2    0    0 -0.12137348412E+02  0.36447932206E+03  0.50928864962E+03  0.62639238507E+03  0.00000000000E+00 0.  1.
<mgrwt>
<rscale>  0 0.20337541E+04</rscale>
<asrwt>0</asrwt>
<pdfrwt beam="1">  1        2 0.27026679E+00 0.20337541E+04</pdfrwt>
<pdfrwt beam="2">  1       -2 0.90556060E-01 0.20337541E+04</pdfrwt>
<totfact> 0.88032504E+00</totfact>
</mgrwt>
</event>
<event>
 6    1  0.1585031E-006  0.1600510E+04  0.7818608E-02  0.8820235E-01
         -2   -1    0    0    0  501 -0.00000000000E+00  0.00000000000E+00  0.46734071776E+03  0.46734071776E+03  0.00000000000E+00 0.  1.
          2   -1    0    0  501    0  0.00000000000E+00 -0.00000000000E+00 -0.13703234802E+04  0.13703234802E+04  0.00000000000E+00 0. -1.
         23    2    1    2    0    0 -0.28911069711E+03 -0.18783256654E+03  0.37287009273E+03  0.51604905872E+03  0.91697637472E+02 0.  0.
         13    1    3    3    0    0 -0.21406582680E+03 -0.93749060055E+02  0.27533847865E+03  0.36114310500E+03  0.00000000000E+00 0. -1.
        -13    1    3    3    0    0 -0.75044870303E+02 -0.94083506487E+02  0.97531614080E+02  0.15490595372E+03  0.00000000000E+00 0.  1.
         22    1    1    2    0    0  0.28911069711E+03  0.18783256654E+03 -0.12758528552E+04  0.13216151392E+04  0.00000000000E+00 0. -1.
<mgrwt>
<rscale>  0 0.16005099E+04</rscale>
<asrwt>0</asrwt>
<pdfrwt beam="1">  1        2 0.21081899E+00 0.16005099E+04</pdfrwt>
<pdfrwt beam="2">  1       -2 0.71898573E-01 0.16005099E+04</pdfrwt>
<totfact> 0.25297645E+01</totfact>
</mgrwt>
</event>
<event>
 6    1  0.1585031E-006  0.1315981E+04  0.7818608E-02  0.9016987E-01
          2   -1    0    0  501    0  0.00000000000E+00  0.00000000000E+00  0.34694963620E+04  0.34694963620E+04  0.00000000000E+00 0. -1.
         -2   -1    0    0    0  501 -0.00000000000E+00 -0.00000000000E+00 -0.12478798589E+03  0.12478798589E+03  0.00000000000E+00 0.  1.
         23    2    1    2    0    0 -0.49148555575E+03  0.28180505790E+03  0.78349993058E+03  0.97116390771E+03  0.91186908380E+02 0.  0.
         13    1    3    3    0    0 -0.21432812077E+03  0.14579783015E+03  0.28916927404E+03  0.38834574760E+03  0.00000000000E+00 0.  1.
        -13    1    3    3    0    0 -0.27715743498E+03  0.13600722775E+03  0.49433065654E+03  0.58281816011E+03  0.00000000000E+00 0. -1.
         22    1    1    2    0    0  0.49148555575E+03 -0.28180505790E+03  0.25612084455E+04  0.26231204401E+04  0.00000000000E+00 0.  1.
<mgrwt>
<rscale>  0 0.13159809E+04</rscale>
<asrwt>0</asrwt>
<pdfrwt beam="1">  1        2 0.53376860E+00 0.13159809E+04</pdfrwt>
<pdfrwt beam="2">  1       -2 0.19198154E-01 0.13159809E+04</pdfrwt>
<totfact> 0.19579232E+01</totfact>
</mgrwt>
</event>
<event>
 6    1  0.1585031E-006  0.1846764E+04  0.7818608E-02  0.8681819E-01
          2   -1    0    0  501    0  0.00000000000E+00  0.00000000000E+00  0.43153147792E+03  0.43153147792E+03  0.00000000000E+00 0.  1.
         -2   -1    0    0    0  501 -0.00000000000E+00 -0.00000000000E+00 -0.19758328317E+04  0.19758328317E+04  0.00000000000E+00 0. -1.
         23    2    1    2    0    0  0.30384919358E+03  0.80483395783E+03 -0.12030840462E+04  0.14818853617E+04  0.92146464139E+02 0.  0.
         11    1    3    3    0    0  0.18233917452E+03  0.38180502731E+03 -0.53994577355E+03  0.68597674291E+03  0.00000000000E+00 0. -1.
        -11    1    3    3    0    0  0.12151001906E+03  0.42302893052E+03 -0.66313827263E+03  0.79590861876E+03  0.00000000000E+00 0.  1.
         22    1    1    2    0    0 -0.30384919358E+03 -0.80483395783E+03 -0.34121730763E+03  0.92547894797E+03  0.00000000000E+00 0. -1.
<mgrwt>
<rscale>  0 0.18467637E+04</rscale>
<asrwt>0</asrwt>
<pdfrwt beam="1">  1        2 0.66389459E-01 0.18467637E+04</pdfrwt>
<pdfrwt beam="2">  1       -2 0.30397428E+00 0.18467637E+04</pdfrwt>
<totfact> 0.20655246E+00</totfact>
</mgrwt>
</event>
<event>
 6    1  0.1585031E-006  0.2224058E+04  0.7818608E-02  0.8508481E-01
         -1   -1    0    0    0  501 -0.00000000000E+00  0.00000000000E+00  0.94721641310E+03  0.94721641310E+03  0.00000000000E+00 0.  1.
          1   -1    0    0  501    0  0.00000000000E+00 -0.00000000000E+00 -0.13055186285E+04  0.13055186285E+04  0.00000000000E+00 0. -1.
         23    2    1    2    0    0  0.95840092179E+03  0.18840510210E+03  0.35510992238E+03  0.10431955889E+04  0.90139726596E+02 0.  0.
         13    1    3    3    0    0  0.58969815951E+03  0.71374101334E+02  0.20932328916E+03  0.62980506592E+03  0.00000000000E+00 0. -1.
        -13    1    3    3    0    0  0.36870276228E+03  0.11703100077E+03  0.14578663322E+03  0.41339052297E+03  0.00000000000E+00 0.  1.
         22    1    1    2    0    0 -0.95840092179E+03 -0.18840510210E+03 -0.71341213783E+03  0.12095394528E+04  0.00000000000E+00 0. -1.
<mgrwt>
<rscale>  0 0.22240582E+04</rscale>
<asrwt>0</asrwt>
<pdfrwt beam="1">  1        1 0.20084902E+00 0.22240582E+04</pdfrwt>
<pdfrwt beam="2">  1       -1 0.14572560E+00 0.22240582E+04</pdfrwt>
<totfact> 0.30750948E+00</totfact>
</mgrwt>
</event>
<event>
 6    1  0.1585031E-006  0.2055023E+04  0.7818608E-02  0.8581319E-01
          2   -1    0    0  501    0  0.00000000000E+00  0.00000000000E+00  0.21335835978E+04  0.21335835978E+04  0.00000000000E+00 0. -1.
         -2   -1    0    0    0  501 -0.00000000000E+00 -0.00000000000E+00 -0.49483875083E+03  0.49483875083E+03  0.00000000000E+00 0.  1.
         23    2    1    2    0    0  0.75780741700E+03 -0.51503222719E+03  0.14098819192E+04  0.16840132657E+04  0.92754387716E+02 0.  0.
         11    1    3    3    0    0  0.37641815635E+03 -0.31175749530E+03  0.74518677385E+03  0.89117152795E+03  0.00000000000E+00 0. -1.
        -11    1    3    3    0    0  0.38138926065E+03 -0.20327473189E+03  0.66469514538E+03  0.79284173771E+03  0.00000000000E+00 0.  1.
         22    1    1    2    0    0 -0.75780741700E+03  0.51503222719E+03  0.22886292774E+03  0.94440908297E+03  0.00000000000E+00 0. -1.
<mgrwt>
<rscale>  0 0.20550230E+04</rscale>
<asrwt>0</asrwt>
<pdfrwt beam="1">  1        2 0.32824362E+00 0.20550230E+04</pdfrwt>
<pdfrwt beam="2">  1       -2 0.76129040E-01 0.20550230E+04</pdfrwt>
<totfact> 0.80386000E+00</totfact>
</mgrwt>
</event>
<event>
 6    1  0.1585031E-006  0.3530307E+04  0.7818608E-02  0.8106645E-01
         -1   -1    0    0    0  501 -0.00000000000E+00  0.00000000000E+00  0.26416184422E+04  0.26416184422E+04  0.00000000000E+00 0.  1.
          1   -1    0    0  501    0  0.00000000000E+00 -0.00000000000E+00 -0.11794918916E+04  0.11794918916E+04  0.00000000000E+00 0. -1.
         23    2    1    2    0    0  0.12748011132E+04  0.10333928510E+04  0.14317998778E+04  0.21797881931E+04  0.91689772179E+02 0.  0.
         13    1    3    3    0    0  0.16291621011E+03  0.16063433840E+03  0.23039966416E+03  0.32469845616E+03  0.00000000000E+00 0. -1.
        -13    1    3    3    0    0  0.11118849030E+04  0.87275851259E+03  0.12014002136E+04  0.18550897370E+04  0.00000000000E+00 0.  1.
         22    1    1    2    0    0 -0.12748011132E+04 -0.10333928510E+04  0.30326672810E+02  0.16413221407E+04  0.00000000000E+00 0. -1.
<mgrwt>
<rscale>  0 0.35303074E+04</rscale>
<asrwt>0</asrwt>
<pdfrwt beam="1">  1        1 0.18146029E+00 0.35303074E+04</pdfrwt>
<pdfrwt beam="2">  1       -1 0.40640284E+00 0.35303074E+04</pdfrwt>
<totfact> 0.58164642E-02</totfact>
</mgrwt>
</event>
<event>
 6    1  0.1585031E-006  0.1662505E+04  0.7818608E-02  0.8783043E-01
          2   -1    0    0  501    0  0.00000000000E+00  0.00000000000E+00  0.38551430692E+03  0.38551430692E+03  0.00000000000E+00 0. -1.
         -2   -1    0    0    0  501 -0.00000000000E+00 -0.00000000000E+00 -0.17923603256E+04  0.17923603256E+04  0.00000000000E+00 0.  1.
         23    2    1    2    0    0  0.35866641179E+02  0.15752369106E+03 -0.17702857336E+04  0.17801453834E+04  0.94370960133E+02 0.  0.
         13    1    3    3    0    0 -0.10954603746E+02  0.76869103803E+02 -0.45671593698E+03  0.46326915454E+03  0.00000000000E+00 0. -1.
        -13    1    3    3    0    0  0.46821244924E+02  0.80654587253E+02 -0.13135697966E+04  0.13168762288E+04  0.00000000000E+00 0.  1.
         22    1    1    2    0    0 -0.35866641179E+02 -0.15752369106E+03  0.36343971496E+03  0.39772924912E+03  0.00000000000E+00 0. -1.
<mgrwt>
<rscale>  0 0.16625048E+04</rscale>
<asrwt>0</asrwt>
<pdfrwt beam="1">  1        2 0.59309893E-01 0.16625048E+04</pdfrwt>
<pdfrwt beam="2">  1       -2 0.27574775E+00 0.16625048E+04</pdfrwt>
<totfact> 0.35411198E+00</totfact>
</mgrwt>
</event>
<event>
 6    1  0.1585031E-006  0.1798229E+04  0.7818608E-02  0.8707242E-01
          1   -1    0    0  501    0  0.00000000000E+00  0.00000000000E+00  0.11943316322E+04  0.11943316322E+04  0.00000000000E+00 0. -1.
         -1   -1    0    0    0  501 -0.00000000000E+00 -0.00000000000E+00 -0.67687006350E+03  0.67687006350E+03  0.00000000000E+00 0.  1.
         23    2    1    2    0    0 -0.64204883086E+02  0.77670592955E+03  0.72108642545E+03  0.10656848118E+04  0.91236599415E+02 0.  0.
         11    1    3    3    0    0 -0.81767144956E+02  0.52744555926E+03  0.46507178410E+03  0.70793816704E+03  0.00000000000E+00 0. -1.
        -11    1    3    3    0    0  0.17562261870E+02  0.24926037029E+03  0.25601464135E+03  0.35774664474E+03  0.00000000000E+00 0.  1.
         22    1    1    2    0    0  0.64204883086E+02 -0.77670592955E+03 -0.20362485674E+03  0.80551688393E+03  0.00000000000E+00 0.  1.
<mgrwt>
<rscale>  0 0.17982295E+04</rscale>
<asrwt>0</asrwt>
<pdfrwt beam="1">  1        1 0.18374333E+00 0.17982295E+04</pdfrwt>
<pdfrwt beam="2">  1       -1 0.10413386E+00 0.17982295E+04</pdfrwt>
<totfact> 0.88380299E+00</totfact>
</mgrwt>
</event>
<event>
 6    1  0.1585031E-006  0.1074590E+04  0.7818608E-02  0.9230318E-01
         -1   -1    0    0    0  501 -0.00000000000E+00  0.00000000000E+00  0.26857543521E+03  0.26857543521E+03  0.00000000000E+00 0.  1.
          1   -1    0    0  501    0  0.00000000000E+00 -0.00000000000E+00 -0.10748780796E+04  0.10748780796E+04  0.00000000000E+00 0. -1.
         23    2    1    2    0    0  0.95743821627E+02 -0.15970563392E+03 -0.10310011250E+04  0.10516279229E+04  0.91023071174E+02 0.  0.
         11    1    3    3    0    0  0.91171355192E+02 -0.10514250737E+03 -0.54241175520E+03  0.55998006665E+03  0.00000000000E+00 0. -1.
        -11    1    3    3    0    0  0.45724664350E+01 -0.54563126544E+02 -0.48858936983E+03  0.49164785623E+03  0.00000000000E+00 0.  1.
         22    1    1    2    0    0 -0.95743821627E+02  0.15970563392E+03  0.22469848066E+03  0.29182559191E+03  0.00000000000E+00 0.  1.
<mgrwt>
<rscale>  0 0.10745899E+04</rscale>
<asrwt>0</asrwt>
<pdfrwt beam="1">  1        1 0.16536586E+00 0.10745899E+04</pdfrwt>
<pdfrwt beam="2">  1       -1 0.41319298E-01 0.10745899E+04</pdfrwt>
<totfact> 0.75810624E+01</totfact>
</mgrwt>
</event>
<event>
 6    1  0.1585031E-006  0.3559938E+04  0.7818608E-02  0.8099731E-01
          1   -1    0    0  501    0  0.00000000000E+00  0.00000000000E+00  0.28428512802E+04  0.28428512802E+04  0.00000000000E+00 0. -1.
         -1   -1    0    0    0  501 -0.00000000000E+00 -0.00000000000E+00 -0.11144758598E+04  0.11144758598E+04  0.00000000000E+00 0.  1.
         23    2    1    2    0    0 -0.11294835152E+03  0.76793635993E+03  0.26439391703E+04  0.27570186118E+04  0.90849912216E+02 0.  0.
         13    1    3    3    0    0 -0.12709982244E+03  0.64570545615E+03  0.21964106576E+04  0.22928823951E+04  0.00000000000E+00 0. -1.
        -13    1    3    3    0    0  0.14151470920E+02  0.12223090378E+03  0.44752851263E+03  0.46413621663E+03  0.00000000000E+00 0.  1.
         22    1    1    2    0    0  0.11294835152E+03 -0.76793635993E+03 -0.91556374981E+03  0.12003085282E+04  0.00000000000E+00 0.  1.
<mgrwt>
<rscale>  0 0.35599377E+04</rscale>
<asrwt>0</asrwt>
<pdfrwt beam="1">  1        1 0.43736173E+00 0.35599377E+04</pdfrwt>
<pdfrwt beam="2">  1       -1 0.17145783E+00 0.35599377E+04</pdfrwt>
<totfact> 0.15126854E-01</totfact>
</mgrwt>
</event>
<event>
 6    1  0.1585031E-006  0.3269671E+04  0.7818608E-02  0.8170656E-01
          1   -1    0    0  501    0  0.00000000000E+00  0.00000000000E+00  0.15057854115E+04  0.15057854115E+04  0.00000000000E+00 0. -1.
         -1   -1    0    0    0  501 -0.00000000000E+00 -0.00000000000E+00 -0.17749457279E+04  0.17749457279E+04  0.00000000000E+00 0.  1.
         23    2    1    2    0    0 -0.40052287971E+03 -0.11560666455E+03  0.14495524636E+04  0.15121845331E+04  0.10824157871E+03 0.  0.
         11    1    3    3    0    0 -0.14102518449E+03  0.11163586803E+02  0.44559501349E+03  0.46751218634E+03  0.00000000000E+00 0. -1.
        -11    1    3    3    0    0 -0.25949769521E+03 -0.12677025135E+03  0.10039574501E+04  0.10446723468E+04  0.00000000000E+00 0.  1.
         22    1    1    2    0    0  0.40052287971E+03  0.11560666455E+03 -0.17187127800E+04  0.17685466062E+04  0.00000000000E+00 0.  1.
<mgrwt>
<rscale>  0 0.32696712E+04</rscale>
<asrwt>0</asrwt>
<pdfrwt beam="1">  1        1 0.23165930E+00 0.32696712E+04</pdfrwt>
<pdfrwt beam="2">  1       -1 0.27306857E+00 0.32696712E+04</pdfrwt>
<totfact> 0.26605152E-01</totfact>
</mgrwt>
</event>
<event>
 6    1  0.1585031E-006  0.2448982E+04  0.7818608E-02  0.8421390E-01
          4   -1    0    0  501    0  0.00000000000E+00  0.00000000000E+00  0.10532026456E+04  0.10532026456E+04  0.00000000000E+00 0. -1.
         -4   -1    0    0    0  501 -0.00000000000E+00 -0.00000000000E+00 -0.14236369761E+04  0.14236369761E+04  0.00000000000E+00 0.  1.
         23    2    1    2    0    0 -0.88532560502E+03 -0.50082521793E+03 -0.87182757528E+03  0.13428102959E+04  0.91808736051E+02 0.  0.
         13    1    3    3    0    0 -0.55027002612E+03 -0.27058831474E+03 -0.48760427388E+03  0.78343670174E+03  0.00000000000E+00 0.  1.
        -13    1    3    3    0    0 -0.33505557890E+03 -0.23023690319E+03 -0.38422330139E+03  0.55937359419E+03  0.00000000000E+00 0. -1.
         22    1    1    2    0    0  0.88532560502E+03  0.50082521793E+03  0.50139324474E+03  0.11340293258E+04  0.00000000000E+00 0. -1.
<mgrwt>
<rscale>  0 0.24489820E+04</rscale>
<asrwt>0</asrwt>
<pdfrwt beam="1">  1        4 0.16203118E+00 0.24489820E+04</pdfrwt>
<pdfrwt beam="2">  1       -4 0.21902107E+00 0.24489820E+04</pdfrwt>
<totfact> 0.42743510E-02</totfact>
</mgrwt>
</event>
<event>
 6    1  0.1585031E-006  0.2458243E+04  0.7818608E-02  0.8418015E-01
         -2   -1    0    0    0  501 -0.00000000000E+00  0.00000000000E+00  0.77477032043E+03  0.77477032043E+03  0.00000000000E+00 0.  1.
          2   -1    0    0  501    0  0.00000000000E+00 -0.00000000000E+00 -0.19499187551E+04  0.19499187551E+04  0.00000000000E+00 0. -1.
         23    2    1    2    0    0  0.11080146398E+04  0.11622623745E+02 -0.31954644781E+01  0.11118328229E+04  0.91271504879E+02 0.  0.
         13    1    3    3    0    0  0.63674679159E+03  0.50996737020E+02  0.66572762195E+01  0.63882036842E+03  0.00000000000E+00 0. -1.
        -13    1    3    3    0    0  0.47126784822E+03 -0.39374113275E+02 -0.98527406976E+01  0.47301245444E+03  0.00000000000E+00 0.  1.
         22    1    1    2    0    0 -0.11080146398E+04 -0.11622623745E+02 -0.11719529702E+04  0.16128562527E+04  0.00000000000E+00 0. -1.
<mgrwt>
<rscale>  0 0.24582426E+04</rscale>
<asrwt>0</asrwt>
<pdfrwt beam="1">  1        2 0.29998750E+00 0.24582426E+04</pdfrwt>
<pdfrwt beam="2">  1       -2 0.11919544E+00 0.24582426E+04</pdfrwt>
<totfact> 0.34425049E+00</totfact>
</mgrwt>
</event>
<event>
 6    1  0.1585031E-006  0.5088880E+04  0.7818608E-02  0.7814941E-01
         -1   -1    0    0    0  501 -0.00000000000E+00  0.00000000000E+00  0.14977596325E+04  0.14977596325E+04  0.00000000000E+00 0. -1.
          1   -1    0    0  501    0  0.00000000000E+00 -0.00000000000E+00 -0.43225718855E+04  0.43225718855E+04  0.00000000000E+00 0.  1.
         23    2    1    2    0    0 -0.20126538817E+04 -0.13539477188E+04 -0.53796512308E+03  0.24866218922E+04  0.99658859713E+02 0.  0.
         11    1    3    3    0    0 -0.74241014683E+03 -0.55775842450E+03 -0.20383481511E+03  0.95069233618E+03  0.00000000000E+00 0. -1.
        -11    1    3    3    0    0 -0.12702437349E+04 -0.79618929428E+03 -0.33413030797E+03  0.15359295560E+04  0.00000000000E+00 0.  1.
         22    1    1    2    0    0  0.20126538817E+04  0.13539477188E+04 -0.22868471299E+04  0.33337096257E+04  0.00000000000E+00 0. -1.
<mgrwt>
<rscale>  0 0.50888795E+04</rscale>
<asrwt>0</asrwt>
<pdfrwt beam="1">  1        1 0.66501105E+00 0.50888795E+04</pdfrwt>
<pdfrwt beam="2">  1       -1 0.23042456E+00 0.50888795E+04</pdfrwt>
<totfact> 0.32345053E-03</totfact>
</mgrwt>
</event>
<event>
 6    1  0.1585031E-006  0.1863349E+04  0.7818608E-02  0.8673318E-01
         -2   -1    0    0    0  501 -0.00000000000E+00  0.00000000000E+00  0.86571444924E+03  0.86571444924E+03  0.00000000000E+00 0. -1.
          2   -1    0    0  501    0  0.00000000000E+00 -0.00000000000E+00 -0.10026605344E+04  0.10026605344E+04  0.00000000000E+00 0.  1.
         23    2    1    2    0    0  0.59348394707E+02 -0.88009080678E+03  0.22515640160E+03  0.91485504624E+03  0.90456013163E+02 0.  0.
         11    1    3    3    0    0  0.50288806298E+02 -0.41201256564E+03  0.14627331187E+03  0.44008999086E+03  0.00000000000E+00 0. -1.
        -11    1    3    3    0    0  0.90595884093E+01 -0.46807824114E+03  0.78883089729E+02  0.47476505538E+03  0.00000000000E+00 0.  1.
         22    1    1    2    0    0 -0.59348394707E+02  0.88009080678E+03 -0.36210248680E+03  0.95351993743E+03  0.00000000000E+00 0.  1.
<mgrwt>
<rscale>  0 0.18633494E+04</rscale>
<asrwt>0</asrwt>
<pdfrwt beam="1">  1        2 0.15425547E+00 0.18633494E+04</pdfrwt>
<pdfrwt beam="2">  1       -2 0.13318684E+00 0.18633494E+04</pdfrwt>
<totfact> 0.96238940E+00</totfact>
</mgrwt>
</event>
<event>
 6    1  0.1585031E-006  0.2648538E+04  0.7818608E-02  0.8351898E-01
          1   -1    0    0  501    0  0.00000000000E+00  0.00000000000E+00  0.22666205103E+04  0.22666205103E+04  0.00000000000E+00 0. -1.
         -1   -1    0    0    0  501 -0.00000000000E+00 -0.00000000000E+00 -0.77370187986E+03  0.77370187986E+03  0.00000000000E+00 0.  1.
         23    2    1    2    0    0 -0.71587406833E+02  0.12829004559E+04  0.11082474634E+04  0.16990803377E+04  0.87767975261E+02 0.  0.
         11    1    3    3    0    0 -0.34868858994E+02  0.35621474760E+03  0.35760257102E+03  0.50594899203E+03  0.00000000000E+00 0.  1.
        -11    1    3    3    0    0 -0.36718547840E+02  0.92668570826E+03  0.75064489240E+03  0.11931313457E+04  0.00000000000E+00 0. -1.
         22    1    1    2    0    0  0.71587406833E+02 -0.12829004559E+04  0.38467116703E+03  0.13412420524E+04  0.00000000000E+00 0.  1.
<mgrwt>
<rscale>  0 0.26485381E+04</rscale>
<asrwt>0</asrwt>
<pdfrwt beam="1">  1        1 0.34871085E+00 0.26485381E+04</pdfrwt>
<pdfrwt beam="2">  1       -1 0.11903106E+00 0.26485381E+04</pdfrwt>
<totfact> 0.10861973E+00</totfact>
</mgrwt>
</event>
<event>
 6    1  0.1585031E-006  0.1119200E+04  0.7818608E-02  0.9186678E-01
          1   -1    0    0  501    0  0.00000000000E+00  0.00000000000E+00  0.17209096853E+04  0.17209096853E+04  0.00000000000E+00 0. -1.
         -1   -1    0    0    0  501 -0.00000000000E+00 -0.00000000000E+00 -0.18196891414E+03  0.18196891414E+03  0.00000000000E+00 0.  1.
         23    2    1    2    0    0  0.82176856130E+02  0.52344942038E+03  0.10598811618E+04  0.11885604345E+04  0.92603985043E+02 0.  0.
         13    1    3    3    0    0  0.61570875986E+02  0.22398255650E+03  0.38021067651E+03  0.44555506608E+03  0.00000000000E+00 0. -1.
        -13    1    3    3    0    0  0.20605980144E+02  0.29946686389E+03  0.67967048525E+03  0.74300536842E+03  0.00000000000E+00 0.  1.
         22    1    1    2    0    0 -0.82176856130E+02 -0.52344942038E+03  0.47905960937E+03  0.71431816490E+03  0.00000000000E+00 0.  1.
<mgrwt>
<rscale>  0 0.11191998E+04</rscale>
<asrwt>0</asrwt>
<pdfrwt beam="1">  1        1 0.26475533E+00 0.11191998E+04</pdfrwt>
<pdfrwt beam="2">  1       -1 0.27995219E-01 0.11191998E+04</pdfrwt>
<totfact> 0.52898596E+01</totfact>
</mgrwt>
</event>
<event>
 6    1  0.1585031E-006  0.9816688E+03  0.7818608E-02  0.9328882E-01
          2   -1    0    0  501    0  0.00000000000E+00  0.00000000000E+00  0.63819743536E+03  0.63819743536E+03  0.00000000000E+00 0. -1.
         -2   -1    0    0    0  501 -0.00000000000E+00 -0.00000000000E+00 -0.37749821446E+03  0.37749821446E+03  0.00000000000E+00 0.  1.
         23    2    1    2    0    0  0.37936469810E+03 -0.27810622705E+03  0.26585503382E+03  0.54528388328E+03  0.73450436828E+02 0.  0.
         11    1    3    3    0    0  0.20905345774E+03 -0.10881610065E+03  0.14085985456E+03  0.27456472931E+03  0.00000000000E+00 0.  1.
        -11    1    3    3    0    0  0.17031124036E+03 -0.16929012640E+03  0.12499517926E+03  0.27071915397E+03  0.00000000000E+00 0. -1.
         22    1    1    2    0    0 -0.37936469810E+03  0.27810622705E+03 -0.51558129233E+01  0.47041176654E+03  0.00000000000E+00 0. -1.
<mgrwt>
<rscale>  0 0.98166877E+03</rscale>
<asrwt>0</asrwt>
<pdfrwt beam="1">  1        2 0.98184221E-01 0.98166877E+03</pdfrwt>
<pdfrwt beam="2">  1       -2 0.58076649E-01 0.98166877E+03</pdfrwt>
<totfact> 0.12757761E+02</totfact>
</mgrwt>
</event>
<event>
 6    1  0.1585031E-006  0.4013812E+04  0.7818608E-02  0.8001766E-01
         -2   -1    0    0    0  501 -0.00000000000E+00  0.00000000000E+00  0.15603729570E+04  0.15603729570E+04  0.00000000000E+00 0.  1.
          2   -1    0    0  501    0  0.00000000000E+00 -0.00000000000E+00 -0.25812239457E+04  0.25812239457E+04  0.00000000000E+00 0. -1.
         23    2    1    2    0    0 -0.48929507896E+03 -0.10826661276E+04 -0.21783265647E+04  0.24828849546E+04  0.89640711942E+02 0.  0.
         13    1    3    3    0    0 -0.19756009442E+03 -0.54271972968E+03 -0.10786054798E+04  0.12235049967E+04  0.00000000000E+00 0.  1.
        -13    1    3    3    0    0 -0.29173498454E+03 -0.53994639787E+03 -0.10997210849E+04  0.12593799579E+04  0.00000000000E+00 0. -1.
         22    1    1    2    0    0  0.48929507896E+03  0.10826661276E+04  0.11574755760E+04  0.16587119482E+04  0.00000000000E+00 0.  1.
<mgrwt>
<rscale>  0 0.40138122E+04</rscale>
<asrwt>0</asrwt>
<pdfrwt beam="1">  1        2 0.39711137E+00 0.40138122E+04</pdfrwt>
<pdfrwt beam="2">  1       -2 0.24005738E+00 0.40138122E+04</pdfrwt>
<totfact> 0.18204588E-01</totfact>
</mgrwt>
</event>
<event>
 6    1  0.1585031E-006  0.1609577E+04  0.7818608E-02  0.8814686E-01
          2   -1    0    0  501    0  0.00000000000E+00  0.00000000000E+00  0.34779043986E+04  0.34779043986E+04  0.00000000000E+00 0. -1.
         -2   -1    0    0    0  501 -0.00000000000E+00 -0.00000000000E+00 -0.18622842364E+03  0.18622842364E+03  0.00000000000E+00 0.  1.
         23    2    1    2    0    0  0.67329864505E+03  0.29504309952E+03  0.92171166625E+03  0.11827799008E+04  0.95049472015E+02 0.  0.
         11    1    3    3    0    0  0.47591627774E+03  0.25189198745E+03  0.64667324291E+03  0.84150588818E+03  0.00000000000E+00 0. -1.
        -11    1    3    3    0    0  0.19738236731E+03  0.43151112064E+02  0.27503842335E+03  0.34127401266E+03  0.00000000000E+00 0.  1.
         22    1    1    2    0    0 -0.67329864505E+03 -0.29504309952E+03  0.23699643087E+04  0.24813529214E+04  0.00000000000E+00 0. -1.
<mgrwt>
<rscale>  0 0.16095772E+04</rscale>
<asrwt>0</asrwt>
<pdfrwt beam="1">  1        2 0.53506217E+00 0.16095772E+04</pdfrwt>
<pdfrwt beam="2">  1       -2 0.28650529E-01 0.16095772E+04</pdfrwt>
<totfact> 0.91211966E+00</totfact>
</mgrwt>
</event>
<event>
 6    1  0.1585031E-006  0.2569944E+04  0.7818608E-02  0.8378483E-01
         -2   -1    0    0    0  501 -0.00000000000E+00  0.00000000000E+00  0.97461784641E+03  0.97461784641E+03  0.00000000000E+00 0.  1.
          2   -1    0    0  501    0  0.00000000000E+00 -0.00000000000E+00 -0.16941537704E+04  0.16941537704E+04  0.00000000000E+00 0. -1.
         23    2    1    2    0    0 -0.66319211744E+03  0.78050539509E+03  0.44283200602E+03  0.11195422403E+04  0.90896566683E+02 0.  0.
         13    1    3    3    0    0 -0.43379109970E+03  0.56142910402E+03  0.33409219258E+03  0.78421613741E+03  0.00000000000E+00 0.  1.
        -13    1    3    3    0    0 -0.22940101774E+03  0.21907629107E+03  0.10873981343E+03  0.33532610288E+03  0.00000000000E+00 0. -1.
         22    1    1    2    0    0  0.66319211744E+03 -0.78050539509E+03 -0.11623679301E+04  0.15492293766E+04  0.00000000000E+00 0. -1.
<mgrwt>
<rscale>  0 0.25699436E+04</rscale>
<asrwt>0</asrwt>
<pdfrwt beam="1">  1        2 0.26063904E+00 0.25699436E+04</pdfrwt>
<pdfrwt beam="2">  1       -2 0.14994121E+00 0.25699436E+04</pdfrwt>
<totfact> 0.26283358E+00</totfact>
</mgrwt>
</event>
<event>
 6    1  0.1585031E-006  0.1583311E+04  0.7818608E-02  0.8830867E-01
          2   -1    0    0  501    0  0.00000000000E+00  0.00000000000E+00  0.99075356242E+03  0.99075356242E+03  0.00000000000E+00 0. -1.
         -2   -1    0    0    0  501 -0.00000000000E+00 -0.00000000000E+00 -0.63256744500E+03  0.63256744500E+03  0.00000000000E+00 0.  1.
         23    2    1    2    0    0  0.42604864938E+03 -0.65750246085E+03  0.83496255909E+02  0.79309124544E+03  0.90527129500E+02 0.  0.
         11    1    3    3    0    0  0.12387390064E+03 -0.18129437658E+03 -0.16953064210E+02  0.22022670280E+03  0.00000000000E+00 0.  1.
        -11    1    3    3    0    0  0.30217474874E+03 -0.47620808427E+03  0.10044932012E+03  0.57286454264E+03  0.00000000000E+00 0. -1.
         22    1    1    2    0    0 -0.42604864938E+03  0.65750246085E+03  0.27468986151E+03  0.83022976198E+03  0.00000000000E+00 0.  1.
<mgrwt>
<rscale>  0 0.15833110E+04</rscale>
<asrwt>0</asrwt>
<pdfrwt beam="1">  1        2 0.15242363E+00 0.15833110E+04</pdfrwt>
<pdfrwt beam="2">  1       -2 0.97318068E-01 0.15833110E+04</pdfrwt>
<totfact> 0.21599974E+01</totfact>
</mgrwt>
</event>
<event>
 6    1  0.1585031E-006  0.2463957E+04  0.7818608E-02  0.8415940E-01
          3   -1    0    0  501    0  0.00000000000E+00  0.00000000000E+00  0.22063724474E+04  0.22063724474E+04  0.00000000000E+00 0. -1.
         -3   -1    0    0    0  501 -0.00000000000E+00 -0.00000000000E+00 -0.68790320074E+03  0.68790320074E+03  0.00000000000E+00 0.  1.
         23    2    1    2    0    0 -0.27263228226E+03  0.90073470399E+03 -0.17077822250E+03  0.96057236677E+03  0.88784583232E+02 0.  0.
         13    1    3    3    0    0  0.19798688565E+01  0.46622972289E+02  0.28550751379E+01  0.46752249997E+02  0.00000000000E+00 0.  1.
        -13    1    3    3    0    0 -0.27461215112E+03  0.85411173170E+03 -0.17363329764E+03  0.91382011678E+03  0.00000000000E+00 0. -1.
         22    1    1    2    0    0  0.27263228226E+03 -0.90073470399E+03  0.16892474692E+04  0.19337032814E+04  0.00000000000E+00 0. -1.
<mgrwt>
<rscale>  0 0.24639567E+04</rscale>
<asrwt>0</asrwt>
<pdfrwt beam="1">  1        3 0.33944191E+00 0.24639567E+04</pdfrwt>
<pdfrwt beam="2">  1       -3 0.10583126E+00 0.24639567E+04</pdfrwt>
<totfact> 0.41947637E-02</totfact>
</mgrwt>
</event>
<event>
 6    1  0.1585031E-006  0.3146459E+04  0.7818608E-02  0.8203102E-01
          1   -1    0    0  501    0  0.00000000000E+00  0.00000000000E+00  0.28305988522E+04  0.28305988522E+04  0.00000000000E+00 0. -1.
         -1   -1    0    0    0  501 -0.00000000000E+00 -0.00000000000E+00 -0.87439150062E+03  0.87439150062E+03  0.00000000000E+00 0.  1.
         23    2    1    2    0    0  0.11189156288E+04 -0.57371840332E+03 -0.13176843871E+03  0.12676213016E+04  0.91519682203E+02 0.  0.
         13    1    3    3    0    0  0.43947454215E+03 -0.23634743682E+03 -0.96284863799E+02  0.50820149458E+03  0.00000000000E+00 0. -1.
        -13    1    3    3    0    0  0.67944108667E+03 -0.33737096650E+03 -0.35483574914E+02  0.75941980707E+03  0.00000000000E+00 0.  1.
         22    1    1    2    0    0 -0.11189156288E+04  0.57371840332E+03  0.20879757903E+04  0.24373690511E+04  0.00000000000E+00 0. -1.
<mgrwt>
<rscale>  0 0.31464593E+04</rscale>
<asrwt>0</asrwt>
<pdfrwt beam="1">  1        1 0.43547674E+00 0.31464593E+04</pdfrwt>
<pdfrwt beam="2">  1       -1 0.13452177E+00 0.31464593E+04</pdfrwt>
<totfact> 0.30941337E-01</totfact>
</mgrwt>
</event>
<event>
 6    1  0.1880850E-006  0.2631092E+04  0.7818608E-02  0.8357716E-01
         -2   -1    0    0    0  501 -0.00000000000E+00  0.00000000000E+00  0.87726489619E+03  0.87726489619E+03  0.00000000000E+00 0. -1.
          2   -1    0    0  501    0  0.00000000000E+00 -0.00000000000E+00 -0.19727926023E+04  0.19727926023E+04  0.00000000000E+00 0.  1.
         23    2    1    2    0    0 -0.11854892269E+03 -0.44165294278E+03  0.78588450186E+03  0.91386973249E+03  0.91827385696E+02 0.  0.
         13    1    3    3    0    0 -0.28329083670E+02 -0.25757625718E+03  0.48323077112E+03  0.54832476089E+03  0.00000000000E+00 0.  1.
        -13    1    3    3    0    0 -0.90219839025E+02 -0.18407668560E+03  0.30265373074E+03  0.36554497160E+03  0.00000000000E+00 0. -1.
         22    1    1    2    0    0  0.11854892269E+03  0.44165294278E+03 -0.18814122080E+04  0.19361877660E+04  0.00000000000E+00 0.  1.
<mgrwt>
<rscale>  0 0.26310923E+04</rscale>
<asrwt>0</asrwt>
<pdfrwt beam="1">  1        2 0.30350655E+00 0.26310923E+04</pdfrwt>
<pdfrwt beam="2">  1       -2 0.13496383E+00 0.26310923E+04</pdfrwt>
<totfact> 0.24098510E+00</totfact>
</mgrwt>
</event>
<event>
 6    1  0.1585031E-006  0.2357697E+04  0.7818608E-02  0.8455513E-01
          2   -1    0    0  501    0  0.00000000000E+00  0.00000000000E+00  0.96307261770E+03  0.96307261770E+03  0.00000000000E+00 0. -1.
         -2   -1    0    0    0  501 -0.00000000000E+00 -0.00000000000E+00 -0.14429683561E+04  0.14429683561E+04  0.00000000000E+00 0.  1.
         23    2    1    2    0    0 -0.46875519760E+02  0.99640368101E+03  0.39751302227E+03  0.10775592301E+04  0.89998231796E+02 0.  0.
         11    1    3    3    0    0  0.98980298996E+01  0.40550745263E+03  0.19747239493E+03  0.45114256272E+03  0.00000000000E+00 0. -1.
        -11    1    3    3    0    0 -0.56773549660E+02  0.59089622838E+03  0.20004062734E+03  0.62641666743E+03  0.00000000000E+00 0.  1.
         22    1    1    2    0    0  0.46875519760E+02 -0.99640368101E+03 -0.87740876063E+03  0.13284817436E+04  0.00000000000E+00 0.  1.
<mgrwt>
<rscale>  0 0.23576966E+04</rscale>
<asrwt>0</asrwt>
<pdfrwt beam="1">  1        2 0.14816502E+00 0.23576966E+04</pdfrwt>
<pdfrwt beam="2">  1       -2 0.22199513E+00 0.23576966E+04</pdfrwt>
<totfact> 0.23053365E+00</totfact>
</mgrwt>
</event>
<event>
 6    1  0.1585031E-006  0.4056425E+04  0.7818608E-02  0.7993260E-01
         -2   -1    0    0    0  501 -0.00000000000E+00  0.00000000000E+00  0.15749193314E+04  0.15749193314E+04  0.00000000000E+00 0.  1.
          2   -1    0    0  501    0  0.00000000000E+00 -0.00000000000E+00 -0.26119721321E+04  0.26119721321E+04  0.00000000000E+00 0. -1.
         23    2    1    2    0    0  0.28950788390E+03  0.14698645650E+04  0.89087249657E+03  0.17453320015E+04  0.90627456241E+02 0.  0.
         11    1    3    3    0    0  0.26569493825E+03  0.12209325078E+04  0.76855275139E+03  0.14669503470E+04  0.00000000000E+00 0. -1.
        -11    1    3    3    0    0  0.23812945653E+02  0.24893205725E+03  0.12231974518E+03  0.27838165451E+03  0.00000000000E+00 0.  1.
         22    1    1    2    0    0 -0.28950788390E+03 -0.14698645650E+04 -0.19279252973E+04  0.24415594620E+04  0.00000000000E+00 0. -1.
<mgrwt>
<rscale>  0 0.40564247E+04</rscale>
<asrwt>0</asrwt>
<pdfrwt beam="1">  1        2 0.40184187E+00 0.40564247E+04</pdfrwt>
<pdfrwt beam="2">  1       -2 0.24229528E+00 0.40564247E+04</pdfrwt>
<totfact> 0.16856534E-01</totfact>
</mgrwt>
</event>
<event>
 6    1  0.1585031E-006  0.3155512E+04  0.7818608E-02  0.8200666E-01
         -1   -1    0    0    0  501 -0.00000000000E+00  0.00000000000E+00  0.10137283721E+04  0.10137283721E+04  0.00000000000E+00 0.  1.
          1   -1    0    0  501    0  0.00000000000E+00 -0.00000000000E+00 -0.24556025245E+04  0.24556025245E+04  0.00000000000E+00 0. -1.
         23    2    1    2    0    0 -0.74983215296E+03  0.10810002768E+03 -0.22418349977E+04  0.23675726528E+04  0.75114819663E+02 0.  0.
         13    1    3    3    0    0 -0.20051984237E+03  0.39432717548E+01 -0.52562920740E+03  0.56259205492E+03  0.00000000000E+00 0. -1.
        -13    1    3    3    0    0 -0.54931231058E+03  0.10415675593E+03 -0.17162057903E+04  0.18049805979E+04  0.00000000000E+00 0.  1.
         22    1    1    2    0    0  0.74983215296E+03 -0.10810002768E+03  0.79996084532E+03  0.11017582437E+04  0.00000000000E+00 0.  1.
<mgrwt>
<rscale>  0 0.31555120E+04</rscale>
<asrwt>0</asrwt>
<pdfrwt beam="1">  1        1 0.37778500E+00 0.31555120E+04</pdfrwt>
<pdfrwt beam="2">  1       -1 0.15595821E+00 0.31555120E+04</pdfrwt>
<totfact> 0.38307916E-01</totfact>
</mgrwt>
</event>
<event>
 6    1  0.1585031E-006  0.2300995E+04  0.7818608E-02  0.8477529E-01
         -2   -1    0    0    0  501 -0.00000000000E+00  0.00000000000E+00  0.61512406086E+03  0.61512406086E+03  0.00000000000E+00 0.  1.
          2   -1    0    0  501    0  0.00000000000E+00 -0.00000000000E+00 -0.21518330386E+04  0.21518330386E+04  0.00000000000E+00 0. -1.
         23    2    1    2    0    0 -0.41925496827E+03 -0.10391719112E+04 -0.46592638092E+03  0.12170447280E+04  0.91964602817E+02 0.  0.
         11    1    3    3    0    0 -0.29340740544E+03 -0.82527730140E+03 -0.35185746266E+03  0.94391429897E+03  0.00000000000E+00 0. -1.
        -11    1    3    3    0    0 -0.12584756283E+03 -0.21389460980E+03 -0.11406891826E+03  0.27313042907E+03  0.00000000000E+00 0.  1.
         22    1    1    2    0    0  0.41925496827E+03  0.10391719112E+04 -0.10707825968E+04  0.15499123714E+04  0.00000000000E+00 0. -1.
<mgrwt>
<rscale>  0 0.23009948E+04</rscale>
<asrwt>0</asrwt>
<pdfrwt beam="1">  1        2 0.33105124E+00 0.23009948E+04</pdfrwt>
<pdfrwt beam="2">  1       -2 0.94634471E-01 0.23009948E+04</pdfrwt>
<totfact> 0.46849898E+00</totfact>
</mgrwt>
</event>
<event>
 6    1  0.1585031E-006  0.3336210E+04  0.7818608E-02  0.8153742E-01
          2   -1    0    0  501    0  0.00000000000E+00  0.00000000000E+00  0.24481465102E+04  0.24481465102E+04  0.00000000000E+00 0. -1.
         -2   -1    0    0    0  501 -0.00000000000E+00 -0.00000000000E+00 -0.11366043782E+04  0.11366043782E+04  0.00000000000E+00 0.  1.
         23    2    1    2    0    0 -0.15271297319E+04  0.59044281979E+03  0.32025275994E+03  0.16707491746E+04  0.89961283484E+02 0.  0.
         11    1    3    3    0    0 -0.22531116129E+03  0.61523180405E+02  0.66643345118E+02  0.24288177489E+03  0.00000000000E+00 0.  1.
        -11    1    3    3    0    0 -0.13018185706E+04  0.52891963938E+03  0.25360941482E+03  0.14278673997E+04  0.00000000000E+00 0. -1.
         22    1    1    2    0    0  0.15271297319E+04 -0.59044281979E+03  0.99128937200E+03  0.19140017138E+04  0.00000000000E+00 0. -1.
<mgrwt>
<rscale>  0 0.33362099E+04</rscale>
<asrwt>0</asrwt>
<pdfrwt beam="1">  1        2 0.37663792E+00 0.33362099E+04</pdfrwt>
<pdfrwt beam="2">  1       -2 0.17486221E+00 0.33362099E+04</pdfrwt>
<totfact> 0.61158104E-01</totfact>
</mgrwt>
</event>
<event>
 6    1  0.1585031E-006  0.2328103E+04  0.7818608E-02  0.8466922E-01
          2   -1    0    0  501    0  0.00000000000E+00  0.00000000000E+00  0.20474857565E+04  0.20474857565E+04  0.00000000000E+00 0. -1.
         -2   -1    0    0    0  501 -0.00000000000E+00 -0.00000000000E+00 -0.66179486708E+03  0.66179486708E+03  0.00000000000E+00 0.  1.
         23    2    1    2    0    0 -0.35105328738E+03 -0.80535810356E+03 -0.19156797854E+03  0.90384837004E+03  0.91670606451E+02 0.  0.
         11    1    3    3    0    0 -0.19965098198E+03 -0.53399738021E+03 -0.91517095963E+02  0.57739855865E+03  0.00000000000E+00 0. -1.
        -11    1    3    3    0    0 -0.15140230540E+03 -0.27136072334E+03 -0.10005088257E+03  0.32644981139E+03  0.00000000000E+00 0.  1.
         22    1    1    2    0    0  0.35105328738E+03  0.80535810356E+03  0.15772588680E+04  0.18054322535E+04  0.00000000000E+00 0. -1.
<mgrwt>
<rscale>  0 0.23281027E+04</rscale>
<asrwt>0</asrwt>
<pdfrwt beam="1">  1        2 0.31499781E+00 0.23281027E+04</pdfrwt>
<pdfrwt beam="2">  1       -2 0.10181460E+00 0.23281027E+04</pdfrwt>
<totfact> 0.44995930E+00</totfact>
</mgrwt>
</event>
<event>
 6    1  0.1585031E-006  0.2119477E+04  0.7818608E-02  0.8552712E-01
         -1   -1    0    0    0  501 -0.00000000000E+00  0.00000000000E+00  0.70218405248E+03  0.70218405248E+03  0.00000000000E+00 0.  1.
          1   -1    0    0  501    0  0.00000000000E+00 -0.00000000000E+00 -0.15993610237E+04  0.15993610237E+04  0.00000000000E+00 0. -1.
         23    2    1    2    0    0  0.83073534104E+03  0.40858473561E+03  0.10590846964E+03  0.93653844809E+03  0.93941299709E+02 0.  0.
         13    1    3    3    0    0  0.56555721676E+03  0.31090791574E+03  0.10546213661E+03  0.65394262727E+03  0.00000000000E+00 0.  1.
        -13    1    3    3    0    0  0.26517812427E+03  0.97676819874E+02  0.44633303514E+00  0.28259582082E+03  0.00000000000E+00 0. -1.
         22    1    1    2    0    0 -0.83073534104E+03 -0.40858473561E+03 -0.10030854408E+04  0.13650066281E+04  0.00000000000E+00 0. -1.
<mgrwt>
<rscale>  0 0.21194771E+04</rscale>
<asrwt>0</asrwt>
<pdfrwt beam="1">  1        1 0.24605554E+00 0.21194771E+04</pdfrwt>
<pdfrwt beam="2">  1       -1 0.10802832E+00 0.21194771E+04</pdfrwt>
<totfact> 0.40844413E+00</totfact>
</mgrwt>
</event>
<event>
 6    1  0.1585031E-006  0.5431446E+03  0.7818608E-02  0.1003093E+00
          1   -1    0    0  501    0  0.00000000000E+00  0.00000000000E+00  0.35615381153E+03  0.35615381153E+03  0.00000000000E+00 0. -1.
         -1   -1    0    0    0  501 -0.00000000000E+00 -0.00000000000E+00 -0.20707772898E+03  0.20707772898E+03  0.00000000000E+00 0.  1.
         23    2    1    2    0    0 -0.23975623094E+03 -0.41898470884E+01  0.19102909909E+03  0.31979641427E+03  0.90978155547E+02 0.  0.
         13    1    3    3    0    0 -0.57629806841E+02  0.27500812891E+02  0.86214191795E+02  0.10728642138E+03  0.00000000000E+00 0. -1.
        -13    1    3    3    0    0 -0.18212642410E+03 -0.31690659980E+02  0.10481490729E+03  0.21250999288E+03  0.00000000000E+00 0.  1.
         22    1    1    2    0    0  0.23975623094E+03  0.41898470884E+01 -0.41953016542E+02  0.24343512624E+03  0.00000000000E+00 0.  1.
<mgrwt>
<rscale>  0 0.54314463E+03</rscale>
<asrwt>0</asrwt>
<pdfrwt beam="1">  1        1 0.54792894E-01 0.54314463E+03</pdfrwt>
<pdfrwt beam="2">  1       -1 0.31858112E-01 0.54314463E+03</pdfrwt>
<totfact> 0.64768103E+02</totfact>
</mgrwt>
</event>
<event>
 6    1  0.1585031E-006  0.2334286E+04  0.7818608E-02  0.8464524E-01
         -2   -1    0    0    0  501 -0.00000000000E+00  0.00000000000E+00  0.35797653821E+03  0.35797653821E+03  0.00000000000E+00 0.  1.
          2   -1    0    0  501    0  0.00000000000E+00 -0.00000000000E+00 -0.38053416445E+04  0.38053416445E+04  0.00000000000E+00 0. -1.
         23    2    1    2    0    0  0.11641990551E+04  0.12689566656E+02 -0.18159582425E+04  0.21590704883E+04  0.91436153535E+02 0.  0.
         13    1    3    3    0    0  0.10677750587E+04 -0.13174526115E+02 -0.16503603059E+04  0.19657075783E+04  0.00000000000E+00 0. -1.
        -13    1    3    3    0    0  0.96423996449E+02  0.25864092771E+02 -0.16559793653E+03  0.19336291001E+03  0.00000000000E+00 0.  1.
         22    1    1    2    0    0 -0.11641990551E+04 -0.12689566656E+02 -0.16314068638E+04  0.20042476944E+04  0.00000000000E+00 0.  1.
<mgrwt>
<rscale>  0 0.23342862E+04</rscale>
<asrwt>0</asrwt>
<pdfrwt beam="1">  1        2 0.58543715E+00 0.23342862E+04</pdfrwt>
<pdfrwt beam="2">  1       -2 0.55073316E-01 0.23342862E+04</pdfrwt>
<totfact> 0.13693573E+00</totfact>
</mgrwt>
</event>
<event>
 6    1  0.1585031E-006  0.2031624E+04  0.7818608E-02  0.8591977E-01
          2   -1    0    0  501    0  0.00000000000E+00  0.00000000000E+00  0.23161696356E+04  0.23161696356E+04  0.00000000000E+00 0. -1.
         -2   -1    0    0    0  501 -0.00000000000E+00 -0.00000000000E+00 -0.44550871589E+03  0.44550871589E+03  0.00000000000E+00 0.  1.
         23    2    1    2    0    0  0.32352254160E+03 -0.19783079471E+02  0.22430619217E+04  0.22679773171E+04  0.85651159238E+02 0.  0.
         11    1    3    3    0    0  0.30098087187E+03 -0.75314301680E+01  0.18746276328E+04  0.18986508287E+04  0.00000000000E+00 0.  1.
        -11    1    3    3    0    0  0.22541669732E+02 -0.12251649303E+02  0.36843428893E+03  0.36932648842E+03  0.00000000000E+00 0. -1.
         22    1    1    2    0    0 -0.32352254160E+03  0.19783079471E+02 -0.37240100195E+03  0.49370103444E+03  0.00000000000E+00 0.  1.
<mgrwt>
<rscale>  0 0.20316237E+04</rscale>
<asrwt>0</asrwt>
<pdfrwt beam="1">  1        2 0.35633378E+00 0.20316237E+04</pdfrwt>
<pdfrwt beam="2">  1       -2 0.68539804E-01 0.20316237E+04</pdfrwt>
<totfact> 0.80071805E+00</totfact>
</mgrwt>
</event>
<event>
 6    1  0.1585031E-006  0.2914825E+04  0.7818608E-02  0.8268480E-01
         -2   -1    0    0    0  501 -0.00000000000E+00  0.00000000000E+00  0.81703733552E+03  0.81703733552E+03  0.00000000000E+00 0.  1.
          2   -1    0    0  501    0  0.00000000000E+00 -0.00000000000E+00 -0.25996983612E+04  0.25996983612E+04  0.00000000000E+00 0. -1.
         23    2    1    2    0    0  0.72243342579E+03 -0.10956378129E+04 -0.16310437667E+04  0.20956300745E+04  0.95022989438E+02 0.  0.
         13    1    3    3    0    0  0.45714203946E+03 -0.63532617467E+03 -0.10252849198E+04  0.12898943210E+04  0.00000000000E+00 0.  1.
        -13    1    3    3    0    0  0.26529138632E+03 -0.46031163822E+03 -0.60575884691E+03  0.80573575355E+03  0.00000000000E+00 0. -1.
         22    1    1    2    0    0 -0.72243342579E+03  0.10956378129E+04 -0.15161725893E+03  0.13211056222E+04  0.00000000000E+00 0.  1.
<mgrwt>
<rscale>  0 0.29148246E+04</rscale>
<asrwt>0</asrwt>
<pdfrwt beam="1">  1        2 0.39995359E+00 0.29148246E+04</pdfrwt>
<pdfrwt beam="2">  1       -2 0.12569805E+00 0.29148246E+04</pdfrwt>
<totfact> 0.12404909E+00</totfact>
</mgrwt>
</event>
<event>
 6    1  0.6378864E-006  0.4683269E+04  0.7818608E-02  0.7879314E-01
          1   -1    0    0  501    0  0.00000000000E+00  0.00000000000E+00  0.19866184794E+04  0.19866184794E+04  0.00000000000E+00 0. -1.
         -1   -1    0    0    0  501 -0.00000000000E+00 -0.00000000000E+00 -0.27600931487E+04  0.27600931487E+04  0.00000000000E+00 0.  1.
         23    2    1    2    0    0  0.36735179790E+03 -0.63370409003E+03 -0.26401765932E+04  0.27414424966E+04  0.91903762471E+02 0.  0.
         13    1    3    3    0    0  0.21809740287E+03 -0.28509847760E+03 -0.13008987618E+04  0.13495129520E+04  0.00000000000E+00 0. -1.
        -13    1    3    3    0    0  0.14925439503E+03 -0.34860561243E+03 -0.13392778314E+04  0.13919295446E+04  0.00000000000E+00 0.  1.
         22    1    1    2    0    0 -0.36735179790E+03  0.63370409003E+03  0.18667019239E+04  0.20052691315E+04  0.00000000000E+00 0. -1.
<mgrwt>
<rscale>  0 0.46832690E+04</rscale>
<asrwt>0</asrwt>
<pdfrwt beam="1">  1        1 0.30563361E+00 0.46832690E+04</pdfrwt>
<pdfrwt beam="2">  1       -1 0.42462971E+00 0.46832690E+04</pdfrwt>
<totfact> 0.10918721E-02</totfact>
</mgrwt>
</event>
<event>
 6    1  0.1585031E-006  0.2761612E+04  0.7818608E-02  0.8315286E-01
         -2   -1    0    0    0  501 -0.00000000000E+00  0.00000000000E+00  0.21665964612E+04  0.21665964612E+04  0.00000000000E+00 0.  1.
          2   -1    0    0  501    0  0.00000000000E+00 -0.00000000000E+00 -0.88000946417E+03  0.88000946417E+03  0.00000000000E+00 0. -1.
         23    2    1    2    0    0  0.90856269348E+03 -0.74436356561E+03 -0.15397851964E+03  0.11878987689E+04  0.88491891049E+02 0.  0.
         11    1    3    3    0    0  0.55242953419E+03 -0.39616031260E+03 -0.91189530251E+02  0.68588403827E+03  0.00000000000E+00 0.  1.
        -11    1    3    3    0    0  0.35613315930E+03 -0.34820325301E+03 -0.62788989386E+02  0.50201473060E+03  0.00000000000E+00 0. -1.
         22    1    1    2    0    0 -0.90856269348E+03  0.74436356561E+03  0.14405655167E+04  0.18587071565E+04  0.00000000000E+00 0.  1.
<mgrwt>
<rscale>  0 0.27616121E+04</rscale>
<asrwt>0</asrwt>
<pdfrwt beam="1">  1        2 0.13538607E+00 0.27616121E+04</pdfrwt>
<pdfrwt beam="2">  1       -2 0.33332253E+00 0.27616121E+04</pdfrwt>
<totfact> 0.52276160E-01</totfact>
</mgrwt>
</event>
<event>
 6    1  0.1585031E-006  0.6809688E+04  0.7818608E-02  0.7597387E-01
          2   -1    0    0  501    0  0.00000000000E+00  0.00000000000E+00  0.32789218406E+04  0.32789218406E+04  0.00000000000E+00 0. -1.
         -2   -1    0    0    0  501 -0.00000000000E+00 -0.00000000000E+00 -0.35356019840E+04  0.35356019840E+04  0.00000000000E+00 0.  1.
         23    2    1    2    0    0  0.30574231530E+03  0.32462599778E+04 -0.11077443337E+04  0.34446584768E+04  0.83019911867E+02 0.  0.
         13    1    3    3    0    0  0.18630829490E+02  0.30369757946E+03 -0.80348158976E+02  0.31469851323E+03  0.00000000000E+00 0. -1.
        -13    1    3    3    0    0  0.28711148581E+03  0.29425623984E+04 -0.10273961747E+04  0.31299599635E+04  0.00000000000E+00 0.  1.
         22    1    1    2    0    0 -0.30574231530E+03 -0.32462599778E+04  0.85106419024E+03  0.33698653479E+04  0.00000000000E+00 0.  1.
<mgrwt>
<rscale>  0 0.68096880E+04</rscale>
<asrwt>0</asrwt>
<pdfrwt beam="1">  1        2 0.50444952E+00 0.68096880E+04</pdfrwt>
<pdfrwt beam="2">  1       -2 0.54393877E+00 0.68096880E+04</pdfrwt>
<totfact> 0.68260513E-04</totfact>
</mgrwt>
</event>
<event>
 6    1  0.1585031E-006  0.9069871E+03  0.7818608E-02  0.9416889E-01
         -1   -1    0    0    0  501 -0.00000000000E+00  0.00000000000E+00  0.32174502108E+03  0.32174502108E+03  0.00000000000E+00 0.  1.
          1   -1    0    0  501    0  0.00000000000E+00 -0.00000000000E+00 -0.63919066776E+03  0.63919066776E+03  0.00000000000E+00 0. -1.
         23    2    1    2    0    0 -0.13389103950E+03 -0.17958474785E+03 -0.56896806762E+03  0.62412562314E+03  0.12502255544E+03 0.  0.
         11    1    3    3    0    0 -0.89867687977E+01  0.89884480435E+01 -0.12706511914E+03  0.12769925103E+03  0.00000000000E+00 0.  1.
        -11    1    3    3    0    0 -0.12490427070E+03 -0.18857319589E+03 -0.44190294848E+03  0.49642637211E+03  0.00000000000E+00 0. -1.
         22    1    1    2    0    0  0.13389103950E+03  0.17958474785E+03  0.25152242094E+03  0.33681006570E+03  0.00000000000E+00 0.  1.
<mgrwt>
<rscale>  0 0.90698713E+03</rscale>
<asrwt>0</asrwt>
<pdfrwt beam="1">  1        1 0.98337026E-01 0.90698713E+03</pdfrwt>
<pdfrwt beam="2">  1       -1 0.49499234E-01 0.90698713E+03</pdfrwt>
<totfact> 0.12866382E+02</totfact>
</mgrwt>
</event>
<event>
 6    1  0.1647052E-006  0.3279228E+04  0.7818608E-02  0.8168201E-01
          2   -1    0    0  501    0  0.00000000000E+00  0.00000000000E+00  0.24820726108E+04  0.24820726108E+04  0.00000000000E+00 0. -1.
         -2   -1    0    0    0  501 -0.00000000000E+00 -0.00000000000E+00 -0.10831005407E+04  0.10831005407E+04  0.00000000000E+00 0.  1.
         23    2    1    2    0    0  0.78123417009E+03  0.58773601732E+03 -0.72932442005E+03  0.12230787032E+04  0.90812718575E+02 0.  0.
         13    1    3    3    0    0  0.62144748919E+03  0.44857464192E+03 -0.61256303609E+03  0.98114711658E+03  0.00000000000E+00 0.  1.
        -13    1    3    3    0    0  0.15978668090E+03  0.13916137540E+03 -0.11676138396E+03  0.24193158657E+03  0.00000000000E+00 0. -1.
         22    1    1    2    0    0 -0.78123417009E+03 -0.58773601732E+03  0.21282964902E+04  0.23420944483E+04  0.00000000000E+00 0. -1.
<mgrwt>
<rscale>  0 0.32792281E+04</rscale>
<asrwt>0</asrwt>
<pdfrwt beam="1">  1        2 0.38185732E+00 0.32792281E+04</pdfrwt>
<pdfrwt beam="2">  1       -2 0.16663085E+00 0.32792281E+04</pdfrwt>
<totfact> 0.67198036E-01</totfact>
</mgrwt>
</event>
<event>
 6    1  0.1585031E-006  0.2174098E+04  0.7818608E-02  0.8529287E-01
          1   -1    0    0  501    0  0.00000000000E+00  0.00000000000E+00  0.28343668437E+04  0.28343668437E+04  0.00000000000E+00 0. -1.
         -1   -1    0    0    0  501 -0.00000000000E+00 -0.00000000000E+00 -0.41690982111E+03  0.41690982111E+03  0.00000000000E+00 0.  1.
         23    2    1    2    0    0 -0.29488484242E+03  0.45049041140E+03 -0.19808556550E+03  0.58089060448E+03  0.91089637521E+02 0.  0.
         13    1    3    3    0    0 -0.28995442936E+03  0.42137605133E+03 -0.16713379657E+03  0.53811249167E+03  0.00000000000E+00 0. -1.
        -13    1    3    3    0    0 -0.49304130570E+01  0.29114360071E+02 -0.30951768935E+02  0.42778112808E+02  0.00000000000E+00 0.  1.
         22    1    1    2    0    0  0.29488484242E+03 -0.45049041140E+03  0.26155425881E+04  0.26703860603E+04  0.00000000000E+00 0. -1.
<mgrwt>
<rscale>  0 0.21740979E+04</rscale>
<asrwt>0</asrwt>
<pdfrwt beam="1">  1        1 0.43605643E+00 0.21740979E+04</pdfrwt>
<pdfrwt beam="2">  1       -1 0.64139974E-01 0.21740979E+04</pdfrwt>
<totfact> 0.17750739E+00</totfact>
</mgrwt>
</event>
<event>
 6    1  0.1585031E-006  0.1390872E+04  0.7818608E-02  0.8960452E-01
         -2   -1    0    0    0  501 -0.00000000000E+00  0.00000000000E+00  0.27356433591E+03  0.27356433591E+03  0.00000000000E+00 0.  1.
          2   -1    0    0  501    0  0.00000000000E+00 -0.00000000000E+00 -0.17678895654E+04  0.17678895654E+04  0.00000000000E+00 0. -1.
         23    2    1    2    0    0 -0.65862124696E+03 -0.13313402028E+03 -0.99624386365E+03  0.12050379394E+04  0.90044351656E+02 0.  0.
         13    1    3    3    0    0 -0.37060659612E+03 -0.11771171047E+03 -0.54534441793E+03  0.66978043420E+03  0.00000000000E+00 0.  1.
        -13    1    3    3    0    0 -0.28801465084E+03 -0.15422309810E+02 -0.45089944571E+03  0.53525750521E+03  0.00000000000E+00 0. -1.
         22    1    1    2    0    0  0.65862124696E+03  0.13313402028E+03 -0.49808136581E+03  0.83641596187E+03  0.00000000000E+00 0.  1.
<mgrwt>
<rscale>  0 0.13908724E+04</rscale>
<asrwt>0</asrwt>
<pdfrwt beam="1">  1        2 0.27198301E+00 0.13908724E+04</pdfrwt>
<pdfrwt beam="2">  1       -2 0.42086821E-01 0.13908724E+04</pdfrwt>
<totfact> 0.46849959E+01</totfact>
</mgrwt>
</event>
<event>
 6    1  0.1585031E-006  0.4582505E+04  0.7818608E-02  0.7896350E-01
         -1   -1    0    0    0  501 -0.00000000000E+00  0.00000000000E+00  0.18752017040E+04  0.18752017040E+04  0.00000000000E+00 0.  1.
          1   -1    0    0  501    0  0.00000000000E+00 -0.00000000000E+00 -0.27996129676E+04  0.27996129676E+04  0.00000000000E+00 0. -1.
         23    2    1    2    0    0 -0.20425227704E+04  0.10251160819E+04 -0.61748573551E+03  0.23689600516E+04  0.88999121028E+02 0.  0.
         13    1    3    3    0    0 -0.13474051769E+04  0.65648915297E+03 -0.44460153958E+03  0.15633775128E+04  0.00000000000E+00 0. -1.
        -13    1    3    3    0    0 -0.69511759349E+03  0.36862692898E+03 -0.17288419593E+03  0.80558253876E+03  0.00000000000E+00 0.  1.
         22    1    1    2    0    0  0.20425227704E+04 -0.10251160819E+04 -0.30692552805E+03  0.23058546200E+04  0.00000000000E+00 0. -1.
<mgrwt>
<rscale>  0 0.45825054E+04</rscale>
<asrwt>0</asrwt>
<pdfrwt beam="1">  1        1 0.43070969E+00 0.45825054E+04</pdfrwt>
<pdfrwt beam="2">  1       -1 0.28849257E+00 0.45825054E+04</pdfrwt>
<totfact> 0.24407646E-02</totfact>
</mgrwt>
</event>
<event>
 6    1  0.1585031E-006  0.2667851E+04  0.7818608E-02  0.8345512E-01
         -1   -1    0    0    0  501 -0.00000000000E+00  0.00000000000E+00  0.95055533123E+03  0.95055533123E+03  0.00000000000E+00 0.  1.
          1   -1    0    0  501    0  0.00000000000E+00 -0.00000000000E+00 -0.18719140173E+04  0.18719140173E+04  0.00000000000E+00 0. -1.
         23    2    1    2    0    0  0.85786445858E+03 -0.10696289649E+03  0.61165208611E+03  0.10624993152E+04  0.86104761396E+02 0.  0.
         11    1    3    3    0    0  0.63963811615E+03 -0.70487305751E+02  0.40916408592E+03  0.76257499900E+03  0.00000000000E+00 0. -1.
        -11    1    3    3    0    0  0.21822634243E+03 -0.36475590737E+02  0.20248800019E+03  0.29992431624E+03  0.00000000000E+00 0.  1.
         22    1    1    2    0    0 -0.85786445858E+03  0.10696289649E+03 -0.15330107722E+04  0.17599700333E+04  0.00000000000E+00 0.  1.
<mgrwt>
<rscale>  0 0.26678515E+04</rscale>
<asrwt>0</asrwt>
<pdfrwt beam="1">  1        1 0.28798677E+00 0.26678515E+04</pdfrwt>
<pdfrwt beam="2">  1       -1 0.14623928E+00 0.26678515E+04</pdfrwt>
<totfact> 0.11904978E+00</totfact>
</mgrwt>
</event>
<event>
 6    1  0.1585031E-006  0.1884060E+04  0.7818608E-02  0.8662832E-01
         -1   -1    0    0    0  501 -0.00000000000E+00  0.00000000000E+00  0.50747152560E+03  0.50747152560E+03  0.00000000000E+00 0.  1.
          1   -1    0    0  501    0  0.00000000000E+00 -0.00000000000E+00 -0.17487099871E+04  0.17487099871E+04  0.00000000000E+00 0. -1.
         23    2    1    2    0    0  0.65775362109E+03  0.10543274577E+03 -0.14159452332E+04  0.15675028170E+04  0.91696716695E+02 0.  0.
         11    1    3    3    0    0  0.43828949203E+03  0.36088769959E+02 -0.86368975072E+03  0.96920589331E+03  0.00000000000E+00 0.  1.
        -11    1    3    3    0    0  0.21946412906E+03  0.69343975812E+02 -0.55225548247E+03  0.59829692365E+03  0.00000000000E+00 0. -1.
         22    1    1    2    0    0 -0.65775362109E+03 -0.10543274577E+03  0.17470677166E+03  0.68867869577E+03  0.00000000000E+00 0.  1.
<mgrwt>
<rscale>  0 0.18840600E+04</rscale>
<asrwt>0</asrwt>
<pdfrwt beam="1">  1        1 0.26903231E+00 0.18840600E+04</pdfrwt>
<pdfrwt beam="2">  1       -1 0.78072542E-01 0.18840600E+04</pdfrwt>
<totfact> 0.67950371E+00</totfact>
</mgrwt>
</event>
<event>
 6    1  0.1585031E-006  0.2964662E+04  0.7818608E-02  0.8253894E-01
          2   -1    0    0  501    0  0.00000000000E+00  0.00000000000E+00  0.28106009223E+04  0.28106009223E+04  0.00000000000E+00 0. -1.
         -2   -1    0    0    0  501 -0.00000000000E+00 -0.00000000000E+00 -0.78179197333E+03  0.78179197333E+03  0.00000000000E+00 0.  1.
         23    2    1    2    0    0 -0.10290302467E+04 -0.31168332157E+02 -0.27455282568E+03  0.10694283341E+04  0.91776871623E+02 0.  0.
         11    1    3    3    0    0 -0.97445426452E+03 -0.41708232912E+02 -0.27659175580E+03  0.10138065347E+04  0.00000000000E+00 0. -1.
        -11    1    3    3    0    0 -0.54575982219E+02  0.10539900755E+02  0.20389301225E+01  0.55621799495E+02  0.00000000000E+00 0.  1.
         22    1    1    2    0    0  0.10290302467E+04  0.31168332157E+02  0.23033617747E+04  0.25229645615E+04  0.00000000000E+00 0. -1.
<mgrwt>
<rscale>  0 0.29646620E+04</rscale>
<asrwt>0</asrwt>
<pdfrwt beam="1">  1        2 0.43240014E+00 0.29646620E+04</pdfrwt>
<pdfrwt beam="2">  1       -2 0.12027569E+00 0.29646620E+04</pdfrwt>
<totfact> 0.10322965E+00</totfact>
</mgrwt>
</event>
<event>
 6    1  0.1585031E-006  0.1993670E+04  0.7818608E-02  0.8609586E-01
         -1   -1    0    0    0  501 -0.00000000000E+00  0.00000000000E+00  0.33303319900E+03  0.33303319900E+03  0.00000000000E+00 0.  1.
          1   -1    0    0  501    0  0.00000000000E+00 -0.00000000000E+00 -0.29837254703E+04  0.29837254703E+04  0.00000000000E+00 0. -1.
         23    2    1    2    0    0  0.93020505362E+03  0.33283769521E+03 -0.15228392385E+04  0.18173871888E+04  0.88286320546E+02 0.  0.
         11    1    3    3    0    0  0.73737489836E+03  0.28667063033E+03 -0.11639413426E+04  0.14073596697E+04  0.00000000000E+00 0. -1.
        -11    1    3    3    0    0  0.19283015525E+03  0.46167064872E+02 -0.35889789591E+03  0.41002751901E+03  0.00000000000E+00 0.  1.
         22    1    1    2    0    0 -0.93020505362E+03 -0.33283769521E+03 -0.11278530328E+04  0.14993714806E+04  0.00000000000E+00 0.  1.
<mgrwt>
<rscale>  0 0.19936696E+04</rscale>
<asrwt>0</asrwt>
<pdfrwt beam="1">  1        1 0.45903469E+00 0.19936696E+04</pdfrwt>
<pdfrwt beam="2">  1       -1 0.51235877E-01 0.19936696E+04</pdfrwt>
<totfact> 0.21883468E+00</totfact>
</mgrwt>
</event>
<event>
 6    1  0.1585031E-006  0.1388601E+04  0.7818608E-02  0.8962111E-01
         -1   -1    0    0    0  501 -0.00000000000E+00  0.00000000000E+00  0.13112974397E+03  0.13112974397E+03  0.00000000000E+00 0.  1.
          1   -1    0    0  501    0  0.00000000000E+00 -0.00000000000E+00 -0.36761568789E+04  0.36761568789E+04  0.00000000000E+00 0. -1.
         23    2    1    2    0    0  0.43792377969E+03 -0.19484609271E+03 -0.31459052901E+04  0.31835555240E+04  0.92538875737E+02 0.  0.
         11    1    3    3    0    0  0.36763942588E+03 -0.19843966936E+03 -0.27005130616E+04  0.27326375254E+04  0.00000000000E+00 0. -1.
        -11    1    3    3    0    0  0.70284353813E+02  0.35935766493E+01 -0.44539222858E+03  0.45091799860E+03  0.00000000000E+00 0.  1.
         22    1    1    2    0    0 -0.43792377969E+03  0.19484609271E+03 -0.39912184480E+03  0.62373109883E+03  0.00000000000E+00 0.  1.
<mgrwt>
<rscale>  0 0.13886015E+04</rscale>
<asrwt>0</asrwt>
<pdfrwt beam="1">  1        1 0.56556256E+00 0.13886015E+04</pdfrwt>
<pdfrwt beam="2">  1       -1 0.20173808E-01 0.13886015E+04</pdfrwt>
<totfact> 0.36141379E+00</totfact>
</mgrwt>
</event>
<event>
 6    1  0.1585031E-006  0.2519459E+04  0.7818608E-02  0.8396086E-01
          1   -1    0    0  501    0  0.00000000000E+00  0.00000000000E+00  0.37552635426E+04  0.37552635426E+04  0.00000000000E+00 0. -1.
         -1   -1    0    0    0  501 -0.00000000000E+00 -0.00000000000E+00 -0.42258517470E+03  0.42258517470E+03  0.00000000000E+00 0.  1.
         23    2    1    2    0    0 -0.71419332445E+02 -0.62194193865E+03  0.34780980208E+04  0.35351517658E+04  0.90662388967E+02 0.  0.
         13    1    3    3    0    0 -0.70635083192E+02 -0.39006527951E+03  0.23863674399E+04  0.24190679601E+04  0.00000000000E+00 0. -1.
        -13    1    3    3    0    0 -0.78424925222E+00 -0.23187665914E+03  0.10917305809E+04  0.11160838057E+04  0.00000000000E+00 0.  1.
         22    1    1    2    0    0  0.71419332445E+02  0.62194193865E+03 -0.14541965285E+03  0.64269695155E+03  0.00000000000E+00 0.  1.
<mgrwt>
<rscale>  0 0.25194592E+04</rscale>
<asrwt>0</asrwt>
<pdfrwt beam="1">  1        1 0.57773283E+00 0.25194592E+04</pdfrwt>
<pdfrwt beam="2">  1       -1 0.65013107E-01 0.25194592E+04</pdfrwt>
<totfact> 0.33095596E-01</totfact>
</mgrwt>
</event>
<event>
 6    1  0.1585031E-006  0.1386610E+04  0.7818608E-02  0.8963568E-01
         -1   -1    0    0    0  501 -0.00000000000E+00  0.00000000000E+00  0.26405014786E+03  0.26405014786E+03  0.00000000000E+00 0.  1.
          1   -1    0    0  501    0  0.00000000000E+00 -0.00000000000E+00 -0.18203819374E+04  0.18203819374E+04  0.00000000000E+00 0. -1.
         23    2    1    2    0    0  0.49390435340E+03  0.24308085446E+03 -0.14074370793E+04  0.15141694731E+04  0.93809641676E+02 0.  0.
         11    1    3    3    0    0  0.23317508572E+03  0.65821125101E+02 -0.57043994365E+03  0.61976186589E+03  0.00000000000E+00 0.  1.
        -11    1    3    3    0    0  0.26072926768E+03  0.17725972936E+03 -0.83699713570E+03  0.89440760722E+03  0.00000000000E+00 0. -1.
         22    1    1    2    0    0 -0.49390435340E+03 -0.24308085446E+03 -0.14889471022E+03  0.57026261217E+03  0.00000000000E+00 0.  1.
<mgrwt>
<rscale>  0 0.13866104E+04</rscale>
<asrwt>0</asrwt>
<pdfrwt beam="1">  1        1 0.28005877E+00 0.13866104E+04</pdfrwt>
<pdfrwt beam="2">  1       -1 0.40623099E-01 0.13866104E+04</pdfrwt>
<totfact> 0.22813086E+01</totfact>
</mgrwt>
</event>
<event>
 6    1  0.1585031E-006  0.8853844E+03  0.7818608E-02  0.9444038E-01
          2   -1    0    0  501    0  0.00000000000E+00  0.00000000000E+00  0.30260260426E+03  0.30260260426E+03  0.00000000000E+00 0. -1.
         -2   -1    0    0    0  501 -0.00000000000E+00 -0.00000000000E+00 -0.64763617407E+03  0.64763617407E+03  0.00000000000E+00 0.  1.
         23    2    1    2    0    0  0.13559856404E+03  0.41188607683E+02 -0.61902327478E+03  0.64176863325E+03  0.92702167869E+02 0.  0.
         13    1    3    3    0    0  0.29914724828E+02  0.45035944355E+02 -0.32138352987E+03  0.32589952488E+03  0.00000000000E+00 0. -1.
        -13    1    3    3    0    0  0.10568383921E+03 -0.38473366722E+01 -0.29763974491E+03  0.31586910837E+03  0.00000000000E+00 0.  1.
         22    1    1    2    0    0 -0.13559856404E+03 -0.41188607683E+02  0.27398970498E+03  0.30847014508E+03  0.00000000000E+00 0. -1.
<mgrwt>
<rscale>  0 0.88538442E+03</rscale>
<asrwt>0</asrwt>
<pdfrwt beam="1">  1        2 0.46554248E-01 0.88538442E+03</pdfrwt>
<pdfrwt beam="2">  1       -2 0.99636333E-01 0.88538442E+03</pdfrwt>
<totfact> 0.90960147E+01</totfact>
</mgrwt>
</event>
<event>
 6    1  0.1585031E-006  0.2436894E+04  0.7818608E-02  0.8425819E-01
          1   -1    0    0  501    0  0.00000000000E+00  0.00000000000E+00  0.24310231588E+04  0.24310231588E+04  0.00000000000E+00 0. -1.
         -1   -1    0    0    0  501 -0.00000000000E+00 -0.00000000000E+00 -0.61069453316E+03  0.61069453316E+03  0.00000000000E+00 0.  1.
         23    2    1    2    0    0  0.55619275801E+03  0.64295135581E+03  0.19976015880E+04  0.21732923738E+04  0.10025371615E+03 0.  0.
         13    1    3    3    0    0  0.25685294574E+03  0.36432903324E+03  0.98146232100E+03  0.10779505405E+04  0.00000000000E+00 0.  1.
        -13    1    3    3    0    0  0.29933981227E+03  0.27862232257E+03  0.10161392670E+04  0.10953418333E+04  0.00000000000E+00 0. -1.
         22    1    1    2    0    0 -0.55619275801E+03 -0.64295135581E+03 -0.17727296238E+03  0.86842531814E+03  0.00000000000E+00 0.  1.
<mgrwt>
<rscale>  0 0.24368936E+04</rscale>
<asrwt>0</asrwt>
<pdfrwt beam="1">  1        1 0.37400356E+00 0.24368936E+04</pdfrwt>
<pdfrwt beam="2">  1       -1 0.93953006E-01 0.24368936E+04</pdfrwt>
<totfact> 0.14824847E+00</totfact>
</mgrwt>
</event>
<event>
 6    1  0.1585031E-006  0.1815466E+04  0.7818608E-02  0.8698118E-01
          2   -1    0    0  501    0  0.00000000000E+00  0.00000000000E+00  0.88792248131E+03  0.88792248131E+03  0.00000000000E+00 0. -1.
         -2   -1    0    0    0  501 -0.00000000000E+00 -0.00000000000E+00 -0.92798527636E+03  0.92798527636E+03  0.00000000000E+00 0.  1.
         23    2    1    2    0    0  0.14602243184E+02 -0.84998123746E+03 -0.33158392274E+03  0.91720541683E+03  0.92933036667E+02 0.  0.
         13    1    3    3    0    0 -0.23774811920E+02 -0.68597689519E+02 -0.34360772833E+02  0.80321525128E+02  0.00000000000E+00 0.  1.
        -13    1    3    3    0    0  0.38377055104E+02 -0.78138354794E+03 -0.29722314990E+03  0.83688389170E+03  0.00000000000E+00 0. -1.
         22    1    1    2    0    0 -0.14602243184E+02  0.84998123746E+03  0.29152112768E+03  0.89870234084E+03  0.00000000000E+00 0. -1.
<mgrwt>
<rscale>  0 0.18154658E+04</rscale>
<asrwt>0</asrwt>
<pdfrwt beam="1">  1        2 0.13660346E+00 0.18154658E+04</pdfrwt>
<pdfrwt beam="2">  1       -2 0.14276697E+00 0.18154658E+04</pdfrwt>
<totfact> 0.96138765E+00</totfact>
</mgrwt>
</event>
<event>
 6    1  0.1585031E-006  0.1246004E+04  0.7818608E-02  0.9073516E-01
          1   -1    0    0  501    0  0.00000000000E+00  0.00000000000E+00  0.11562218052E+04  0.11562218052E+04  0.00000000000E+00 0. -1.
         -1   -1    0    0    0  501 -0.00000000000E+00 -0.00000000000E+00 -0.33568925880E+03  0.33568925880E+03  0.00000000000E+00 0.  1.
         23    2    1    2    0    0  0.52441328221E+03 -0.39375787142E+02  0.80504007497E+03  0.96579343474E+03  0.90042729350E+02 0.  0.
         13    1    3    3    0    0  0.45256208916E+03 -0.52128206377E+02  0.64240224906E+03  0.78753440817E+03  0.00000000000E+00 0. -1.
        -13    1    3    3    0    0  0.71851193044E+02  0.12752419235E+02  0.16263782590E+03  0.17825902657E+03  0.00000000000E+00 0.  1.
         22    1    1    2    0    0 -0.52441328221E+03  0.39375787142E+02  0.15492471439E+02  0.52611762928E+03  0.00000000000E+00 0.  1.
<mgrwt>
<rscale>  0 0.12460036E+04</rscale>
<asrwt>0</asrwt>
<pdfrwt beam="1">  1        1 0.17788028E+00 0.12460036E+04</pdfrwt>
<pdfrwt beam="2">  1       -1 0.51644502E-01 0.12460036E+04</pdfrwt>
<totfact> 0.42826060E+01</totfact>
</mgrwt>
</event>
<event>
 6    1  0.1585031E-006  0.1127704E+04  0.7818608E-02  0.9178603E-01
         -2   -1    0    0    0  501 -0.00000000000E+00  0.00000000000E+00  0.32039910269E+03  0.32039910269E+03  0.00000000000E+00 0.  1.
          2   -1    0    0  501    0  0.00000000000E+00 -0.00000000000E+00 -0.99229064947E+03  0.99229064947E+03  0.00000000000E+00 0. -1.
         23    2    1    2    0    0 -0.54114023377E+02  0.51585254265E+03 -0.92187686579E+02  0.53481525147E+03  0.92177059859E+02 0.  0.
         11    1    3    3    0    0 -0.54914696327E+02  0.19419788236E+03 -0.64956634189E+02  0.21200897554E+03  0.00000000000E+00 0.  1.
        -11    1    3    3    0    0  0.80067294990E+00  0.32165466030E+03 -0.27231052390E+02  0.32280627593E+03  0.00000000000E+00 0. -1.
         22    1    1    2    0    0  0.54114023377E+02 -0.51585254265E+03 -0.57970386020E+03  0.77787450069E+03  0.00000000000E+00 0. -1.
<mgrwt>
<rscale>  0 0.11277039E+04</rscale>
<asrwt>0</asrwt>
<pdfrwt beam="1">  1        2 0.15266010E+00 0.11277039E+04</pdfrwt>
<pdfrwt beam="2">  1       -2 0.49292171E-01 0.11277039E+04</pdfrwt>
<totfact> 0.98369702E+01</totfact>
</mgrwt>
</event>
<event>
 6    1  0.1585031E-006  0.6161858E+03  0.7818608E-02  0.9872383E-01
         -1   -1    0    0    0  501 -0.00000000000E+00  0.00000000000E+00  0.66131848479E+03  0.66131848479E+03  0.00000000000E+00 0.  1.
          1   -1    0    0  501    0  0.00000000000E+00 -0.00000000000E+00 -0.14353331343E+03  0.14353331343E+03  0.00000000000E+00 0. -1.
         23    2    1    2    0    0 -0.27039621315E+03 -0.60119960232E+02  0.41944116049E+03  0.51091291651E+03  0.91501909474E+02 0.  0.
         13    1    3    3    0    0 -0.60714537077E+02 -0.53720950518E+02  0.99748467692E+02  0.12853774677E+03  0.00000000000E+00 0. -1.
        -13    1    3    3    0    0 -0.20968167607E+03 -0.63990097143E+01  0.31969269280E+03  0.38237516974E+03  0.00000000000E+00 0.  1.
         22    1    1    2    0    0  0.27039621315E+03  0.60119960232E+02  0.98344010871E+02  0.29393888171E+03  0.00000000000E+00 0. -1.
<mgrwt>
<rscale>  0 0.61618579E+03</rscale>
<asrwt>0</asrwt>
<pdfrwt beam="1">  1        1 0.22082049E-01 0.61618579E+03</pdfrwt>
<pdfrwt beam="2">  1       -1 0.10174130E+00 0.61618579E+03</pdfrwt>
<totfact> 0.21440573E+02</totfact>
</mgrwt>
</event>
<event>
 6    1  0.1585031E-006  0.1688825E+04  0.7818608E-02  0.8767763E-01
          2   -1    0    0  501    0  0.00000000000E+00  0.00000000000E+00  0.28372959628E+04  0.28372959628E+04  0.00000000000E+00 0. -1.
         -2   -1    0    0    0  501 -0.00000000000E+00 -0.00000000000E+00 -0.25130714547E+03  0.25130714547E+03  0.00000000000E+00 0.  1.
         23    2    1    2    0    0 -0.60173591525E+03 -0.29375225487E+03  0.22314605282E+04  0.23309311432E+04  0.73806546865E+02 0.  0.
         13    1    3    3    0    0 -0.48734505714E+03 -0.20423602272E+03  0.17520988653E+04  0.18300458988E+04  0.00000000000E+00 0.  1.
        -13    1    3    3    0    0 -0.11439085811E+03 -0.89516232144E+02  0.47936166287E+03  0.50088524441E+03  0.00000000000E+00 0. -1.
         22    1    1    2    0    0  0.60173591525E+03  0.29375225487E+03  0.35452828919E+03  0.75767196515E+03  0.00000000000E+00 0. -1.
<mgrwt>
<rscale>  0 0.16888253E+04</rscale>
<asrwt>0</asrwt>
<pdfrwt beam="1">  1        2 0.43650705E+00 0.16888253E+04</pdfrwt>
<pdfrwt beam="2">  1       -2 0.38662640E-01 0.16888253E+04</pdfrwt>
<totfact> 0.13261562E+01</totfact>
</mgrwt>
</event>
<event>
 6    1  0.1585031E-006  0.1138234E+04  0.7818608E-02  0.9168707E-01
          2   -1    0    0  501    0  0.00000000000E+00  0.00000000000E+00  0.79353078949E+03  0.79353078949E+03  0.00000000000E+00 0. -1.
         -2   -1    0    0    0  501 -0.00000000000E+00 -0.00000000000E+00 -0.40816841396E+03  0.40816841396E+03  0.00000000000E+00 0.  1.
         23    2    1    2    0    0 -0.16466116868E+03  0.47982956108E+03  0.45861082868E+03  0.68914184661E+03  0.85105137427E+02 0.  0.
         13    1    3    3    0    0 -0.32438028043E+02  0.62124329407E+02  0.30032346572E+02  0.76246965895E+02  0.00000000000E+00 0. -1.
        -13    1    3    3    0    0 -0.13222314064E+03  0.41770523167E+03  0.42857848211E+03  0.61289488072E+03  0.00000000000E+00 0.  1.
         22    1    1    2    0    0  0.16466116868E+03 -0.47982956108E+03 -0.73248453145E+02  0.51255735683E+03  0.00000000000E+00 0.  1.
<mgrwt>
<rscale>  0 0.11382341E+04</rscale>
<asrwt>0</asrwt>
<pdfrwt beam="1">  1        2 0.12208166E+00 0.11382341E+04</pdfrwt>
<pdfrwt beam="2">  1       -2 0.62795141E-01 0.11382341E+04</pdfrwt>
<totfact> 0.81119480E+01</totfact>
</mgrwt>
</event>
<event>
 6    1  0.1585031E-006  0.2727509E+04  0.7818608E-02  0.8326134E-01
          2   -1    0    0  501    0  0.00000000000E+00  0.00000000000E+00  0.28652756697E+04  0.28652756697E+04  0.00000000000E+00 0. -1.
         -2   -1    0    0    0  501 -0.00000000000E+00 -0.00000000000E+00 -0.64909164976E+03  0.64909164976E+03  0.00000000000E+00 0.  1.
         23    2    1    2    0    0  0.93971355233E+03  0.41421419668E+03  0.22625816556E+04  0.24863655190E+04  0.90015469654E+02 0.  0.
         11    1    3    3    0    0  0.30204249883E+03  0.16217264301E+03  0.83573660853E+03  0.90331905553E+03  0.00000000000E+00 0. -1.
        -11    1    3    3    0    0  0.63767105350E+03  0.25204155367E+03  0.14268450471E+04  0.15830464635E+04  0.00000000000E+00 0.  1.
         22    1    1    2    0    0 -0.93971355233E+03 -0.41421419668E+03 -0.46397635628E+02  0.10280018005E+04  0.00000000000E+00 0.  1.
<mgrwt>
<rscale>  0 0.27275091E+04</rscale>
<asrwt>0</asrwt>
<pdfrwt beam="1">  1        2 0.44081163E+00 0.27275091E+04</pdfrwt>
<pdfrwt beam="2">  1       -2 0.99860256E-01 0.27275091E+04</pdfrwt>
<totfact> 0.15302849E+00</totfact>
</mgrwt>
</event>
<event>
 6    1  0.1585031E-006  0.3944101E+04  0.7818608E-02  0.8015919E-01
          1   -1    0    0  501    0  0.00000000000E+00  0.00000000000E+00  0.25108432869E+04  0.25108432869E+04  0.00000000000E+00 0. -1.
         -1   -1    0    0    0  501 -0.00000000000E+00 -0.00000000000E+00 -0.15488754982E+04  0.15488754982E+04  0.00000000000E+00 0.  1.
         23    2    1    2    0    0  0.83880180514E+03  0.84322528705E+03 -0.11364575198E+04  0.16476644473E+04  0.92978940971E+02 0.  0.
         11    1    3    3    0    0  0.60909632635E+03  0.61952001357E+03 -0.88512654296E+03  0.12402630282E+04  0.00000000000E+00 0.  1.
        -11    1    3    3    0    0  0.22970547880E+03  0.22370527348E+03 -0.25133097686E+03  0.40740141912E+03  0.00000000000E+00 0. -1.
         22    1    1    2    0    0 -0.83880180514E+03 -0.84322528705E+03  0.20984253085E+04  0.24120543378E+04  0.00000000000E+00 0. -1.
<mgrwt>
<rscale>  0 0.39441012E+04</rscale>
<asrwt>0</asrwt>
<pdfrwt beam="1">  1        1 0.38628358E+00 0.39441012E+04</pdfrwt>
<pdfrwt beam="2">  1       -1 0.23828854E+00 0.39441012E+04</pdfrwt>
<totfact> 0.87098801E-02</totfact>
</mgrwt>
</event>
<event>
 6    1  0.1585031E-006  0.3272826E+04  0.7818608E-02  0.8169845E-01
          1   -1    0    0  501    0  0.00000000000E+00  0.00000000000E+00  0.13894050947E+04  0.13894050947E+04  0.00000000000E+00 0. -1.
         -1   -1    0    0    0  501 -0.00000000000E+00 -0.00000000000E+00 -0.19273333406E+04  0.19273333406E+04  0.00000000000E+00 0.  1.
         23    2    1    2    0    0 -0.43278026708E+02  0.46532512412E+03  0.13188781951E+04  0.14020241961E+04  0.88496860254E+02 0.  0.
         11    1    3    3    0    0 -0.56906565518E+02  0.27963124526E+03  0.70611563737E+03  0.76159784917E+03  0.00000000000E+00 0. -1.
        -11    1    3    3    0    0  0.13628538811E+02  0.18569387886E+03  0.61276255770E+03  0.64042634692E+03  0.00000000000E+00 0.  1.
         22    1    1    2    0    0  0.43278026708E+02 -0.46532512412E+03 -0.18568064410E+04  0.19147142392E+04  0.00000000000E+00 0.  1.
<mgrwt>
<rscale>  0 0.32728255E+04</rscale>
<asrwt>0</asrwt>
<pdfrwt beam="1">  1        1 0.21375463E+00 0.32728255E+04</pdfrwt>
<pdfrwt beam="2">  1       -1 0.29651282E+00 0.32728255E+04</pdfrwt>
<totfact> 0.22606866E-01</totfact>
</mgrwt>
</event>
<event>
 6    1  0.1585031E-006  0.4239037E+04  0.7818608E-02  0.7957988E-01
         -2   -1    0    0    0  501 -0.00000000000E+00  0.00000000000E+00  0.24795427936E+04  0.24795427936E+04  0.00000000000E+00 0.  1.
          2   -1    0    0  501    0  0.00000000000E+00 -0.00000000000E+00 -0.18117689536E+04  0.18117689536E+04  0.00000000000E+00 0. -1.
         23    2    1    2    0    0  0.16936914366E+03  0.20605575812E+04 -0.13478451423E+03  0.20735012584E+04  0.81591366522E+02 0.  0.
         11    1    3    3    0    0  0.85206668675E+02  0.12217386321E+04 -0.42619320150E+02  0.12254476194E+04  0.00000000000E+00 0. -1.
        -11    1    3    3    0    0  0.84162474988E+02  0.83881894911E+03 -0.92165194075E+02  0.84805363897E+03  0.00000000000E+00 0.  1.
         22    1    1    2    0    0 -0.16936914366E+03 -0.20605575812E+04  0.80255835430E+03  0.22178104888E+04  0.00000000000E+00 0.  1.
<mgrwt>
<rscale>  0 0.42390370E+04</rscale>
<asrwt>0</asrwt>
<pdfrwt beam="1">  1        2 0.27873368E+00 0.42390370E+04</pdfrwt>
<pdfrwt beam="2">  1       -2 0.38146812E+00 0.42390370E+04</pdfrwt>
<totfact> 0.64418120E-02</totfact>
</mgrwt>
</event>
<event>
 6    1  0.1585031E-006  0.1816625E+04  0.7818608E-02  0.8697508E-01
          1   -1    0    0  501    0  0.00000000000E+00  0.00000000000E+00  0.14057666540E+04  0.14057666540E+04  0.00000000000E+00 0. -1.
         -1   -1    0    0    0  501 -0.00000000000E+00 -0.00000000000E+00 -0.58689097571E+03  0.58689097571E+03  0.00000000000E+00 0.  1.
         23    2    1    2    0    0  0.70802098929E+03  0.43565582976E+03  0.80479567498E+03  0.11612203381E+04  0.98218490697E+02 0.  0.
         11    1    3    3    0    0  0.27993206760E+03  0.11690614315E+03  0.29478770232E+03  0.42299976149E+03  0.00000000000E+00 0. -1.
        -11    1    3    3    0    0  0.42808892169E+03  0.31874968661E+03  0.51000797266E+03  0.73822057663E+03  0.00000000000E+00 0.  1.
         22    1    1    2    0    0 -0.70802098929E+03 -0.43565582976E+03  0.14080003272E+02  0.83143729154E+03  0.00000000000E+00 0. -1.
<mgrwt>
<rscale>  0 0.18166252E+04</rscale>
<asrwt>0</asrwt>
<pdfrwt beam="1">  1        1 0.21627179E+00 0.18166252E+04</pdfrwt>
<pdfrwt beam="2">  1       -1 0.90290920E-01 0.18166252E+04</pdfrwt>
<totfact> 0.86018288E+00</totfact>
</mgrwt>
</event>
<event>
 6    1  0.1585031E-006  0.7489481E+03  0.7818608E-02  0.9637002E-01
          1   -1    0    0  501    0  0.00000000000E+00  0.00000000000E+00  0.13940180808E+04  0.13940180808E+04  0.00000000000E+00 0. -1.
         -1   -1    0    0    0  501 -0.00000000000E+00 -0.00000000000E+00 -0.10059467693E+03  0.10059467693E+03  0.00000000000E+00 0.  1.
         23    2    1    2    0    0  0.14368111243E+03 -0.12379779197E+03  0.12870101158E+04  0.13048463602E+04  0.10128588397E+03 0.  0.
         11    1    3    3    0    0  0.12988352092E+02 -0.53239928622E+02  0.18731104591E+03  0.19516304775E+03  0.00000000000E+00 0. -1.
        -11    1    3    3    0    0  0.13069276034E+03 -0.70557863346E+02  0.10996990699E+04  0.11096833125E+04  0.00000000000E+00 0.  1.
         22    1    1    2    0    0 -0.14368111243E+03  0.12379779197E+03  0.64132881091E+01  0.18976639753E+03  0.00000000000E+00 0.  1.
<mgrwt>
<rscale>  0 0.74894806E+03</rscale>
<asrwt>0</asrwt>
<pdfrwt beam="1">  1        1 0.21446431E+00 0.74894806E+03</pdfrwt>
<pdfrwt beam="2">  1       -1 0.15476105E-01 0.74894806E+03</pdfrwt>
<totfact> 0.24649808E+02</totfact>
</mgrwt>
</event>
<event>
 6    1  0.1585031E-006  0.3070707E+04  0.7818608E-02  0.8223823E-01
          2   -1    0    0  501    0  0.00000000000E+00  0.00000000000E+00  0.24479723298E+04  0.24479723298E+04  0.00000000000E+00 0. -1.
         -2   -1    0    0    0  501 -0.00000000000E+00 -0.00000000000E+00 -0.96296464891E+03  0.96296464891E+03  0.00000000000E+00 0.  1.
         23    2    1    2    0    0  0.32273273643E+02  0.10694919612E+04 -0.47788468100E+03  0.11753607569E+04  0.90799345967E+02 0.  0.
         13    1    3    3    0    0  0.19218619042E+02  0.68663316749E+03 -0.25867158750E+03  0.73399281481E+03  0.00000000000E+00 0.  1.
        -13    1    3    3    0    0  0.13054654601E+02  0.38285879370E+03 -0.21921309350E+03  0.44136794207E+03  0.00000000000E+00 0. -1.
         22    1    1    2    0    0 -0.32273273643E+02 -0.10694919612E+04  0.19628923619E+04  0.22355762219E+04  0.00000000000E+00 0. -1.
<mgrwt>
<rscale>  0 0.30707073E+04</rscale>
<asrwt>0</asrwt>
<pdfrwt beam="1">  1        2 0.37661113E+00 0.30707073E+04</pdfrwt>
<pdfrwt beam="2">  1       -2 0.14814841E+00 0.30707073E+04</pdfrwt>
<totfact> 0.98299654E-01</totfact>
</mgrwt>
</event>
<event>
 6    1  0.1585031E-006  0.1275512E+04  0.7818608E-02  0.9049213E-01
         -4   -1    0    0    0  501 -0.00000000000E+00  0.00000000000E+00  0.63451446586E+03  0.63451446586E+03  0.00000000000E+00 0.  1.
          4   -1    0    0  501    0  0.00000000000E+00 -0.00000000000E+00 -0.64101447671E+03  0.64101447671E+03  0.00000000000E+00 0. -1.
         23    2    1    2    0    0 -0.32040685593E+03  0.14575985327E+03 -0.53126467895E+03  0.64363935963E+03  0.90127565173E+02 0.  0.
         11    1    3    3    0    0 -0.10269455622E+03  0.44821201802E+01 -0.12950546143E+03  0.16534184534E+03  0.00000000000E+00 0.  1.
        -11    1    3    3    0    0 -0.21771229971E+03  0.14127773309E+03 -0.40175921752E+03  0.47829751429E+03  0.00000000000E+00 0. -1.
         22    1    1    2    0    0  0.32040685593E+03 -0.14575985327E+03  0.52476466810E+03  0.63188958295E+03  0.00000000000E+00 0.  1.
<mgrwt>
<rscale>  0 0.12755124E+04</rscale>
<asrwt>0</asrwt>
<pdfrwt beam="1">  1        4 0.98617611E-01 0.12755124E+04</pdfrwt>
<pdfrwt beam="2">  1       -4 0.97617610E-01 0.12755124E+04</pdfrwt>
<totfact> 0.14626571E+00</totfact>
</mgrwt>
</event>
<event>
 6    1  0.1585031E-006  0.1248648E+04  0.7818608E-02  0.9071309E-01
         -1   -1    0    0    0  501 -0.00000000000E+00  0.00000000000E+00  0.52493880074E+03  0.52493880074E+03  0.00000000000E+00 0.  1.
          1   -1    0    0  501    0  0.00000000000E+00 -0.00000000000E+00 -0.74252556473E+03  0.74252556473E+03  0.00000000000E+00 0. -1.
         23    2    1    2    0    0  0.14160414391E+02  0.17095043645E+03 -0.71505556594E+03  0.74125169175E+03  0.93407917615E+02 0.  0.
         13    1    3    3    0    0  0.23463632045E+02  0.11641364659E+03 -0.30203957782E+03  0.32454673887E+03  0.00000000000E+00 0. -1.
        -13    1    3    3    0    0 -0.93032176541E+01  0.54536789860E+02 -0.41301598812E+03  0.41670495287E+03  0.00000000000E+00 0.  1.
         22    1    1    2    0    0 -0.14160414391E+02 -0.17095043645E+03  0.49746880196E+03  0.52621267372E+03  0.00000000000E+00 0.  1.
<mgrwt>
<rscale>  0 0.12486480E+04</rscale>
<asrwt>0</asrwt>
<pdfrwt beam="1">  1        1 0.11423470E+00 0.12486480E+04</pdfrwt>
<pdfrwt beam="2">  1       -1 0.80759816E-01 0.12486480E+04</pdfrwt>
<totfact> 0.37526577E+01</totfact>
</mgrwt>
</event>
<event>
 6    1  0.1585031E-006  0.6376537E+03  0.7818608E-02  0.9830226E-01
          1   -1    0    0  501    0  0.00000000000E+00  0.00000000000E+00  0.82117142299E+03  0.82117142299E+03  0.00000000000E+00 0. -1.
         -1   -1    0    0    0  501 -0.00000000000E+00 -0.00000000000E+00 -0.12378725302E+03  0.12378725302E+03  0.00000000000E+00 0.  1.
         23    2    1    2    0    0 -0.23297302172E+03 -0.16022610970E+03  0.55202967845E+03  0.62703295625E+03  0.92112579266E+02 0.  0.
         11    1    3    3    0    0 -0.73371921716E+02 -0.10131057322E+03  0.27180491502E+03  0.29920759176E+03  0.00000000000E+00 0. -1.
        -11    1    3    3    0    0 -0.15960110000E+03 -0.58915536484E+02  0.28022476343E+03  0.32782536449E+03  0.00000000000E+00 0.  1.
         22    1    1    2    0    0  0.23297302172E+03  0.16022610970E+03  0.14535449153E+03  0.31792571976E+03  0.00000000000E+00 0.  1.
<mgrwt>
<rscale>  0 0.63765368E+03</rscale>
<asrwt>0</asrwt>
<pdfrwt beam="1">  1        1 0.12633406E+00 0.63765368E+03</pdfrwt>
<pdfrwt beam="2">  1       -1 0.19044193E-01 0.63765368E+03</pdfrwt>
<totfact> 0.47585596E+02</totfact>
</mgrwt>
</event>
<event>
 6    1  0.1585031E-006  0.5878077E+03  0.7818608E-02  0.9931029E-01
          1   -1    0    0  501    0  0.00000000000E+00  0.00000000000E+00  0.23782813574E+03  0.23782813574E+03  0.00000000000E+00 0. -1.
         -1   -1    0    0    0  501 -0.00000000000E+00 -0.00000000000E+00 -0.36320122135E+03  0.36320122135E+03  0.00000000000E+00 0.  1.
         23    2    1    2    0    0 -0.77128701780E+02 -0.17362389082E+03  0.15552781349E+03  0.26191373195E+03  0.91191063773E+02 0.  0.
         13    1    3    3    0    0 -0.27805389300E+02 -0.95276647668E+00  0.65445303962E+01  0.28581083188E+02  0.00000000000E+00 0. -1.
        -13    1    3    3    0    0 -0.49323312480E+02 -0.17267112434E+03  0.14898328309E+03  0.23333264876E+03  0.00000000000E+00 0.  1.
         22    1    1    2    0    0  0.77128701780E+02  0.17362389082E+03 -0.28090089909E+03  0.33911562514E+03  0.00000000000E+00 0.  1.
<mgrwt>
<rscale>  0 0.58780769E+03</rscale>
<asrwt>0</asrwt>
<pdfrwt beam="1">  1        1 0.36588944E-01 0.58780769E+03</pdfrwt>
<pdfrwt beam="2">  1       -1 0.55877111E-01 0.58780769E+03</pdfrwt>
<totfact> 0.38959603E+02</totfact>
</mgrwt>
</event>
<event>
 6    1  0.1585031E-006  0.2577176E+04  0.7818608E-02  0.8375996E-01
          2   -1    0    0  501    0  0.00000000000E+00  0.00000000000E+00  0.22804469019E+04  0.22804469019E+04  0.00000000000E+00 0. -1.
         -2   -1    0    0    0  501 -0.00000000000E+00 -0.00000000000E+00 -0.72812851050E+03  0.72812851050E+03  0.00000000000E+00 0.  1.
         23    2    1    2    0    0 -0.95734565339E+02 -0.45403923956E+03 -0.62435943762E+03  0.78298715098E+03  0.89036134126E+02 0.  0.
         13    1    3    3    0    0 -0.46930375868E+02 -0.19739849767E+03 -0.34701579430E+03  0.40198083108E+03  0.00000000000E+00 0. -1.
        -13    1    3    3    0    0 -0.48804189471E+02 -0.25664074189E+03 -0.27734364333E+03  0.38100631990E+03  0.00000000000E+00 0.  1.
         22    1    1    2    0    0  0.95734565339E+02  0.45403923956E+03  0.21766778290E+04  0.22255882614E+04  0.00000000000E+00 0. -1.
<mgrwt>
<rscale>  0 0.25771755E+04</rscale>
<asrwt>0</asrwt>
<pdfrwt beam="1">  1        2 0.35083798E+00 0.25771755E+04</pdfrwt>
<pdfrwt beam="2">  1       -2 0.11201977E+00 0.25771755E+04</pdfrwt>
<totfact> 0.25906548E+00</totfact>
</mgrwt>
</event>
<event>
 6    1  0.1585031E-006  0.2062175E+04  0.7818608E-02  0.8578091E-01
          1   -1    0    0  501    0  0.00000000000E+00  0.00000000000E+00  0.17513754197E+04  0.17513754197E+04  0.00000000000E+00 0. -1.
         -1   -1    0    0    0  501 -0.00000000000E+00 -0.00000000000E+00 -0.60703234330E+03  0.60703234330E+03  0.00000000000E+00 0.  1.
         23    2    1    2    0    0 -0.12068751620E+03  0.10210869562E+04  0.51455945137E+03  0.11526667199E+04  0.81762396902E+02 0.  0.
         11    1    3    3    0    0 -0.32611381423E+02  0.60400377163E+03  0.31493566375E+03  0.68195933211E+03  0.00000000000E+00 0. -1.
        -11    1    3    3    0    0 -0.88076134781E+02  0.41708318455E+03  0.19962378762E+03  0.47070738780E+03  0.00000000000E+00 0.  1.
         22    1    1    2    0    0  0.12068751620E+03 -0.10210869562E+04  0.62978362501E+03  0.12057410431E+04  0.00000000000E+00 0.  1.
<mgrwt>
<rscale>  0 0.20621751E+04</rscale>
<asrwt>0</asrwt>
<pdfrwt beam="1">  1        1 0.26944237E+00 0.20621751E+04</pdfrwt>
<pdfrwt beam="2">  1       -1 0.93389592E-01 0.20621751E+04</pdfrwt>
<totfact> 0.45130643E+00</totfact>
</mgrwt>
</event>
<event>
 6    1  0.1585031E-006  0.1149116E+04  0.7818608E-02  0.9158600E-01
          1   -1    0    0  501    0  0.00000000000E+00  0.00000000000E+00  0.84466005315E+03  0.84466005315E+03  0.00000000000E+00 0.  1.
         -1   -1    0    0    0  501 -0.00000000000E+00 -0.00000000000E+00 -0.39082780153E+03  0.39082780153E+03  0.00000000000E+00 0. -1.
         23    2    1    2    0    0 -0.27232629978E+03  0.49545152373E+03  0.31552903750E+03  0.65345554892E+03  0.88384133192E+02 0.  0.
         13    1    3    3    0    0 -0.17359611348E+03  0.26747729764E+03  0.13458485501E+03  0.34611096279E+03  0.00000000000E+00 0. -1.
        -13    1    3    3    0    0 -0.98730186301E+02  0.22797422609E+03  0.18094418249E+03  0.30734458614E+03  0.00000000000E+00 0.  1.
         22    1    1    2    0    0  0.27232629978E+03 -0.49545152373E+03  0.13830321412E+03  0.58203230576E+03  0.00000000000E+00 0.  1.
<mgrwt>
<rscale>  0 0.11491155E+04</rscale>
<asrwt>0</asrwt>
<pdfrwt beam="1">  1        1 0.12994770E+00 0.11491155E+04</pdfrwt>
<pdfrwt beam="2">  1       -1 0.60127354E-01 0.11491155E+04</pdfrwt>
<totfact> 0.56379096E+01</totfact>
</mgrwt>
</event>
<event>
 6    1  0.1585031E-006  0.4505395E+04  0.7818608E-02  0.7909693E-01
         -1   -1    0    0    0  501 -0.00000000000E+00  0.00000000000E+00  0.37260740850E+04  0.37260740850E+04  0.00000000000E+00 0.  1.
          1   -1    0    0  501    0  0.00000000000E+00 -0.00000000000E+00 -0.13619281291E+04  0.13619281291E+04  0.00000000000E+00 0. -1.
         23    2    1    2    0    0 -0.48833617133E+02  0.21671049281E+04  0.49400943273E+03  0.22251122220E+04  0.91381558468E+02 0.  0.
         13    1    3    3    0    0 -0.34527706859E+02  0.12175391813E+04  0.32345862980E+03  0.12602457322E+04  0.00000000000E+00 0.  1.
        -13    1    3    3    0    0 -0.14305910274E+02  0.94956574689E+03  0.17055080294E+03  0.96486648979E+03  0.00000000000E+00 0. -1.
         22    1    1    2    0    0  0.48833617133E+02 -0.21671049281E+04  0.18701365231E+04  0.28628899921E+04  0.00000000000E+00 0.  1.
<mgrwt>
<rscale>  0 0.45053946E+04</rscale>
<asrwt>0</asrwt>
<pdfrwt beam="1">  1        1 0.20952741E+00 0.45053946E+04</pdfrwt>
<pdfrwt beam="2">  1       -1 0.57324216E+00 0.45053946E+04</pdfrwt>
<totfact> 0.35485904E-03</totfact>
</mgrwt>
</event>
<event>
 6    1  0.1585031E-006  0.2243133E+04  0.7818608E-02  0.8500687E-01
         -2   -1    0    0    0  501 -0.00000000000E+00  0.00000000000E+00  0.10816576383E+04  0.10816576383E+04  0.00000000000E+00 0.  1.
          2   -1    0    0  501    0  0.00000000000E+00 -0.00000000000E+00 -0.11629481903E+04  0.11629481903E+04  0.00000000000E+00 0. -1.
         23    2    1    2    0    0 -0.87103184750E+02  0.10492292921E+04  0.34037989488E+03  0.11104651680E+04  0.93836795827E+02 0.  0.
         11    1    3    3    0    0 -0.83056525534E+02  0.97550454322E+03  0.34072197204E+03  0.10366286522E+04  0.00000000000E+00 0. -1.
        -11    1    3    3    0    0 -0.40466592160E+01  0.73724748900E+02 -0.34207716807E+00  0.73836515816E+02  0.00000000000E+00 0.  1.
         22    1    1    2    0    0  0.87103184750E+02 -0.10492292921E+04 -0.42167044688E+03  0.11341406606E+04  0.00000000000E+00 0. -1.
<mgrwt>
<rscale>  0 0.22431333E+04</rscale>
<asrwt>0</asrwt>
<pdfrwt beam="1">  1        2 0.17891511E+00 0.22431333E+04</pdfrwt>
<pdfrwt beam="2">  1       -2 0.16640887E+00 0.22431333E+04</pdfrwt>
<totfact> 0.41070078E+00</totfact>
</mgrwt>
</event>
<event>
 6    1  0.1585031E-006  0.2089205E+04  0.7818608E-02  0.8566014E-01
          2   -1    0    0  501    0  0.00000000000E+00  0.00000000000E+00  0.14452928252E+04  0.14452928252E+04  0.00000000000E+00 0. -1.
         -2   -1    0    0    0  501 -0.00000000000E+00 -0.00000000000E+00 -0.75499882163E+03  0.75499882163E+03  0.00000000000E+00 0.  1.
         23    2    1    2    0    0 -0.54751693338E+03  0.51581809057E+03 -0.41442126209E+03  0.86378915411E+03  0.92431733735E+02 0.  0.
         11    1    3    3    0    0 -0.25210754245E+03  0.20902566901E+03 -0.22703980016E+03  0.39849343046E+03  0.00000000000E+00 0. -1.
        -11    1    3    3    0    0 -0.29540939092E+03  0.30679242156E+03 -0.18738146193E+03  0.46529572365E+03  0.00000000000E+00 0.  1.
         22    1    1    2    0    0  0.54751693338E+03 -0.51581809057E+03  0.11047152657E+04  0.13365024927E+04  0.00000000000E+00 0. -1.
<mgrwt>
<rscale>  0 0.20892050E+04</rscale>
<asrwt>0</asrwt>
<pdfrwt beam="1">  1        2 0.22235274E+00 0.20892050E+04</pdfrwt>
<pdfrwt beam="2">  1       -2 0.11615366E+00 0.20892050E+04</pdfrwt>
<totfact> 0.72374199E+00</totfact>
</mgrwt>
</event>
<event>
 6    1  0.1585031E-006  0.1358060E+04  0.7818608E-02  0.8984749E-01
         -1   -1    0    0    0  501 -0.00000000000E+00  0.00000000000E+00  0.83802317695E+03  0.83802317695E+03  0.00000000000E+00 0.  1.
          1   -1    0    0  501    0  0.00000000000E+00 -0.00000000000E+00 -0.55020135592E+03  0.55020135592E+03  0.00000000000E+00 0. -1.
         23    2    1    2    0    0 -0.45741028810E+03 -0.39101790000E+03  0.45846605341E+03  0.76273382645E+03  0.97224472728E+02 0.  0.
         13    1    3    3    0    0 -0.35678815558E+02 -0.63845648438E+02  0.80119556138E+02  0.10848220121E+03  0.00000000000E+00 0. -1.
        -13    1    3    3    0    0 -0.42173147254E+03 -0.32717225156E+03  0.37834649728E+03  0.65425162524E+03  0.00000000000E+00 0.  1.
         22    1    1    2    0    0  0.45741028810E+03  0.39101790000E+03 -0.17064423239E+03  0.62549070643E+03  0.00000000000E+00 0. -1.
<mgrwt>
<rscale>  0 0.13580596E+04</rscale>
<asrwt>0</asrwt>
<pdfrwt beam="1">  1        1 0.84646362E-01 0.13580596E+04</pdfrwt>
<pdfrwt beam="2">  1       -1 0.12892664E+00 0.13580596E+04</pdfrwt>
<totfact> 0.19646951E+01</totfact>
</mgrwt>
</event>
<event>
 6    1  0.1585031E-006  0.2822757E+04  0.7818608E-02  0.8296238E-01
          1   -1    0    0  501    0  0.00000000000E+00  0.00000000000E+00  0.15787749643E+04  0.15787749643E+04  0.00000000000E+00 0. -1.
         -1   -1    0    0    0  501 -0.00000000000E+00 -0.00000000000E+00 -0.12617308138E+04  0.12617308138E+04  0.00000000000E+00 0.  1.
         23    2    1    2    0    0 -0.42488094710E+03  0.73704665241E+03  0.12901198405E+04  0.15479741980E+04  0.89740334731E+02 0.  0.
         13    1    3    3    0    0 -0.20201637263E+03  0.43414191365E+03  0.75034280104E+03  0.89011467524E+03  0.00000000000E+00 0.  1.
        -13    1    3    3    0    0 -0.22286457448E+03  0.30290473876E+03  0.53977703949E+03  0.65785952276E+03  0.00000000000E+00 0. -1.
         22    1    1    2    0    0  0.42488094710E+03 -0.73704665241E+03 -0.97307569000E+03  0.12925315801E+04  0.00000000000E+00 0.  1.
<mgrwt>
<rscale>  0 0.28227568E+04</rscale>
<asrwt>0</asrwt>
<pdfrwt beam="1">  1        1 0.24288846E+00 0.28227568E+04</pdfrwt>
<pdfrwt beam="2">  1       -1 0.19411243E+00 0.28227568E+04</pdfrwt>
<totfact> 0.82457731E-01</totfact>
</mgrwt>
</event>
<event>
 6    1  0.1585031E-006  0.2218809E+04  0.7818608E-02  0.8510640E-01
         -1   -1    0    0    0  501 -0.00000000000E+00  0.00000000000E+00  0.94194945953E+03  0.94194945953E+03  0.00000000000E+00 0.  1.
          1   -1    0    0  501    0  0.00000000000E+00 -0.00000000000E+00 -0.13066285346E+04  0.13066285346E+04  0.00000000000E+00 0. -1.
         23    2    1    2    0    0 -0.40721549850E+03  0.41941949909E+03  0.77109417687E+03  0.97119079433E+03  0.82994885127E+02 0.  0.
         11    1    3    3    0    0 -0.26629424375E+03  0.21590618822E+03  0.43984484714E+03  0.55766620475E+03  0.00000000000E+00 0. -1.
        -11    1    3    3    0    0 -0.14092125474E+03  0.20351331086E+03  0.33124932972E+03  0.41352458957E+03  0.00000000000E+00 0.  1.
         22    1    1    2    0    0  0.40721549850E+03 -0.41941949909E+03 -0.11357732519E+04  0.12773871998E+04  0.00000000000E+00 0. -1.
<mgrwt>
<rscale>  0 0.22188087E+04</rscale>
<asrwt>0</asrwt>
<pdfrwt beam="1">  1        1 0.20101977E+00 0.22188087E+04</pdfrwt>
<pdfrwt beam="2">  1       -1 0.14491530E+00 0.22188087E+04</pdfrwt>
<totfact> 0.31168086E+00</totfact>
</mgrwt>
</event>
<event>
 6    1  0.1585031E-006  0.2122724E+04  0.7818608E-02  0.8551299E-01
         -2   -1    0    0    0  501 -0.00000000000E+00  0.00000000000E+00  0.50207690444E+03  0.50207690444E+03  0.00000000000E+00 0.  1.
          2   -1    0    0  501    0  0.00000000000E+00 -0.00000000000E+00 -0.22436592281E+04  0.22436592281E+04  0.00000000000E+00 0. -1.
         23    2    1    2    0    0  0.57428644084E+03 -0.46370554162E+03 -0.18553038400E+04  0.19989025978E+04  0.92905926855E+02 0.  0.
         11    1    3    3    0    0  0.13198766809E+03 -0.15979377109E+03 -0.52686047870E+03  0.56615965754E+03  0.00000000000E+00 0.  1.
        -11    1    3    3    0    0  0.44229877274E+03 -0.30391177053E+03 -0.13284433613E+04  0.14327429402E+04  0.00000000000E+00 0. -1.
         22    1    1    2    0    0 -0.57428644084E+03  0.46370554162E+03  0.11372151628E+03  0.74683353481E+03  0.00000000000E+00 0.  1.
<mgrwt>
<rscale>  0 0.21227242E+04</rscale>
<asrwt>0</asrwt>
<pdfrwt beam="1">  1        2 0.34517834E+00 0.21227242E+04</pdfrwt>
<pdfrwt beam="2">  1       -2 0.77242602E-01 0.21227242E+04</pdfrwt>
<totfact> 0.67112615E+00</totfact>
</mgrwt>
</event>
<event>
 6    1  0.1585031E-006  0.1593621E+04  0.7818608E-02  0.8824476E-01
          2   -1    0    0  501    0  0.00000000000E+00  0.00000000000E+00  0.10863762266E+04  0.10863762266E+04  0.00000000000E+00 0. -1.
         -2   -1    0    0    0  501 -0.00000000000E+00 -0.00000000000E+00 -0.58442647059E+03  0.58442647059E+03  0.00000000000E+00 0.  1.
         23    2    1    2    0    0  0.53696255175E+03 -0.55883269614E+03  0.69573882117E+02  0.78335035448E+03  0.90412878157E+02 0.  0.
         13    1    3    3    0    0  0.44145535775E+03 -0.41122658836E+03  0.36202978997E+02  0.60440118758E+03  0.00000000000E+00 0.  1.
        -13    1    3    3    0    0  0.95507194004E+02 -0.14760610778E+03  0.33370903120E+02  0.17894916691E+03  0.00000000000E+00 0. -1.
         22    1    1    2    0    0 -0.53696255175E+03  0.55883269614E+03  0.43237587392E+03  0.88745234272E+03  0.00000000000E+00 0.  1.
<mgrwt>
<rscale>  0 0.15936211E+04</rscale>
<asrwt>0</asrwt>
<pdfrwt beam="1">  1        2 0.16713480E+00 0.15936211E+04</pdfrwt>
<pdfrwt beam="2">  1       -2 0.89911765E-01 0.15936211E+04</pdfrwt>
<totfact> 0.22578122E+01</totfact>
</mgrwt>
</event>
<event>
 6    1  0.1585031E-006  0.1426279E+04  0.7818608E-02  0.8935013E-01
         -1   -1    0    0    0  501 -0.00000000000E+00  0.00000000000E+00  0.68327953889E+03  0.68327953889E+03  0.00000000000E+00 0.  1.
          1   -1    0    0  501    0  0.00000000000E+00 -0.00000000000E+00 -0.74430467397E+03  0.74430467397E+03  0.00000000000E+00 0. -1.
         23    2    1    2    0    0 -0.46016620274E+03  0.49068878307E+03  0.19717570966E+03  0.70703158313E+03  0.92124823428E+02 0.  0.
         11    1    3    3    0    0 -0.19515845417E+03  0.23978744343E+03  0.48408728640E+02  0.31293488982E+03  0.00000000000E+00 0. -1.
        -11    1    3    3    0    0 -0.26500774857E+03  0.25090133964E+03  0.14876698102E+03  0.39409669331E+03  0.00000000000E+00 0.  1.
         22    1    1    2    0    0  0.46016620274E+03 -0.49068878307E+03 -0.25820084474E+03  0.72055262972E+03  0.00000000000E+00 0. -1.
<mgrwt>
<rscale>  0 0.14262793E+04</rscale>
<asrwt>0</asrwt>
<pdfrwt beam="1">  1        1 0.11450841E+00 0.14262793E+04</pdfrwt>
<pdfrwt beam="2">  1       -1 0.10511993E+00 0.14262793E+04</pdfrwt>
<totfact> 0.20486929E+01</totfact>
</mgrwt>
</event>
<event>
 6    1  0.1585031E-006  0.2778314E+04  0.7818608E-02  0.8310033E-01
         -1   -1    0    0    0  501 -0.00000000000E+00  0.00000000000E+00  0.18119074687E+04  0.18119074687E+04  0.00000000000E+00 0.  1.
          1   -1    0    0  501    0  0.00000000000E+00 -0.00000000000E+00 -0.10650420711E+04  0.10650420711E+04  0.00000000000E+00 0. -1.
         23    2    1    2    0    0 -0.10917558634E+03 -0.10463329048E+04 -0.56324791658E+03  0.11967326633E+04  0.90493068880E+02 0.  0.
         11    1    3    3    0    0 -0.30837406096E+02 -0.13063867407E+03 -0.44587937397E+02  0.14144077537E+03  0.00000000000E+00 0.  1.
        -11    1    3    3    0    0 -0.78338180239E+02 -0.91569423070E+03 -0.51865997918E+03  0.10552918879E+04  0.00000000000E+00 0. -1.
         22    1    1    2    0    0  0.10917558634E+03  0.10463329048E+04  0.13101133142E+04  0.16802168766E+04  0.00000000000E+00 0.  1.
<mgrwt>
<rscale>  0 0.27783144E+04</rscale>
<asrwt>0</asrwt>
<pdfrwt beam="1">  1        1 0.16385263E+00 0.27783144E+04</pdfrwt>
<pdfrwt beam="2">  1       -1 0.27875499E+00 0.27783144E+04</pdfrwt>
<totfact> 0.52996043E-01</totfact>
</mgrwt>
</event>
<event>
 6    1  0.1585031E-006  0.3226352E+04  0.7818608E-02  0.8181892E-01
         -1   -1    0    0    0  501 -0.00000000000E+00  0.00000000000E+00  0.14435076805E+04  0.14435076805E+04  0.00000000000E+00 0.  1.
          1   -1    0    0  501    0  0.00000000000E+00 -0.00000000000E+00 -0.18027868154E+04  0.18027868154E+04  0.00000000000E+00 0. -1.
         23    2    1    2    0    0 -0.78426366599E+03  0.10140758233E+04  0.80302703211E+03  0.15158682770E+04  0.97902735316E+02 0.  0.
         11    1    3    3    0    0 -0.32347298443E+03  0.34132884856E+03  0.29049428921E+03  0.55274504663E+03  0.00000000000E+00 0.  1.
        -11    1    3    3    0    0 -0.46079068156E+03  0.67274697477E+03  0.51253274290E+03  0.96312323034E+03  0.00000000000E+00 0. -1.
         22    1    1    2    0    0  0.78426366599E+03 -0.10140758233E+04 -0.11623061671E+04  0.17304262190E+04  0.00000000000E+00 0. -1.
<mgrwt>
<rscale>  0 0.32263519E+04</rscale>
<asrwt>0</asrwt>
<pdfrwt beam="1">  1        1 0.27735182E+00 0.32263519E+04</pdfrwt>
<pdfrwt beam="2">  1       -1 0.22207811E+00 0.32263519E+04</pdfrwt>
<totfact> 0.36091357E-01</totfact>
</mgrwt>
</event>
<event>
 6    1  0.1585031E-006  0.3750149E+04  0.7818608E-02  0.8056938E-01
          1   -1    0    0  501    0  0.00000000000E+00  0.00000000000E+00  0.30495954869E+04  0.30495954869E+04  0.00000000000E+00 0. -1.
         -1   -1    0    0    0  501 -0.00000000000E+00 -0.00000000000E+00 -0.11529083825E+04  0.11529083825E+04  0.00000000000E+00 0.  1.
         23    2    1    2    0    0 -0.11450498407E+04 -0.12829609690E+04  0.11416912948E+03  0.17257119288E+04  0.88989243247E+02 0.  0.
         13    1    3    3    0    0 -0.84890377330E+03 -0.89257612400E+03  0.72145610012E+02  0.12339103462E+04  0.00000000000E+00 0. -1.
        -13    1    3    3    0    0 -0.29614606741E+03 -0.39038484503E+03  0.42023519466E+02  0.49180158261E+03  0.00000000000E+00 0.  1.
         22    1    1    2    0    0  0.11450498407E+04  0.12829609690E+04  0.17825179750E+04  0.24767919406E+04  0.00000000000E+00 0. -1.
<mgrwt>
<rscale>  0 0.37501489E+04</rscale>
<asrwt>0</asrwt>
<pdfrwt beam="1">  1        1 0.46916853E+00 0.37501489E+04</pdfrwt>
<pdfrwt beam="2">  1       -1 0.17737052E+00 0.37501489E+04</pdfrwt>
<totfact> 0.95424560E-02</totfact>
</mgrwt>
</event>
<event>
 6    1  0.1585031E-006  0.3115255E+04  0.7818608E-02  0.8211564E-01
         -2   -1    0    0    0  501 -0.00000000000E+00  0.00000000000E+00  0.66891237063E+03  0.66891237063E+03  0.00000000000E+00 0.  1.
          2   -1    0    0  501    0  0.00000000000E+00 -0.00000000000E+00 -0.36270867363E+04  0.36270867363E+04  0.00000000000E+00 0. -1.
         23    2    1    2    0    0  0.86243896926E+03  0.12305873131E+04 -0.20386517903E+04  0.25342761215E+04  0.91149475643E+02 0.  0.
         13    1    3    3    0    0  0.50452606396E+03  0.79372886000E+03 -0.12944223344E+04  0.16000253849E+04  0.00000000000E+00 0.  1.
        -13    1    3    3    0    0  0.35791290530E+03  0.43685845308E+03 -0.74422945590E+03  0.93425073660E+03  0.00000000000E+00 0. -1.
         22    1    1    2    0    0 -0.86243896926E+03 -0.12305873131E+04 -0.91952257533E+03  0.17617229854E+04  0.00000000000E+00 0.  1.
<mgrwt>
<rscale>  0 0.31152548E+04</rscale>
<asrwt>0</asrwt>
<pdfrwt beam="1">  1        2 0.55801334E+00 0.31152548E+04</pdfrwt>
<pdfrwt beam="2">  1       -2 0.10290960E+00 0.31152548E+04</pdfrwt>
<totfact> 0.43121420E-01</totfact>
</mgrwt>
</event>
<event>
 6    1  0.1585031E-006  0.6876631E+03  0.7818608E-02  0.9738566E-01
         -2   -1    0    0    0  501 -0.00000000000E+00  0.00000000000E+00  0.30973613506E+03  0.30973613506E+03  0.00000000000E+00 0.  1.
          2   -1    0    0  501    0  0.00000000000E+00 -0.00000000000E+00 -0.38168015255E+03  0.38168015255E+03  0.00000000000E+00 0. -1.
         23    2    1    2    0    0  0.26879507512E+03 -0.12358606397E+02 -0.24176983321E+03  0.37322713750E+03  0.91882078528E+02 0.  0.
         11    1    3    3    0    0  0.15746640602E+03 -0.45603066221E+02 -0.10934274345E+03  0.19705619559E+03  0.00000000000E+00 0. -1.
        -11    1    3    3    0    0  0.11132866910E+03  0.33244459824E+02 -0.13242708976E+03  0.17617094191E+03  0.00000000000E+00 0.  1.
         22    1    1    2    0    0 -0.26879507512E+03  0.12358606397E+02  0.16982581572E+03  0.31818915011E+03  0.00000000000E+00 0.  1.
<mgrwt>
<rscale>  0 0.68766310E+03</rscale>
<asrwt>0</asrwt>
<pdfrwt beam="1">  1        2 0.58720023E-01 0.68766310E+03</pdfrwt>
<pdfrwt beam="2">  1       -2 0.47651713E-01 0.68766310E+03</pdfrwt>
<totfact> 0.35304408E+02</totfact>
</mgrwt>
</event>
<event>
 6    1  0.1585031E-006  0.1006067E+04  0.7818608E-02  0.9301915E-01
         -1   -1    0    0    0  501 -0.00000000000E+00  0.00000000000E+00  0.80178922357E+02  0.80178922357E+02  0.00000000000E+00 0.  1.
          1   -1    0    0  501    0  0.00000000000E+00 -0.00000000000E+00 -0.31559759498E+04  0.31559759498E+04  0.00000000000E+00 0. -1.
         23    2    1    2    0    0 -0.39453650064E+03 -0.17909028431E+03 -0.23464942896E+04  0.23878537088E+04  0.89874932129E+02 0.  0.
         11    1    3    3    0    0 -0.15196850471E+03 -0.40919767328E+02 -0.10425136928E+04  0.10543261608E+04  0.00000000000E+00 0. -1.
        -11    1    3    3    0    0 -0.24256799593E+03 -0.13817051699E+03 -0.13039805968E+04  0.13335275480E+04  0.00000000000E+00 0.  1.
         22    1    1    2    0    0  0.39453650064E+03  0.17909028431E+03 -0.72930273788E+03  0.84830116335E+03  0.00000000000E+00 0.  1.
<mgrwt>
<rscale>  0 0.10060671E+04</rscale>
<asrwt>0</asrwt>
<pdfrwt beam="1">  1        1 0.48553481E+00 0.10060671E+04</pdfrwt>
<pdfrwt beam="2">  1       -1 0.12335218E-01 0.10060671E+04</pdfrwt>
<totfact> 0.21301050E+01</totfact>
</mgrwt>
</event>
<event>
 6    1  0.1585031E-006  0.5474058E+03  0.7818608E-02  0.1002096E+00
         -1   -1    0    0    0  501 -0.00000000000E+00  0.00000000000E+00  0.10368776812E+03  0.10368776812E+03  0.00000000000E+00 0.  1.
          1   -1    0    0  501    0  0.00000000000E+00 -0.00000000000E+00 -0.72248903875E+03  0.72248903875E+03  0.00000000000E+00 0. -1.
         23    2    1    2    0    0 -0.14902505405E+03 -0.12176784050E+03 -0.59513225293E+03  0.63227967921E+03  0.92516596109E+02 0.  0.
         11    1    3    3    0    0  0.97775524067E+01  0.82941077435E+00 -0.11438058172E+02  0.15070422291E+02  0.00000000000E+00 0. -1.
        -11    1    3    3    0    0 -0.15880260646E+03 -0.12259725127E+03 -0.58369419476E+03  0.61720925692E+03  0.00000000000E+00 0.  1.
         22    1    1    2    0    0  0.14902505405E+03  0.12176784050E+03 -0.23669017694E+02  0.19389712765E+03  0.00000000000E+00 0.  1.
<mgrwt>
<rscale>  0 0.54740579E+03</rscale>
<asrwt>0</asrwt>
<pdfrwt beam="1">  1        1 0.11115216E+00 0.54740579E+03</pdfrwt>
<pdfrwt beam="2">  1       -1 0.15951964E-01 0.54740579E+03</pdfrwt>
<totfact> 0.77920600E+02</totfact>
</mgrwt>
</event>
<event>
 6    1  0.1585031E-006  0.2742995E+04  0.7818608E-02  0.8321188E-01
         -2   -1    0    0    0  501 -0.00000000000E+00  0.00000000000E+00  0.94482349775E+03  0.94482349775E+03  0.00000000000E+00 0.  1.
          2   -1    0    0  501    0  0.00000000000E+00 -0.00000000000E+00 -0.19908538147E+04  0.19908538147E+04  0.00000000000E+00 0. -1.
         23    2    1    2    0    0 -0.85348260716E+03  0.10718224464E+04 -0.51394589948E+03  0.14658644860E+04  0.85920814810E+02 0.  0.
         13    1    3    3    0    0 -0.66793425150E+03  0.82281074195E+03 -0.36003552166E+03  0.11192762207E+04  0.00000000000E+00 0. -1.
        -13    1    3    3    0    0 -0.18554835567E+03  0.24901170448E+03 -0.15391037782E+03  0.34658826532E+03  0.00000000000E+00 0.  1.
         22    1    1    2    0    0  0.85348260716E+03 -0.10718224464E+04 -0.53208441750E+03  0.14698128264E+04  0.00000000000E+00 0.  1.
<mgrwt>
<rscale>  0 0.27429951E+04</rscale>
<asrwt>0</asrwt>
<pdfrwt beam="1">  1        2 0.30628521E+00 0.27429951E+04</pdfrwt>
<pdfrwt beam="2">  1       -2 0.14535746E+00 0.27429951E+04</pdfrwt>
<totfact> 0.19241192E+00</totfact>
</mgrwt>
</event>
<event>
 6    1  0.1585031E-006  0.1840584E+04  0.7818608E-02  0.8685010E-01
          2   -1    0    0  501    0  0.00000000000E+00  0.00000000000E+00  0.22818676003E+04  0.22818676003E+04  0.00000000000E+00 0. -1.
         -2   -1    0    0    0  501 -0.00000000000E+00 -0.00000000000E+00 -0.37115978600E+03  0.37115978600E+03  0.00000000000E+00 0.  1.
         23    2    1    2    0    0 -0.77248611253E+03  0.47563929077E+03  0.75511804327E+03  0.11838932032E+04  0.91827710338E+02 0.  0.
         13    1    3    3    0    0 -0.50383037119E+03  0.29964533466E+03  0.43093999362E+03  0.72755869016E+03  0.00000000000E+00 0.  1.
        -13    1    3    3    0    0 -0.26865574134E+03  0.17599395611E+03  0.32417804964E+03  0.45633451306E+03  0.00000000000E+00 0. -1.
         22    1    1    2    0    0  0.77248611253E+03 -0.47563929077E+03  0.11555897710E+04  0.14691341830E+04  0.00000000000E+00 0.  1.
<mgrwt>
<rscale>  0 0.18405841E+04</rscale>
<asrwt>0</asrwt>
<pdfrwt beam="1">  1        2 0.35105654E+00 0.18405841E+04</pdfrwt>
<pdfrwt beam="2">  1       -2 0.57101507E-01 0.18405841E+04</pdfrwt>
<totfact> 0.12562624E+01</totfact>
</mgrwt>
</event>
<event>
 6    1  0.1585031E-006  0.2335875E+04  0.7818608E-02  0.8463909E-01
          2   -1    0    0  501    0  0.00000000000E+00  0.00000000000E+00  0.82381138427E+03  0.82381138427E+03  0.00000000000E+00 0. -1.
         -2   -1    0    0    0  501 -0.00000000000E+00 -0.00000000000E+00 -0.16558131889E+04  0.16558131889E+04  0.00000000000E+00 0.  1.
         23    2    1    2    0    0 -0.75420124052E+03 -0.78675773321E+03 -0.85633965475E+03  0.13894871630E+04  0.97722719787E+02 0.  0.
         11    1    3    3    0    0 -0.37079816171E+03 -0.33536328764E+03 -0.43430177010E+03  0.66225209621E+03  0.00000000000E+00 0. -1.
        -11    1    3    3    0    0 -0.38340307881E+03 -0.45139444557E+03 -0.42203788465E+03  0.72723506682E+03  0.00000000000E+00 0.  1.
         22    1    1    2    0    0  0.75420124052E+03  0.78675773321E+03  0.24337850134E+02  0.10901374101E+04  0.00000000000E+00 0. -1.
<mgrwt>
<rscale>  0 0.23358748E+04</rscale>
<asrwt>0</asrwt>
<pdfrwt beam="1">  1        2 0.12674021E+00 0.23358748E+04</pdfrwt>
<pdfrwt beam="2">  1       -2 0.25474049E+00 0.23358748E+04</pdfrwt>
<totfact> 0.17987034E+00</totfact>
</mgrwt>
</event>
<event>
 6    1  0.1585031E-006  0.1599061E+04  0.7818608E-02  0.8821125E-01
          2   -1    0    0  501    0  0.00000000000E+00  0.00000000000E+00  0.16485400283E+04  0.16485400283E+04  0.00000000000E+00 0. -1.
         -2   -1    0    0    0  501 -0.00000000000E+00 -0.00000000000E+00 -0.38776683768E+03  0.38776683768E+03  0.00000000000E+00 0.  1.
         23    2    1    2    0    0 -0.34316210900E+03 -0.57806316954E+03  0.11774705463E+04  0.13589173240E+04  0.91116107707E+02 0.  0.
         13    1    3    3    0    0 -0.18862501982E+01 -0.44331819971E+02  0.64780944123E+02  0.78520308986E+02  0.00000000000E+00 0. -1.
        -13    1    3    3    0    0 -0.34127585880E+03 -0.53373134957E+03  0.11126896022E+04  0.12803970150E+04  0.00000000000E+00 0.  1.
         22    1    1    2    0    0  0.34316210900E+03  0.57806316954E+03  0.83302644333E+02  0.67738954198E+03  0.00000000000E+00 0.  1.
<mgrwt>
<rscale>  0 0.15990612E+04</rscale>
<asrwt>0</asrwt>
<pdfrwt beam="1">  1        2 0.25362154E+00 0.15990612E+04</pdfrwt>
<pdfrwt beam="2">  1       -2 0.59656437E-01 0.15990612E+04</pdfrwt>
<totfact> 0.26335773E+01</totfact>
</mgrwt>
</event>
<event>
 6    1  0.1585031E-006  0.3131246E+04  0.7818608E-02  0.8207215E-01
         -2   -1    0    0    0  501 -0.00000000000E+00  0.00000000000E+00  0.92614823010E+03  0.92614823010E+03  0.00000000000E+00 0.  1.
          2   -1    0    0  501    0  0.00000000000E+00 -0.00000000000E+00 -0.26466336876E+04  0.26466336876E+04  0.00000000000E+00 0. -1.
         23    2    1    2    0    0 -0.56998863340E+03  0.10376260504E+04  0.30569368100E+03  0.12260913194E+04  0.91084764517E+02 0.  0.
         13    1    3    3    0    0 -0.44879969487E+03  0.88637380772E+03  0.25214249474E+03  0.10250148930E+04  0.00000000000E+00 0. -1.
        -13    1    3    3    0    0 -0.12118893853E+03  0.15125224268E+03  0.53551186258E+02  0.20107642648E+03  0.00000000000E+00 0.  1.
         22    1    1    2    0    0  0.56998863340E+03 -0.10376260504E+04 -0.20261791385E+04  0.23466905983E+04  0.00000000000E+00 0. -1.
<mgrwt>
<rscale>  0 0.31312458E+04</rscale>
<asrwt>0</asrwt>
<pdfrwt beam="1">  1        2 0.40717441E+00 0.31312458E+04</pdfrwt>
<pdfrwt beam="2">  1       -2 0.14248435E+00 0.31312458E+04</pdfrwt>
<totfact> 0.82959445E-01</totfact>
</mgrwt>
</event>
<event>
 6    1  0.1585031E-006  0.1963877E+04  0.7818608E-02  0.8623698E-01
          2   -1    0    0  501    0  0.00000000000E+00  0.00000000000E+00  0.39588969611E+04  0.39588969611E+04  0.00000000000E+00 0. -1.
         -2   -1    0    0    0  501 -0.00000000000E+00 -0.00000000000E+00 -0.24355342436E+03  0.24355342436E+03  0.00000000000E+00 0.  1.
         23    2    1    2    0    0 -0.74966240191E+03  0.54195612587E+03  0.25541233068E+04  0.27178148808E+04  0.85215614251E+02 0.  0.
         13    1    3    3    0    0 -0.39816437086E+03  0.32154226543E+03  0.15047362120E+04  0.15893883611E+04  0.00000000000E+00 0.  1.
        -13    1    3    3    0    0 -0.35149803104E+03  0.22041386043E+03  0.10493870948E+04  0.11284265197E+04  0.00000000000E+00 0. -1.
         22    1    1    2    0    0  0.74966240191E+03 -0.54195612587E+03  0.11612202300E+04  0.14846355047E+04  0.00000000000E+00 0.  1.
<mgrwt>
<rscale>  0 0.19638767E+04</rscale>
<asrwt>0</asrwt>
<pdfrwt beam="1">  1        2 0.60906102E+00 0.19638767E+04</pdfrwt>
<pdfrwt beam="2">  1       -2 0.37469761E-01 0.19638767E+04</pdfrwt>
<totfact> 0.23359034E+00</totfact>
</mgrwt>
</event>
<event>
 6    1  0.1585031E-006  0.2768118E+04  0.7818608E-02  0.8313235E-01
         -2   -1    0    0    0  501 -0.00000000000E+00  0.00000000000E+00  0.64798675502E+03  0.64798675502E+03  0.00000000000E+00 0.  1.
          2   -1    0    0  501    0  0.00000000000E+00 -0.00000000000E+00 -0.29562636069E+04  0.29562636069E+04  0.00000000000E+00 0. -1.
         23    2    1    2    0    0  0.56276487624E+03  0.11797753816E+04 -0.56899261283E+03  0.14285472753E+04  0.91763104246E+02 0.  0.
         13    1    3    3    0    0  0.42981417153E+03  0.85735561725E+03 -0.45596450254E+03  0.10619333802E+04  0.00000000000E+00 0. -1.
        -13    1    3    3    0    0  0.13295070471E+03  0.32241976436E+03 -0.11302811029E+03  0.36661389506E+03  0.00000000000E+00 0.  1.
         22    1    1    2    0    0 -0.56276487624E+03 -0.11797753816E+04 -0.17392842390E+04  0.21757030866E+04  0.00000000000E+00 0. -1.
<mgrwt>
<rscale>  0 0.27681183E+04</rscale>
<asrwt>0</asrwt>
<pdfrwt beam="1">  1        2 0.45480978E+00 0.27681183E+04</pdfrwt>
<pdfrwt beam="2">  1       -2 0.99690272E-01 0.27681183E+04</pdfrwt>
<totfact> 0.13455764E+00</totfact>
</mgrwt>
</event>
<event>
 6    1  0.1585031E-006  0.3972485E+04  0.7818608E-02  0.8010120E-01
         -1   -1    0    0    0  501 -0.00000000000E+00  0.00000000000E+00  0.24552727299E+04  0.24552727299E+04  0.00000000000E+00 0.  1.
          1   -1    0    0  501    0  0.00000000000E+00 -0.00000000000E+00 -0.16068108030E+04  0.16068108030E+04  0.00000000000E+00 0. -1.
         23    2    1    2    0    0  0.69394427237E+03 -0.69039276203E+03 -0.13416259025E+04  0.16631909718E+04  0.89684599562E+02 0.  0.
         11    1    3    3    0    0  0.68171639727E+03 -0.65566580747E+03 -0.12830380992E+04  0.15939955023E+04  0.00000000000E+00 0. -1.
        -11    1    3    3    0    0  0.12227875107E+02 -0.34726954562E+02 -0.58587803274E+02  0.69195469471E+02  0.00000000000E+00 0.  1.
         22    1    1    2    0    0 -0.69394427237E+03  0.69039276203E+03  0.21900878294E+04  0.23988925611E+04  0.00000000000E+00 0.  1.
<mgrwt>
<rscale>  0 0.39724847E+04</rscale>
<asrwt>0</asrwt>
<pdfrwt beam="1">  1        1 0.24720166E+00 0.39724847E+04</pdfrwt>
<pdfrwt beam="2">  1       -1 0.37773427E+00 0.39724847E+04</pdfrwt>
<totfact> 0.43860733E-02</totfact>
</mgrwt>
</event>
<event>
 6    1  0.1585031E-006  0.2756009E+04  0.7818608E-02  0.8317057E-01
          2   -1    0    0  501    0  0.00000000000E+00  0.00000000000E+00  0.20823936860E+04  0.20823936860E+04  0.00000000000E+00 0. -1.
         -2   -1    0    0    0  501 -0.00000000000E+00 -0.00000000000E+00 -0.91188166181E+03  0.91188166181E+03  0.00000000000E+00 0.  1.
         23    2    1    2    0    0  0.98445759070E+03 -0.78874759035E+03  0.11843761268E+04  0.17327398855E+04  0.91439554120E+02 0.  0.
         11    1    3    3    0    0  0.82383122915E+03 -0.69748235834E+03  0.99219014477E+03  0.14661585241E+04  0.00000000000E+00 0.  1.
        -11    1    3    3    0    0  0.16062636155E+03 -0.91265232014E+02  0.19218598204E+03  0.26658136149E+03  0.00000000000E+00 0. -1.
         22    1    1    2    0    0 -0.98445759070E+03  0.78874759035E+03 -0.13864102625E+02  0.12615354622E+04  0.00000000000E+00 0.  1.
<mgrwt>
<rscale>  0 0.27560092E+04</rscale>
<asrwt>0</asrwt>
<pdfrwt beam="1">  1        2 0.32036826E+00 0.27560092E+04</pdfrwt>
<pdfrwt beam="2">  1       -2 0.14028949E+00 0.27560092E+04</pdfrwt>
<totfact> 0.18751436E+00</totfact>
</mgrwt>
</event>
<event>
 6    1  0.1585031E-006  0.2056973E+04  0.7818608E-02  0.8580438E-01
          2   -1    0    0  501    0  0.00000000000E+00  0.00000000000E+00  0.75905115950E+03  0.75905115950E+03  0.00000000000E+00 0. -1.
         -2   -1    0    0    0  501 -0.00000000000E+00 -0.00000000000E+00 -0.13935608996E+04  0.13935608996E+04  0.00000000000E+00 0.  1.
         23    2    1    2    0    0 -0.38552701694E+03  0.11492827077E+03  0.67040508819E+03  0.78709300126E+03  0.90734900448E+02 0.  0.
         11    1    3    3    0    0 -0.19834169418E+03  0.34863383831E+02  0.40778879990E+03  0.45480390115E+03  0.00000000000E+00 0. -1.
        -11    1    3    3    0    0 -0.18718532276E+03  0.80064886944E+02  0.26261628829E+03  0.33228910011E+03  0.00000000000E+00 0.  1.
         22    1    1    2    0    0  0.38552701694E+03 -0.11492827077E+03 -0.13049148283E+04  0.13655190578E+04  0.00000000000E+00 0.  1.
<mgrwt>
<rscale>  0 0.20569725E+04</rscale>
<asrwt>0</asrwt>
<pdfrwt beam="1">  1        2 0.11677710E+00 0.20569725E+04</pdfrwt>
<pdfrwt beam="2">  1       -2 0.21439399E+00 0.20569725E+04</pdfrwt>
<totfact> 0.36617007E+00</totfact>
</mgrwt>
</event>
<event>
 6    1  0.1585031E-006  0.2182084E+04  0.7818608E-02  0.8525922E-01
          2   -1    0    0  501    0  0.00000000000E+00  0.00000000000E+00  0.50240210575E+04  0.50240210575E+04  0.00000000000E+00 0.  1.
         -2   -1    0    0    0  501 -0.00000000000E+00 -0.00000000000E+00 -0.23693626944E+03  0.23693626944E+03  0.00000000000E+00 0. -1.
         23    2    1    2    0    0  0.34534750265E+03 -0.70522506399E+03  0.57819599837E+03  0.97944449472E+03  0.91616686463E+02 0.  0.
         11    1    3    3    0    0  0.22623111518E+03 -0.43934420746E+03  0.30934677213E+03  0.58300881257E+03  0.00000000000E+00 0. -1.
        -11    1    3    3    0    0  0.11911638747E+03 -0.26588085653E+03  0.26884922624E+03  0.39643568215E+03  0.00000000000E+00 0.  1.
         22    1    1    2    0    0 -0.34534750265E+03  0.70522506399E+03  0.42088887897E+04  0.42815128323E+04  0.00000000000E+00 0.  1.
<mgrwt>
<rscale>  0 0.21820841E+04</rscale>
<asrwt>0</asrwt>
<pdfrwt beam="1">  1        2 0.77292624E+00 0.21820841E+04</pdfrwt>
<pdfrwt beam="2">  1       -2 0.36451738E-01 0.21820841E+04</pdfrwt>
<totfact> 0.21150286E-01</totfact>
</mgrwt>
</event>
<event>
 6    1  0.1585031E-006  0.2996057E+04  0.7818608E-02  0.8244858E-01
         -2   -1    0    0    0  501 -0.00000000000E+00  0.00000000000E+00  0.10458146139E+04  0.10458146139E+04  0.00000000000E+00 0.  1.
          2   -1    0    0  501    0  0.00000000000E+00 -0.00000000000E+00 -0.21457818693E+04  0.21457818693E+04  0.00000000000E+00 0. -1.
         23    2    1    2    0    0 -0.13058216040E+04  0.64372408983E+03 -0.92011839840E+03  0.17246621368E+04  0.91054124557E+02 0.  0.
         11    1    3    3    0    0 -0.50414434810E+03  0.28240040758E+03 -0.32656328594E+03  0.66374324377E+03  0.00000000000E+00 0.  1.
        -11    1    3    3    0    0 -0.80167725589E+03  0.36132368225E+03 -0.59355511247E+03  0.10609188930E+04  0.00000000000E+00 0. -1.
         22    1    1    2    0    0  0.13058216040E+04 -0.64372408983E+03 -0.17984885703E+03  0.14669343464E+04  0.00000000000E+00 0.  1.
<mgrwt>
<rscale>  0 0.29960574E+04</rscale>
<asrwt>0</asrwt>
<pdfrwt beam="1">  1        2 0.33012028E+00 0.29960574E+04</pdfrwt>
<pdfrwt beam="2">  1       -2 0.16089456E+00 0.29960574E+04</pdfrwt>
<totfact> 0.11767125E+00</totfact>
</mgrwt>
</event>
<event>
 6    1  0.1585031E-006  0.2369403E+04  0.7818608E-02  0.8451048E-01
          1   -1    0    0  501    0  0.00000000000E+00  0.00000000000E+00  0.11801556721E+04  0.11801556721E+04  0.00000000000E+00 0. -1.
         -1   -1    0    0    0  501 -0.00000000000E+00 -0.00000000000E+00 -0.11892643675E+04  0.11892643675E+04  0.00000000000E+00 0.  1.
         23    2    1    2    0    0 -0.16711785358E+03  0.38939201631E+03  0.10999108414E+04  0.11822052939E+04  0.90834897232E+02 0.  0.
         11    1    3    3    0    0 -0.77713510368E+02  0.18705178897E+03  0.40318611989E+03  0.45120594934E+03  0.00000000000E+00 0. -1.
        -11    1    3    3    0    0 -0.89404343208E+02  0.20234022734E+03  0.69672472154E+03  0.73099934459E+03  0.00000000000E+00 0.  1.
         22    1    1    2    0    0  0.16711785358E+03 -0.38939201631E+03 -0.11090195368E+04  0.11872147457E+04  0.00000000000E+00 0.  1.
<mgrwt>
<rscale>  0 0.23694025E+04</rscale>
<asrwt>0</asrwt>
<pdfrwt beam="1">  1        1 0.18156241E+00 0.23694025E+04</pdfrwt>
<pdfrwt beam="2">  1       -1 0.18296375E+00 0.23694025E+04</pdfrwt>
<totfact> 0.19677292E+00</totfact>
</mgrwt>
</event>
<event>
 6    1  0.1585031E-006  0.1408811E+04  0.7818608E-02  0.8947465E-01
          1   -1    0    0  501    0  0.00000000000E+00  0.00000000000E+00  0.19869229250E+04  0.19869229250E+04  0.00000000000E+00 0. -1.
         -1   -1    0    0    0  501 -0.00000000000E+00 -0.00000000000E+00 -0.24972645407E+03  0.24972645407E+03  0.00000000000E+00 0.  1.
         23    2    1    2    0    0  0.34676478119E+03  0.49025142996E+03  0.29519826700E+03  0.67461509706E+03  0.85855892594E+02 0.  0.
         13    1    3    3    0    0  0.18266737010E+03  0.18680833559E+03  0.13863796870E+03  0.29577898626E+03  0.00000000000E+00 0. -1.
        -13    1    3    3    0    0  0.16409741109E+03  0.30344309437E+03  0.15656029830E+03  0.37883611080E+03  0.00000000000E+00 0.  1.
         22    1    1    2    0    0 -0.34676478119E+03 -0.49025142996E+03  0.14419982039E+04  0.15620342820E+04  0.00000000000E+00 0. -1.
<mgrwt>
<rscale>  0 0.14088112E+04</rscale>
<asrwt>0</asrwt>
<pdfrwt beam="1">  1        1 0.30568044E+00 0.14088112E+04</pdfrwt>
<pdfrwt beam="2">  1       -1 0.38419456E-01 0.14088112E+04</pdfrwt>
<totfact> 0.19447419E+01</totfact>
</mgrwt>
</event>
<event>
 6    1  0.1585031E-006  0.1521567E+04  0.7818608E-02  0.8870236E-01
          1   -1    0    0  501    0  0.00000000000E+00  0.00000000000E+00  0.25846676238E+04  0.25846676238E+04  0.00000000000E+00 0. -1.
         -1   -1    0    0    0  501 -0.00000000000E+00 -0.00000000000E+00 -0.22393280565E+03  0.22393280565E+03  0.00000000000E+00 0.  1.
         23    2    1    2    0    0 -0.46913176290E+03 -0.46269342195E+02  0.88747287474E+02  0.48822270104E+03  0.90883781787E+02 0.  0.
         11    1    3    3    0    0 -0.16192378972E+03 -0.51164347800E+02  0.57974989115E+02  0.17943857870E+03  0.00000000000E+00 0. -1.
        -11    1    3    3    0    0 -0.30720797318E+03  0.48950056050E+01  0.30772298359E+02  0.30878412234E+03  0.00000000000E+00 0.  1.
         22    1    1    2    0    0  0.46913176290E+03  0.46269342195E+02  0.22719875307E+04  0.23203777284E+04  0.00000000000E+00 0. -1.
<mgrwt>
<rscale>  0 0.15215674E+04</rscale>
<asrwt>0</asrwt>
<pdfrwt beam="1">  1        1 0.39764115E+00 0.15215674E+04</pdfrwt>
<pdfrwt beam="2">  1       -1 0.34451203E-01 0.15215674E+04</pdfrwt>
<totfact> 0.91440122E+00</totfact>
</mgrwt>
</event>
<event>
 6    1  0.1585031E-006  0.7834054E+04  0.7818608E-02  0.7497045E-01
         -2   -1    0    0    0  501 -0.00000000000E+00  0.00000000000E+00  0.39525563693E+04  0.39525563693E+04  0.00000000000E+00 0.  1.
          2   -1    0    0  501    0  0.00000000000E+00 -0.00000000000E+00 -0.38818173585E+04  0.38818173585E+04  0.00000000000E+00 0. -1.
         23    2    1    2    0    0  0.36360628692E+03 -0.36106497949E+04  0.15084487082E+04  0.39310404539E+04  0.93059509251E+02 0.  0.
         13    1    3    3    0    0  0.20255720897E+03 -0.24457672755E+04  0.10181248354E+04  0.26569503513E+04  0.00000000000E+00 0. -1.
        -13    1    3    3    0    0  0.16104907795E+03 -0.11648825194E+04  0.49032387278E+03  0.12740901027E+04  0.00000000000E+00 0.  1.
         22    1    1    2    0    0 -0.36360628692E+03  0.36106497949E+04 -0.14377096973E+04  0.39033332738E+04  0.00000000000E+00 0.  1.
<mgrwt>
<rscale>  0 0.78340544E+04</rscale>
<asrwt>0</asrwt>
<pdfrwt beam="1">  1        2 0.59720267E+00 0.78340544E+04</pdfrwt>
<pdfrwt beam="2">  1       -2 0.60808560E+00 0.78340544E+04</pdfrwt>
<totfact> 0.12124199E-04</totfact>
</mgrwt>
</event>
<event>
 6    1  0.1585031E-006  0.8335755E+03  0.7818608E-02  0.9512650E-01
          3   -1    0    0  501    0  0.00000000000E+00  0.00000000000E+00  0.19375676714E+03  0.19375676714E+03  0.00000000000E+00 0. -1.
         -3   -1    0    0    0  501 -0.00000000000E+00 -0.00000000000E+00 -0.89654681428E+03  0.89654681428E+03  0.00000000000E+00 0.  1.
         23    2    1    2    0    0 -0.14893936954E+03 -0.28526697909E+03 -0.19414616984E+02  0.33494792765E+03  0.90846033089E+02 0.  0.
         11    1    3    3    0    0 -0.81652431938E+01 -0.98593825844E+02 -0.21014562513E+02  0.10113864508E+03  0.00000000000E+00 0.  1.
        -11    1    3    3    0    0 -0.14077412635E+03 -0.18667315324E+03  0.15999455289E+01  0.23380928257E+03  0.00000000000E+00 0. -1.
         22    1    1    2    0    0  0.14893936954E+03  0.28526697909E+03 -0.68337543015E+03  0.75535565377E+03  0.00000000000E+00 0.  1.
<mgrwt>
<rscale>  0 0.83357546E+03</rscale>
<asrwt>0</asrwt>
<pdfrwt beam="1">  1        3 0.29808733E-01 0.83357546E+03</pdfrwt>
<pdfrwt beam="2">  1       -3 0.13793028E+00 0.83357546E+03</pdfrwt>
<totfact> 0.11566074E+01</totfact>
</mgrwt>
</event>
<event>
 6    1  0.1585031E-006  0.9276709E+03  0.7818608E-02  0.9391637E-01
          2   -1    0    0  501    0  0.00000000000E+00  0.00000000000E+00  0.12197682702E+04  0.12197682702E+04  0.00000000000E+00 0. -1.
         -2   -1    0    0    0  501 -0.00000000000E+00 -0.00000000000E+00 -0.17638049960E+03  0.17638049960E+03  0.00000000000E+00 0.  1.
         23    2    1    2    0    0 -0.14496032374E+03 -0.42723592881E+03  0.65517701966E+03  0.80095836207E+03  0.93452321222E+02 0.  0.
         13    1    3    3    0    0  0.11830541482E+01 -0.53441076198E+02  0.12541883205E+03  0.13633499798E+03  0.00000000000E+00 0. -1.
        -13    1    3    3    0    0 -0.14614337789E+03 -0.37379485261E+03  0.52975818762E+03  0.66462336408E+03  0.00000000000E+00 0.  1.
         22    1    1    2    0    0  0.14496032374E+03  0.42723592881E+03  0.38821075098E+03  0.59519040777E+03  0.00000000000E+00 0.  1.
<mgrwt>
<rscale>  0 0.92767093E+03</rscale>
<asrwt>0</asrwt>
<pdfrwt beam="1">  1        2 0.18765665E+00 0.92767093E+03</pdfrwt>
<pdfrwt beam="2">  1       -2 0.27135462E-01 0.92767093E+03</pdfrwt>
<totfact> 0.22767818E+02</totfact>
</mgrwt>
</event>
<event>
 6    1  0.1585031E-006  0.5361791E+04  0.7818608E-02  0.7774998E-01
         -3   -1    0    0    0  501 -0.00000000000E+00  0.00000000000E+00  0.31700754755E+04  0.31700754755E+04  0.00000000000E+00 0.  1.
          3   -1    0    0  501    0  0.00000000000E+00 -0.00000000000E+00 -0.22672019404E+04  0.22672019404E+04  0.00000000000E+00 0. -1.
         23    2    1    2    0    0  0.75341402637E+03  0.11633829777E+04  0.27777620342E+04  0.31056900741E+04  0.90864015980E+02 0.  0.
         11    1    3    3    0    0  0.60973851723E+03  0.87575301342E+03  0.21034735080E+04  0.23586702183E+04  0.00000000000E+00 0. -1.
        -11    1    3    3    0    0  0.14367550913E+03  0.28762996429E+03  0.67428852621E+03  0.74701985574E+03  0.00000000000E+00 0.  1.
         22    1    1    2    0    0 -0.75341402637E+03 -0.11633829777E+04 -0.18748884992E+04  0.23315873418E+04  0.00000000000E+00 0. -1.
<mgrwt>
<rscale>  0 0.53617912E+04</rscale>
<asrwt>0</asrwt>
<pdfrwt beam="1">  1        3 0.34880030E+00 0.53617912E+04</pdfrwt>
<pdfrwt beam="2">  1       -3 0.48770392E+00 0.53617912E+04</pdfrwt>
<totfact> 0.13387705E-04</totfact>
</mgrwt>
</event>
<event>
 6    1  0.1585031E-006  0.3118130E+03  0.7818608E-02  0.1079480E+00
          2   -1    0    0  501    0  0.00000000000E+00  0.00000000000E+00  0.25690975200E+04  0.25690975200E+04  0.00000000000E+00 0. -1.
         -2   -1    0    0    0  501 -0.00000000000E+00 -0.00000000000E+00 -0.94612349853E+01  0.94612349853E+01  0.00000000000E+00 0.  1.
         23    2    1    2    0    0  0.77172572822E+02  0.37061099573E+02  0.23329491078E+04  0.23362444810E+04  0.89764157613E+02 0.  0.
         11    1    3    3    0    0 -0.17941680135E+02 -0.43604249409E+01  0.52186351016E+03  0.52219004245E+03  0.00000000000E+00 0. -1.
        -11    1    3    3    0    0  0.95114252957E+02  0.41421524514E+02  0.18110855977E+04  0.18140544385E+04  0.00000000000E+00 0.  1.
         22    1    1    2    0    0 -0.77172572822E+02 -0.37061099573E+02  0.22668717721E+03  0.24231427405E+03  0.00000000000E+00 0.  1.
<mgrwt>
<rscale>  0 0.31181299E+03</rscale>
<asrwt>0</asrwt>
<pdfrwt beam="1">  1        2 0.39524522E+00 0.31181299E+03</pdfrwt>
<pdfrwt beam="2">  1       -2 0.14555767E-02 0.31181299E+03</pdfrwt>
<totfact> 0.45233702E+03</totfact>
</mgrwt>
</event>
<event>
 6    1  0.1585031E-006  0.4744200E+04  0.7818608E-02  0.7869226E-01
         -1   -1    0    0    0  501 -0.00000000000E+00  0.00000000000E+00  0.22075128046E+04  0.22075128046E+04  0.00000000000E+00 0.  1.
          1   -1    0    0  501    0  0.00000000000E+00 -0.00000000000E+00 -0.25489588526E+04  0.25489588526E+04  0.00000000000E+00 0. -1.
         23    2    1    2    0    0 -0.13425536277E+04 -0.33651725206E+03 -0.21002691402E+04  0.25183579930E+04  0.12370293211E+03 0.  0.
         11    1    3    3    0    0 -0.51856075289E+03 -0.12351625818E+03 -0.70223118243E+03  0.88164060367E+03  0.00000000000E+00 0.  1.
        -11    1    3    3    0    0 -0.82399287482E+03 -0.21300099388E+03 -0.13980379577E+04  0.16367173893E+04  0.00000000000E+00 0. -1.
         22    1    1    2    0    0  0.13425536277E+04  0.33651725206E+03  0.17588230922E+04  0.22381136642E+04  0.00000000000E+00 0.  1.
<mgrwt>
<rscale>  0 0.47442004E+04</rscale>
<asrwt>0</asrwt>
<pdfrwt beam="1">  1        1 0.39214751E+00 0.47442004E+04</pdfrwt>
<pdfrwt beam="2">  1       -1 0.33961736E+00 0.47442004E+04</pdfrwt>
<totfact> 0.16795725E-02</totfact>
</mgrwt>
</event>
<event>
 6    1  0.1585031E-006  0.2888358E+04  0.7818608E-02  0.8276350E-01
          1   -1    0    0  501    0  0.00000000000E+00  0.00000000000E+00  0.27042039084E+04  0.27042039084E+04  0.00000000000E+00 0. -1.
         -1   -1    0    0    0  501 -0.00000000000E+00 -0.00000000000E+00 -0.77126298811E+03  0.77126298811E+03  0.00000000000E+00 0.  1.
         23    2    1    2    0    0  0.11384989820E+04 -0.10170077981E+03  0.20266484466E+04  0.23285998244E+04  0.92467483343E+02 0.  0.
         11    1    3    3    0    0  0.66552628777E+03 -0.55342524133E+02  0.12751230723E+04  0.14394189398E+04  0.00000000000E+00 0.  1.
        -11    1    3    3    0    0  0.47297269426E+03 -0.46358255681E+02  0.75152537427E+03  0.88918088461E+03  0.00000000000E+00 0. -1.
         22    1    1    2    0    0 -0.11384989820E+04  0.10170077981E+03 -0.93707526238E+02  0.11468670721E+04  0.00000000000E+00 0.  1.
<mgrwt>
<rscale>  0 0.28883576E+04</rscale>
<asrwt>0</asrwt>
<pdfrwt beam="1">  1        1 0.41603137E+00 0.28883576E+04</pdfrwt>
<pdfrwt beam="2">  1       -1 0.11865585E+00 0.28883576E+04</pdfrwt>
<totfact> 0.53267329E-01</totfact>
</mgrwt>
</event>
<event>
 6    1  0.1585031E-006  0.2589124E+04  0.7818608E-02  0.8371905E-01
          2   -1    0    0  501    0  0.00000000000E+00  0.00000000000E+00  0.14801301470E+04  0.14801301470E+04  0.00000000000E+00 0. -1.
         -2   -1    0    0    0  501 -0.00000000000E+00 -0.00000000000E+00 -0.11322589966E+04  0.11322589966E+04  0.00000000000E+00 0.  1.
         23    2    1    2    0    0 -0.10906786646E+04 -0.10529240263E+03  0.86727715066E+03  0.13997684145E+04  0.80718764287E+02 0.  0.
         13    1    3    3    0    0 -0.40876324412E+03 -0.26362746343E+02  0.27772902314E+03  0.49488967906E+03  0.00000000000E+00 0. -1.
        -13    1    3    3    0    0 -0.68191542045E+03 -0.78929656291E+02  0.58954812752E+03  0.90487873549E+03  0.00000000000E+00 0.  1.
         22    1    1    2    0    0  0.10906786646E+04  0.10529240263E+03 -0.51940600026E+03  0.12126207290E+04  0.00000000000E+00 0.  1.
<mgrwt>
<rscale>  0 0.25891239E+04</rscale>
<asrwt>0</asrwt>
<pdfrwt beam="1">  1        2 0.22771233E+00 0.25891239E+04</pdfrwt>
<pdfrwt beam="2">  1       -2 0.17419369E+00 0.25891239E+04</pdfrwt>
<totfact> 0.22961763E+00</totfact>
</mgrwt>
</event>
<event>
 6    1  0.2604350E-006  0.3187192E+04  0.7818608E-02  0.8192208E-01
          2   -1    0    0  501    0  0.00000000000E+00  0.00000000000E+00  0.23656809033E+04  0.23656809033E+04  0.00000000000E+00 0. -1.
         -2   -1    0    0    0  501 -0.00000000000E+00 -0.00000000000E+00 -0.10734954912E+04  0.10734954912E+04  0.00000000000E+00 0.  1.
         23    2    1    2    0    0 -0.64771223755E+03 -0.47769486164E+03 -0.83605706257E+03  0.11638435498E+04  0.88413081417E+02 0.  0.
         13    1    3    3    0    0 -0.36320256570E+03 -0.29358883198E+03 -0.42864615739E+03  0.63391484778E+03  0.00000000000E+00 0. -1.
        -13    1    3    3    0    0 -0.28450967185E+03 -0.18410602966E+03 -0.40741090518E+03  0.52992870199E+03  0.00000000000E+00 0.  1.
         22    1    1    2    0    0  0.64771223755E+03  0.47769486164E+03  0.21282424746E+04  0.22753328447E+04  0.00000000000E+00 0. -1.
<mgrwt>
<rscale>  0 0.31871917E+04</rscale>
<asrwt>0</asrwt>
<pdfrwt beam="1">  1        2 0.36395091E+00 0.31871917E+04</pdfrwt>
<pdfrwt beam="2">  1       -2 0.16515315E+00 0.31871917E+04</pdfrwt>
<totfact> 0.80960014E-01</totfact>
</mgrwt>
</event>
<event>
 6    1  0.1585031E-006  0.2010151E+04  0.7818608E-02  0.8601889E-01
         -2   -1    0    0    0  501 -0.00000000000E+00  0.00000000000E+00  0.61752935884E+03  0.61752935884E+03  0.00000000000E+00 0.  1.
          2   -1    0    0  501    0  0.00000000000E+00 -0.00000000000E+00 -0.16358356988E+04  0.16358356988E+04  0.00000000000E+00 0. -1.
         23    2    1    2    0    0  0.49329967033E+03  0.17034148228E+03 -0.14703582218E+04  0.15629219469E+04  0.91711103708E+02 0.  0.
         13    1    3    3    0    0  0.38463694689E+02 -0.73264725789E+01 -0.75281383715E+02  0.84855287069E+02  0.00000000000E+00 0.  1.
        -13    1    3    3    0    0  0.45483597564E+03  0.17766795486E+03 -0.13950768381E+04  0.14780666599E+04  0.00000000000E+00 0. -1.
         22    1    1    2    0    0 -0.49329967033E+03 -0.17034148228E+03  0.45205188179E+03  0.69044311073E+03  0.00000000000E+00 0.  1.
<mgrwt>
<rscale>  0 0.20101508E+04</rscale>
<asrwt>0</asrwt>
<pdfrwt beam="1">  1        2 0.25166703E+00 0.20101508E+04</pdfrwt>
<pdfrwt beam="2">  1       -2 0.95004517E-01 0.20101508E+04</pdfrwt>
<totfact> 0.92126573E+00</totfact>
</mgrwt>
</event>
<event>
 6    1  0.1585031E-006  0.1368085E+04  0.7818608E-02  0.8977250E-01
          2   -1    0    0  501    0  0.00000000000E+00  0.00000000000E+00  0.21798044289E+04  0.21798044289E+04  0.00000000000E+00 0. -1.
         -2   -1    0    0    0  501 -0.00000000000E+00 -0.00000000000E+00 -0.21465881407E+03  0.21465881407E+03  0.00000000000E+00 0.  1.
         23    2    1    2    0    0 -0.15621566120E+03 -0.29477534980E+03  0.20260989021E+04  0.20553303149E+04  0.89499176858E+02 0.  0.
         13    1    3    3    0    0 -0.15809917098E+03 -0.23777640806E+03  0.15791756928E+04  0.16047831121E+04  0.00000000000E+00 0. -1.
        -13    1    3    3    0    0  0.18835097767E+01 -0.56998941742E+02  0.44692320926E+03  0.45054720279E+03  0.00000000000E+00 0.  1.
         22    1    1    2    0    0  0.15621566120E+03  0.29477534980E+03 -0.60953287273E+02  0.33913292805E+03  0.00000000000E+00 0.  1.
<mgrwt>
<rscale>  0 0.13680851E+04</rscale>
<asrwt>0</asrwt>
<pdfrwt beam="1">  1        2 0.33535451E+00 0.13680851E+04</pdfrwt>
<pdfrwt beam="2">  1       -2 0.33024434E-01 0.13680851E+04</pdfrwt>
<totfact> 0.44324325E+01</totfact>
</mgrwt>
</event>
<event>
 6    1  0.1585031E-006  0.2690993E+04  0.7818608E-02  0.8337933E-01
         -1   -1    0    0    0  501 -0.00000000000E+00  0.00000000000E+00  0.10087819909E+04  0.10087819909E+04  0.00000000000E+00 0.  1.
          1   -1    0    0  501    0  0.00000000000E+00 -0.00000000000E+00 -0.17946009715E+04  0.17946009715E+04  0.00000000000E+00 0. -1.
         23    2    1    2    0    0  0.78447111809E+03 -0.32060377814E+03 -0.14800378534E+04  0.17078823641E+04  0.90379225858E+02 0.  0.
         11    1    3    3    0    0  0.51875050641E+02 -0.47731905956E+02 -0.12109499997E+03  0.14011907345E+03  0.00000000000E+00 0.  1.
        -11    1    3    3    0    0  0.73259606744E+03 -0.27287187218E+03 -0.13589428534E+04  0.15677632906E+04  0.00000000000E+00 0. -1.
         22    1    1    2    0    0 -0.78447111809E+03  0.32060377814E+03  0.69421887276E+03  0.10955005983E+04  0.00000000000E+00 0.  1.
<mgrwt>
<rscale>  0 0.26909932E+04</rscale>
<asrwt>0</asrwt>
<pdfrwt beam="1">  1        1 0.27609246E+00 0.26909932E+04</pdfrwt>
<pdfrwt beam="2">  1       -1 0.15519723E+00 0.26909932E+04</pdfrwt>
<totfact> 0.11417169E+00</totfact>
</mgrwt>
</event>
<event>
 6    1  0.1585031E-006  0.3220926E+04  0.7818608E-02  0.8183312E-01
          1   -1    0    0  501    0  0.00000000000E+00  0.00000000000E+00  0.17776068258E+04  0.17776068258E+04  0.00000000000E+00 0. -1.
         -1   -1    0    0    0  501 -0.00000000000E+00 -0.00000000000E+00 -0.14590356451E+04  0.14590356451E+04  0.00000000000E+00 0.  1.
         23    2    1    2    0    0 -0.11131071572E+04  0.11237315301E+04  0.45706645621E+03  0.16488890150E+04  0.90250447583E+02 0.  0.
         13    1    3    3    0    0 -0.57500386758E+03  0.51678414921E+03  0.21784066734E+03  0.80321221415E+03  0.00000000000E+00 0.  1.
        -13    1    3    3    0    0 -0.53810328966E+03  0.60694738086E+03  0.23922578887E+03  0.84567680088E+03  0.00000000000E+00 0. -1.
         22    1    1    2    0    0  0.11131071572E+04 -0.11237315301E+04 -0.13849527553E+03  0.15877534558E+04  0.00000000000E+00 0.  1.
<mgrwt>
<rscale>  0 0.32209264E+04</rscale>
<asrwt>0</asrwt>
<pdfrwt beam="1">  1        1 0.27347797E+00 0.32209264E+04</pdfrwt>
<pdfrwt beam="2">  1       -1 0.22446702E+00 0.32209264E+04</pdfrwt>
<totfact> 0.36206075E-01</totfact>
</mgrwt>
</event>
<event>
 6    1  0.1585031E-006  0.3527848E+04  0.7818608E-02  0.8107222E-01
          1   -1    0    0  501    0  0.00000000000E+00  0.00000000000E+00  0.19729787830E+04  0.19729787830E+04  0.00000000000E+00 0. -1.
         -1   -1    0    0    0  501 -0.00000000000E+00 -0.00000000000E+00 -0.15770203390E+04  0.15770203390E+04  0.00000000000E+00 0.  1.
         23    2    1    2    0    0 -0.10820039210E+03  0.10970310045E+04  0.15826490808E+04  0.19303019228E+04  0.78122024562E+02 0.  0.
         13    1    3    3    0    0 -0.94474003538E+02  0.63643570756E+03  0.88336533183E+03  0.10928449372E+04  0.00000000000E+00 0. -1.
        -13    1    3    3    0    0 -0.13726388562E+02  0.46059529694E+03  0.69928374896E+03  0.83745698568E+03  0.00000000000E+00 0.  1.
         22    1    1    2    0    0  0.10820039210E+03 -0.10970310045E+04 -0.11866906367E+04  0.16196971992E+04  0.00000000000E+00 0.  1.
<mgrwt>
<rscale>  0 0.35278479E+04</rscale>
<asrwt>0</asrwt>
<pdfrwt beam="1">  1        1 0.30353520E+00 0.35278479E+04</pdfrwt>
<pdfrwt beam="2">  1       -1 0.24261851E+00 0.35278479E+04</pdfrwt>
<totfact> 0.19718203E-01</totfact>
</mgrwt>
</event>
<event>
 6    1  0.1585031E-006  0.1056376E+04  0.7818608E-02  0.9248786E-01
          2   -1    0    0  501    0  0.00000000000E+00  0.00000000000E+00  0.50973917969E+03  0.50973917969E+03  0.00000000000E+00 0. -1.
         -2   -1    0    0    0  501 -0.00000000000E+00 -0.00000000000E+00 -0.54730449027E+03  0.54730449027E+03  0.00000000000E+00 0.  1.
         23    2    1    2    0    0 -0.94295573301E+02 -0.50994185614E+03  0.58314727538E+02  0.52966777603E+03  0.90636602639E+02 0.  0.
         13    1    3    3    0    0 -0.35605740738E+01 -0.11155215253E+03  0.46491565567E+02  0.12090502922E+03  0.00000000000E+00 0.  1.
        -13    1    3    3    0    0 -0.90734999227E+02 -0.39838970361E+03  0.11823161971E+02  0.40876274682E+03  0.00000000000E+00 0. -1.
         22    1    1    2    0    0  0.94295573301E+02  0.50994185614E+03 -0.95880038115E+02  0.52737589392E+03  0.00000000000E+00 0. -1.
<mgrwt>
<rscale>  0 0.10563760E+04</rscale>
<asrwt>0</asrwt>
<pdfrwt beam="1">  1        2 0.78421413E-01 0.10563760E+04</pdfrwt>
<pdfrwt beam="2">  1       -2 0.84200690E-01 0.10563760E+04</pdfrwt>
<totfact> 0.73825887E+01</totfact>
</mgrwt>
</event>
<event>
 6    1  0.1585031E-006  0.3271870E+04  0.7818608E-02  0.8170090E-01
          2   -1    0    0  501    0  0.00000000000E+00  0.00000000000E+00  0.22208190122E+04  0.22208190122E+04  0.00000000000E+00 0. -1.
         -2   -1    0    0    0  501 -0.00000000000E+00 -0.00000000000E+00 -0.12050884892E+04  0.12050884892E+04  0.00000000000E+00 0.  1.
         23    2    1    2    0    0  0.11545501844E+04 -0.11385577613E+04  0.29152163243E+03  0.16500194359E+04  0.90991058528E+02 0.  0.
         13    1    3    3    0    0  0.60889343773E+03 -0.62090381948E+03  0.19995687460E+03  0.89233150973E+03  0.00000000000E+00 0. -1.
        -13    1    3    3    0    0  0.54565674667E+03 -0.51765394179E+03  0.91564757830E+02  0.75768792620E+03  0.00000000000E+00 0.  1.
         22    1    1    2    0    0 -0.11545501844E+04  0.11385577613E+04  0.72420889049E+03  0.17758880655E+04  0.00000000000E+00 0.  1.
<mgrwt>
<rscale>  0 0.32718701E+04</rscale>
<asrwt>0</asrwt>
<pdfrwt beam="1">  1        2 0.34166446E+00 0.32718701E+04</pdfrwt>
<pdfrwt beam="2">  1       -2 0.18539823E+00 0.32718701E+04</pdfrwt>
<totfact> 0.70059650E-01</totfact>
</mgrwt>
</event>
<event>
 6    1  0.1585031E-006  0.4465626E+03  0.7818608E-02  0.1028752E+00
          2   -1    0    0  501    0  0.00000000000E+00  0.00000000000E+00  0.25542227226E+04  0.25542227226E+04  0.00000000000E+00 0. -1.
         -2   -1    0    0    0  501 -0.00000000000E+00 -0.00000000000E+00 -0.19518474179E+02  0.19518474179E+02  0.00000000000E+00 0.  1.
         23    2    1    2    0    0  0.52561654359E+02  0.16982759073E+01  0.25160520441E+04  0.25179423045E+04  0.82158070933E+02 0.  0.
         11    1    3    3    0    0 -0.65338738662E+01  0.33296178023E+00  0.15860957976E+04  0.15861092905E+04  0.00000000000E+00 0. -1.
        -11    1    3    3    0    0  0.59095528225E+02  0.13653141271E+01  0.92995624651E+03  0.93183301399E+03  0.00000000000E+00 0.  1.
         22    1    1    2    0    0 -0.52561654359E+02 -0.16982759073E+01  0.18652204303E+02  0.55798892241E+02  0.00000000000E+00 0.  1.
<mgrwt>
<rscale>  0 0.44656256E+03</rscale>
<asrwt>0</asrwt>
<pdfrwt beam="1">  1        2 0.39295708E+00 0.44656256E+03</pdfrwt>
<pdfrwt beam="2">  1       -2 0.30028442E-02 0.44656256E+03</pdfrwt>
<totfact> 0.15556207E+03</totfact>
</mgrwt>
</event>
<event>
 6    1  0.1585031E-006  0.3556707E+04  0.7818608E-02  0.8100481E-01
         -2   -1    0    0    0  501 -0.00000000000E+00  0.00000000000E+00  0.17283310962E+04  0.17283310962E+04  0.00000000000E+00 0.  1.
          2   -1    0    0  501    0  0.00000000000E+00 -0.00000000000E+00 -0.18298239958E+04  0.18298239958E+04  0.00000000000E+00 0. -1.
         23    2    1    2    0    0 -0.14175906201E+03  0.78028147241E+03  0.15402619169E+04  0.17348905239E+04  0.92214692805E+02 0.  0.
         13    1    3    3    0    0 -0.67049904063E+00  0.23743578118E+03  0.44696329309E+03  0.50611499200E+03  0.00000000000E+00 0. -1.
        -13    1    3    3    0    0 -0.14108856297E+03  0.54284569123E+03  0.10932986238E+04  0.12287755319E+04  0.00000000000E+00 0.  1.
         22    1    1    2    0    0  0.14175906201E+03 -0.78028147241E+03 -0.16417548164E+04  0.18232645681E+04  0.00000000000E+00 0. -1.
<mgrwt>
<rscale>  0 0.35567073E+04</rscale>
<asrwt>0</asrwt>
<pdfrwt beam="1">  1        2 0.28151138E+00 0.35567073E+04</pdfrwt>
<pdfrwt beam="2">  1       -2 0.26589709E+00 0.35567073E+04</pdfrwt>
<totfact> 0.34885172E-01</totfact>
</mgrwt>
</event>
<event>
 6    1  0.1585031E-006  0.1843142E+04  0.7818608E-02  0.8683688E-01
         -2   -1    0    0    0  501 -0.00000000000E+00  0.00000000000E+00  0.22428269696E+03  0.22428269696E+03  0.00000000000E+00 0.  1.
          2   -1    0    0  501    0  0.00000000000E+00 -0.00000000000E+00 -0.37867082655E+04  0.37867082655E+04  0.00000000000E+00 0. -1.
         23    2    1    2    0    0 -0.46735291119E+03 -0.78614968580E+03 -0.15829263478E+04  0.18304251558E+04  0.91380285182E+02 0.  0.
         11    1    3    3    0    0 -0.27608593914E+03 -0.37501001432E+03 -0.80152736506E+03  0.92698547646E+03  0.00000000000E+00 0.  1.
        -11    1    3    3    0    0 -0.19126697205E+03 -0.41113967148E+03 -0.78139898271E+03  0.90343967936E+03  0.00000000000E+00 0. -1.
         22    1    1    2    0    0  0.46735291119E+03  0.78614968580E+03 -0.19794992208E+04  0.21805658067E+04  0.00000000000E+00 0.  1.
<mgrwt>
<rscale>  0 0.18431420E+04</rscale>
<asrwt>0</asrwt>
<pdfrwt beam="1">  1        2 0.58257051E+00 0.18431420E+04</pdfrwt>
<pdfrwt beam="2">  1       -2 0.34505030E-01 0.18431420E+04</pdfrwt>
<totfact> 0.37634547E+00</totfact>
</mgrwt>
</event>
<event>
 6    1  0.1585031E-006  0.3736940E+03  0.7818608E-02  0.1053289E+00
         -2   -1    0    0    0  501 -0.00000000000E+00  0.00000000000E+00  0.66507752005E+02  0.66507752005E+02  0.00000000000E+00 0.  1.
          2   -1    0    0  501    0  0.00000000000E+00 -0.00000000000E+00 -0.52492841750E+03  0.52492841750E+03  0.00000000000E+00 0. -1.
         23    2    1    2    0    0  0.46791267068E+02  0.15258959173E+03 -0.12992664577E+03  0.22622208548E+03  0.93928124105E+02 0.  0.
         13    1    3    3    0    0  0.53765767637E+02  0.82834995965E+02 -0.12001573395E+03  0.15542255538E+03  0.00000000000E+00 0. -1.
        -13    1    3    3    0    0 -0.69745005698E+01  0.69754595766E+02 -0.99109118234E+01  0.70799530096E+02  0.00000000000E+00 0.  1.
         22    1    1    2    0    0 -0.46791267068E+02 -0.15258959173E+03 -0.32849401972E+03  0.36521408402E+03  0.00000000000E+00 0. -1.
<mgrwt>
<rscale>  0 0.37369404E+03</rscale>
<asrwt>0</asrwt>
<pdfrwt beam="1">  1        2 0.80758217E-01 0.37369404E+03</pdfrwt>
<pdfrwt beam="2">  1       -2 0.10231962E-01 0.37369404E+03</pdfrwt>
<totfact> 0.37864864E+03</totfact>
</mgrwt>
</event>
<event>
 6    1  0.1585031E-006  0.3664619E+04  0.7818608E-02  0.8075848E-01
          2   -1    0    0  501    0  0.00000000000E+00  0.00000000000E+00  0.28665883475E+04  0.28665883475E+04  0.00000000000E+00 0. -1.
         -2   -1    0    0    0  501 -0.00000000000E+00 -0.00000000000E+00 -0.11712035135E+04  0.11712035135E+04  0.00000000000E+00 0.  1.
         23    2    1    2    0    0 -0.87322797288E+02 -0.17566658644E+04  0.14097961031E+04  0.22559217329E+04  0.90319334330E+02 0.  0.
         13    1    3    3    0    0 -0.76635997822E+02 -0.14501966118E+04  0.12063644758E+04  0.18879243993E+04  0.00000000000E+00 0.  1.
        -13    1    3    3    0    0 -0.10686799466E+02 -0.30646925268E+03  0.20343162733E+03  0.36799733358E+03  0.00000000000E+00 0. -1.
         22    1    1    2    0    0  0.87322797288E+02  0.17566658644E+04  0.28558873093E+03  0.17818701281E+04  0.00000000000E+00 0.  1.
<mgrwt>
<rscale>  0 0.36646191E+04</rscale>
<asrwt>0</asrwt>
<pdfrwt beam="1">  1        2 0.44101359E+00 0.36646191E+04</pdfrwt>
<pdfrwt beam="2">  1       -2 0.18018516E+00 0.36646191E+04</pdfrwt>
<totfact> 0.30858705E-01</totfact>
</mgrwt>
</event>
<event>
 6    1  0.1585031E-006  0.1556997E+04  0.7818608E-02  0.8847411E-01
         -1   -1    0    0    0  501 -0.00000000000E+00  0.00000000000E+00  0.25381921320E+04  0.25381921320E+04  0.00000000000E+00 0.  1.
          1   -1    0    0  501    0  0.00000000000E+00 -0.00000000000E+00 -0.23877620756E+03  0.23877620756E+03  0.00000000000E+00 0. -1.
         23    2    1    2    0    0  0.75757102539E+03  0.20322040482E+02  0.14497412962E+04  0.16384281261E+04  0.91488002165E+02 0.  0.
         13    1    3    3    0    0  0.37589607138E+03  0.48955561985E+02  0.66958249720E+03  0.76943825229E+03  0.00000000000E+00 0.  1.
        -13    1    3    3    0    0  0.38167495401E+03 -0.28633521503E+02  0.78015879902E+03  0.86898987379E+03  0.00000000000E+00 0. -1.
         22    1    1    2    0    0 -0.75757102539E+03 -0.20322040482E+02  0.84967462821E+03  0.11385402135E+04  0.00000000000E+00 0. -1.
<mgrwt>
<rscale>  0 0.15569970E+04</rscale>
<asrwt>0</asrwt>
<pdfrwt beam="1">  1        1 0.36734803E-01 0.15569970E+04</pdfrwt>
<pdfrwt beam="2">  1       -1 0.39049108E+00 0.15569970E+04</pdfrwt>
<totfact> 0.94973804E-01</totfact>
</mgrwt>
</event>
<event>
 6    1  0.1585031E-006  0.2765562E+04  0.7818608E-02  0.8314040E-01
         -1   -1    0    0    0  501 -0.00000000000E+00  0.00000000000E+00  0.14481902757E+04  0.14481902757E+04  0.00000000000E+00 0.  1.
          1   -1    0    0  501    0  0.00000000000E+00 -0.00000000000E+00 -0.13203259434E+04  0.13203259434E+04  0.00000000000E+00 0. -1.
         23    2    1    2    0    0 -0.99758128854E+03  0.59846391364E+03  0.80962383066E+03  0.14201381205E+04  0.89297542219E+02 0.  0.
         13    1    3    3    0    0 -0.93382958656E+02  0.28334018726E+02  0.75604575701E+02  0.12344733878E+03  0.00000000000E+00 0. -1.
        -13    1    3    3    0    0 -0.90419832989E+03  0.57012989491E+03  0.73401925496E+03  0.12966907818E+04  0.00000000000E+00 0.  1.
         22    1    1    2    0    0  0.99758128854E+03 -0.59846391364E+03 -0.68175949836E+03  0.13483780986E+04  0.00000000000E+00 0. -1.
<mgrwt>
<rscale>  0 0.27655619E+04</rscale>
<asrwt>0</asrwt>
<pdfrwt beam="1">  1        1 0.20312707E+00 0.27655619E+04</pdfrwt>
<pdfrwt beam="2">  1       -1 0.22279850E+00 0.27655619E+04</pdfrwt>
<totfact> 0.80065666E-01</totfact>
</mgrwt>
</event>
<event>
 6    1  0.1585031E-006  0.1882646E+04  0.7818608E-02  0.8663543E-01
         -1   -1    0    0    0  501 -0.00000000000E+00  0.00000000000E+00  0.64148528961E+03  0.64148528961E+03  0.00000000000E+00 0.  1.
          1   -1    0    0  501    0  0.00000000000E+00 -0.00000000000E+00 -0.13813076467E+04  0.13813076467E+04  0.00000000000E+00 0. -1.
         23    2    1    2    0    0 -0.23451793832E+03 -0.33678316869E+03  0.53669627872E+03  0.68192702442E+03  0.92520294696E+02 0.  0.
         11    1    3    3    0    0 -0.27445691403E+02 -0.10087549902E+03  0.16608311787E+03  0.19624661607E+03  0.00000000000E+00 0. -1.
        -11    1    3    3    0    0 -0.20707224692E+03 -0.23590766966E+03  0.37061316086E+03  0.48568040835E+03  0.00000000000E+00 0.  1.
         22    1    1    2    0    0  0.23451793832E+03  0.33678316869E+03 -0.12765186359E+04  0.13408659119E+04  0.00000000000E+00 0. -1.
<mgrwt>
<rscale>  0 0.18826455E+04</rscale>
<asrwt>0</asrwt>
<pdfrwt beam="1">  1        1 0.21250887E+00 0.18826455E+04</pdfrwt>
<pdfrwt beam="2">  1       -1 0.98690046E-01 0.18826455E+04</pdfrwt>
<totfact> 0.72888560E+00</totfact>
</mgrwt>
</event>
<event>
 6    1  0.1585031E-006  0.3173099E+04  0.7818608E-02  0.8195958E-01
         -2   -1    0    0    0  501 -0.00000000000E+00  0.00000000000E+00  0.14236106290E+04  0.14236106290E+04  0.00000000000E+00 0.  1.
          2   -1    0    0  501    0  0.00000000000E+00 -0.00000000000E+00 -0.17681376393E+04  0.17681376393E+04  0.00000000000E+00 0. -1.
         23    2    1    2    0    0 -0.14349614789E+04  0.27247735353E+03 -0.79214068341E+03  0.16640976687E+04  0.91519586329E+02 0.  0.
         13    1    3    3    0    0 -0.30088307511E+03  0.37377489980E+02 -0.20099469738E+03  0.36376719206E+03  0.00000000000E+00 0. -1.
        -13    1    3    3    0    0 -0.11340784038E+04  0.23509986355E+03 -0.59114598604E+03  0.13003304767E+04  0.00000000000E+00 0.  1.
         22    1    1    2    0    0  0.14349614789E+04 -0.27247735353E+03  0.44761367313E+03  0.15276505996E+04  0.00000000000E+00 0. -1.
<mgrwt>
<rscale>  0 0.31730991E+04</rscale>
<asrwt>0</asrwt>
<pdfrwt beam="1">  1        2 0.27202118E+00 0.31730991E+04</pdfrwt>
<pdfrwt beam="2">  1       -2 0.21901702E+00 0.31730991E+04</pdfrwt>
<totfact> 0.76056536E-01</totfact>
</mgrwt>
</event>
<event>
 6    1  0.1585031E-006  0.2027786E+04  0.7818608E-02  0.8593739E-01
         -1   -1    0    0    0  501 -0.00000000000E+00  0.00000000000E+00  0.87406554954E+03  0.87406554954E+03  0.00000000000E+00 0.  1.
          1   -1    0    0  501    0  0.00000000000E+00 -0.00000000000E+00 -0.11760893741E+04  0.11760893741E+04  0.00000000000E+00 0. -1.
         23    2    1    2    0    0  0.56488696679E+03  0.76891486102E+03  0.18945019781E+03  0.97690096327E+03  0.90093095453E+02 0.  0.
         13    1    3    3    0    0  0.43800160248E+03  0.65395045303E+03  0.15167306252E+03  0.80156179842E+03  0.00000000000E+00 0. -1.
        -13    1    3    3    0    0  0.12688536431E+03  0.11496440799E+03  0.37777135289E+02  0.17533916486E+03  0.00000000000E+00 0.  1.
         22    1    1    2    0    0 -0.56488696679E+03 -0.76891486102E+03 -0.49147402234E+03  0.10732539603E+04  0.00000000000E+00 0. -1.
<mgrwt>
<rscale>  0 0.20277862E+04</rscale>
<asrwt>0</asrwt>
<pdfrwt beam="1">  1        1 0.18093683E+00 0.20277862E+04</pdfrwt>
<pdfrwt beam="2">  1       -1 0.13447162E+00 0.20277862E+04</pdfrwt>
<totfact> 0.47916617E+00</totfact>
</mgrwt>
</event>
<event>
 6    1  0.1585031E-006  0.2275845E+04  0.7818608E-02  0.8487506E-01
         -2   -1    0    0    0  501 -0.00000000000E+00  0.00000000000E+00  0.20679068981E+04  0.20679068981E+04  0.00000000000E+00 0.  1.
          2   -1    0    0  501    0  0.00000000000E+00 -0.00000000000E+00 -0.62617328703E+03  0.62617328703E+03  0.00000000000E+00 0. -1.
         23    2    1    2    0    0  0.37089637322E+03 -0.41409800198E+03 -0.45092623894E+03  0.72146704954E+03  0.90216160866E+02 0.  0.
         11    1    3    3    0    0  0.16201151765E+03 -0.13612111586E+03 -0.21231403057E+03  0.29975646384E+03  0.00000000000E+00 0. -1.
        -11    1    3    3    0    0  0.20888485557E+03 -0.27797688612E+03 -0.23861220837E+03  0.42171058569E+03  0.00000000000E+00 0.  1.
         22    1    1    2    0    0 -0.37089637322E+03  0.41409800198E+03  0.18926598501E+04  0.19726131356E+04  0.00000000000E+00 0.  1.
<mgrwt>
<rscale>  0 0.22758454E+04</rscale>
<asrwt>0</asrwt>
<pdfrwt beam="1">  1        2 0.96334353E-01 0.22758454E+04</pdfrwt>
<pdfrwt beam="2">  1       -2 0.31813952E+00 0.22758454E+04</pdfrwt>
<totfact> 0.10522505E+00</totfact>
</mgrwt>
</event>
<event>
 6    1  0.1585031E-006  0.4226305E+04  0.7818608E-02  0.7960387E-01
          2   -1    0    0  501    0  0.00000000000E+00  0.00000000000E+00  0.24635010814E+04  0.24635010814E+04  0.00000000000E+00 0. -1.
         -2   -1    0    0    0  501 -0.00000000000E+00 -0.00000000000E+00 -0.18126287223E+04  0.18126287223E+04  0.00000000000E+00 0.  1.
         23    2    1    2    0    0 -0.11603326160E+04 -0.95388537625E+03 -0.11768533458E+04  0.19103634705E+04  0.90750763625E+02 0.  0.
         13    1    3    3    0    0 -0.24802402145E+03 -0.21189505141E+03 -0.30363444580E+03  0.44565603856E+03  0.00000000000E+00 0.  1.
        -13    1    3    3    0    0 -0.91230859455E+03 -0.74199032485E+03 -0.87321890004E+03  0.14647074320E+04  0.00000000000E+00 0. -1.
         22    1    1    2    0    0  0.11603326160E+04  0.95388537625E+03  0.18277257050E+04  0.23657663332E+04  0.00000000000E+00 0. -1.
<mgrwt>
<rscale>  0 0.42263047E+04</rscale>
<asrwt>0</asrwt>
<pdfrwt beam="1">  1        2 0.37900017E+00 0.42263047E+04</pdfrwt>
<pdfrwt beam="2">  1       -2 0.27886596E+00 0.42263047E+04</pdfrwt>
<totfact> 0.12113647E-01</totfact>
</mgrwt>
</event>
<event>
 6    1  0.1585031E-006  0.8315302E+03  0.7818608E-02  0.9515467E-01
         -3   -1    0    0    0  501 -0.00000000000E+00  0.00000000000E+00  0.35580279579E+03  0.35580279579E+03  0.00000000000E+00 0.  1.
          3   -1    0    0  501    0  0.00000000000E+00 -0.00000000000E+00 -0.48583263350E+03  0.48583263350E+03  0.00000000000E+00 0. -1.
         23    2    1    2    0    0 -0.71274927901E+02  0.27778345365E+03  0.23202548679E+03  0.37976118182E+03  0.90216219330E+02 0.  0.
         13    1    3    3    0    0 -0.40222100456E+02  0.13989103376E+03  0.60836479429E+02  0.15776056517E+03  0.00000000000E+00 0.  1.
        -13    1    3    3    0    0 -0.31052827445E+02  0.13789241989E+03  0.17118900736E+03  0.22200061666E+03  0.00000000000E+00 0. -1.
         22    1    1    2    0    0  0.71274927901E+02 -0.27778345365E+03 -0.36205532450E+03  0.46187424746E+03  0.00000000000E+00 0. -1.
<mgrwt>
<rscale>  0 0.83153018E+03</rscale>
<asrwt>0</asrwt>
<pdfrwt beam="1">  1        3 0.74743482E-01 0.83153018E+03</pdfrwt>
<pdfrwt beam="2">  1       -3 0.54738892E-01 0.83153018E+03</pdfrwt>
<totfact> 0.14657208E+01</totfact>
</mgrwt>
</event>
<event>
 6    1  0.1585031E-006  0.1929531E+04  0.7818608E-02  0.8640295E-01
         -2   -1    0    0    0  501 -0.00000000000E+00  0.00000000000E+00  0.10491585538E+04  0.10491585538E+04  0.00000000000E+00 0. -1.
          2   -1    0    0  501    0  0.00000000000E+00 -0.00000000000E+00 -0.88716055795E+03  0.88716055795E+03  0.00000000000E+00 0.  1.
         23    2    1    2    0    0 -0.61832322964E+02 -0.31259752743E+03  0.99271494349E+03  0.10465825793E+04  0.91168447742E+02 0.  0.
         11    1    3    3    0    0 -0.55481597762E+02 -0.74691785122E+02  0.30282807215E+03  0.31679948190E+03  0.00000000000E+00 0.  1.
        -11    1    3    3    0    0 -0.63507252021E+01 -0.23790574231E+03  0.68988687134E+03  0.72978309735E+03  0.00000000000E+00 0. -1.
         22    1    1    2    0    0  0.61832322964E+02  0.31259752743E+03 -0.83071694759E+03  0.88973653254E+03  0.00000000000E+00 0.  1.
<mgrwt>
<rscale>  0 0.19295306E+04</rscale>
<asrwt>0</asrwt>
<pdfrwt beam="1">  1        2 0.13648624E+00 0.19295306E+04</pdfrwt>
<pdfrwt beam="2">  1       -2 0.16140901E+00 0.19295306E+04</pdfrwt>
<totfact> 0.68724659E+00</totfact>
</mgrwt>
</event>
<event>
 6    1  0.1585031E-006  0.2924041E+04  0.7818608E-02  0.8265760E-01
         -1   -1    0    0    0  501 -0.00000000000E+00  0.00000000000E+00  0.71190296622E+03  0.71190296622E+03  0.00000000000E+00 0.  1.
          1   -1    0    0  501    0  0.00000000000E+00 -0.00000000000E+00 -0.30025211786E+04  0.30025211786E+04  0.00000000000E+00 0. -1.
         23    2    1    2    0    0 -0.17935969726E+03  0.14169921215E+04 -0.75851566821E+03  0.16198180293E+04  0.91803352264E+02 0.  0.
         11    1    3    3    0    0 -0.28650010689E+01  0.30099828372E+03 -0.14467196010E+03  0.33397327898E+03  0.00000000000E+00 0. -1.
        -11    1    3    3    0    0 -0.17649469619E+03  0.11159938378E+04 -0.61384370811E+03  0.12858447503E+04  0.00000000000E+00 0.  1.
         22    1    1    2    0    0  0.17935969726E+03 -0.14169921215E+04 -0.15321025442E+04  0.20946061156E+04  0.00000000000E+00 0.  1.
<mgrwt>
<rscale>  0 0.29240409E+04</rscale>
<asrwt>0</asrwt>
<pdfrwt beam="1">  1        1 0.46192633E+00 0.29240409E+04</pdfrwt>
<pdfrwt beam="2">  1       -1 0.10952353E+00 0.29240409E+04</pdfrwt>
<totfact> 0.39285188E-01</totfact>
</mgrwt>
</event>
<event>
 6    1  0.1585031E-006  0.1213923E+04  0.7818608E-02  0.9100757E-01
         -2   -1    0    0    0  501 -0.00000000000E+00  0.00000000000E+00  0.13160199228E+04  0.13160199228E+04  0.00000000000E+00 0.  1.
          2   -1    0    0  501    0  0.00000000000E+00 -0.00000000000E+00 -0.27993654478E+03  0.27993654478E+03  0.00000000000E+00 0. -1.
         23    2    1    2    0    0  0.45339104672E+03  0.17290238961E+03  0.49335568281E+02  0.49635203069E+03  0.92047066752E+02 0.  0.
         11    1    3    3    0    0  0.29759758574E+03  0.71781722703E+02  0.52446637895E+02  0.31059231893E+03  0.00000000000E+00 0.  1.
        -11    1    3    3    0    0  0.15579346098E+03  0.10112066691E+03 -0.31110696138E+01  0.18575971176E+03  0.00000000000E+00 0. -1.
         22    1    1    2    0    0 -0.45339104672E+03 -0.17290238961E+03  0.98674780972E+03  0.10996044369E+04  0.00000000000E+00 0.  1.
<mgrwt>
<rscale>  0 0.12139227E+04</rscale>
<asrwt>0</asrwt>
<pdfrwt beam="1">  1        2 0.43067162E-01 0.12139227E+04</pdfrwt>
<pdfrwt beam="2">  1       -2 0.20246460E+00 0.12139227E+04</pdfrwt>
<totfact> 0.14976287E+01</totfact>
</mgrwt>
</event>
<event>
 6    1  0.1585031E-006  0.6390809E+03  0.7818608E-02  0.9827487E-01
         -1   -1    0    0    0  501 -0.00000000000E+00  0.00000000000E+00  0.27278311115E+03  0.27278311115E+03  0.00000000000E+00 0.  1.
          1   -1    0    0  501    0  0.00000000000E+00 -0.00000000000E+00 -0.37431239072E+03  0.37431239072E+03  0.00000000000E+00 0. -1.
         23    2    1    2    0    0 -0.65637724981E+01 -0.25934325305E+03  0.12552890036E+03  0.30233845251E+03  0.91373021325E+02 0.  0.
         11    1    3    3    0    0 -0.47618965958E+02 -0.13146537487E+03  0.51689202166E+02  0.14907207763E+03  0.00000000000E+00 0.  1.
        -11    1    3    3    0    0  0.41055193460E+02 -0.12787787818E+03  0.73839698199E+02  0.15326637488E+03  0.00000000000E+00 0. -1.
         22    1    1    2    0    0  0.65637724981E+01  0.25934325305E+03 -0.22705817993E+03  0.34475704936E+03  0.00000000000E+00 0. -1.
<mgrwt>
<rscale>  0 0.63908090E+03</rscale>
<asrwt>0</asrwt>
<pdfrwt beam="1">  1        1 0.57586522E-01 0.63908090E+03</pdfrwt>
<pdfrwt beam="2">  1       -1 0.41966632E-01 0.63908090E+03</pdfrwt>
<totfact> 0.37010281E+02</totfact>
</mgrwt>
</event>
<event>
 6    1  0.1585031E-006  0.2165570E+04  0.7818608E-02  0.8532897E-01
          2   -1    0    0  501    0  0.00000000000E+00  0.00000000000E+00  0.11183700237E+04  0.11183700237E+04  0.00000000000E+00 0. -1.
         -2   -1    0    0    0  501 -0.00000000000E+00 -0.00000000000E+00 -0.10483322621E+04  0.10483322621E+04  0.00000000000E+00 0.  1.
         23    2    1    2    0    0  0.91434870248E+03  0.34910976753E+03  0.49233258393E+03  0.11007547746E+04  0.10657636313E+03 0.  0.
         13    1    3    3    0    0  0.51370525507E+03  0.18946254534E+03  0.21631432258E+03  0.58871133107E+03  0.00000000000E+00 0.  1.
        -13    1    3    3    0    0  0.40064344741E+03  0.15964722219E+03  0.27601826135E+03  0.51204344357E+03  0.00000000000E+00 0. -1.
         22    1    1    2    0    0 -0.91434870248E+03 -0.34910976753E+03 -0.42229482238E+03  0.10659475111E+04  0.00000000000E+00 0.  1.
<mgrwt>
<rscale>  0 0.21655700E+04</rscale>
<asrwt>0</asrwt>
<pdfrwt beam="1">  1        2 0.17205693E+00 0.21655700E+04</pdfrwt>
<pdfrwt beam="2">  1       -2 0.16128189E+00 0.21655700E+04</pdfrwt>
<totfact> 0.47951551E+00</totfact>
</mgrwt>
</event>
<event>
 6    1  0.1710407E-006  0.2456581E+04  0.7818608E-02  0.8418619E-01
          2   -1    0    0  501    0  0.00000000000E+00  0.00000000000E+00  0.25747124500E+04  0.25747124500E+04  0.00000000000E+00 0. -1.
         -2   -1    0    0    0  501 -0.00000000000E+00 -0.00000000000E+00 -0.58596739135E+03  0.58596739135E+03  0.00000000000E+00 0.  1.
         23    2    1    2    0    0  0.62411489202E+03  0.11025287674E+03 -0.35547733600E+03  0.73229483670E+03  0.90644890481E+02 0.  0.
         11    1    3    3    0    0  0.28792763611E+03  0.49366051176E+02 -0.21578441861E+03  0.36318348801E+03  0.00000000000E+00 0.  1.
        -11    1    3    3    0    0  0.33618725591E+03  0.60886825562E+02 -0.13969291739E+03  0.36911134869E+03  0.00000000000E+00 0. -1.
         22    1    1    2    0    0 -0.62411489202E+03 -0.11025287674E+03  0.23442223947E+04  0.24283850047E+04  0.00000000000E+00 0. -1.
<mgrwt>
<rscale>  0 0.24565810E+04</rscale>
<asrwt>0</asrwt>
<pdfrwt beam="1">  1        2 0.39610960E+00 0.24565810E+04</pdfrwt>
<pdfrwt beam="2">  1       -2 0.90148831E-01 0.24565810E+04</pdfrwt>
<totfact> 0.29669547E+00</totfact>
</mgrwt>
</event>
<event>
 6    1  0.1585031E-006  0.1936488E+04  0.7818608E-02  0.8636904E-01
         -1   -1    0    0    0  501 -0.00000000000E+00  0.00000000000E+00  0.53901984411E+03  0.53901984411E+03  0.00000000000E+00 0.  1.
          1   -1    0    0  501    0  0.00000000000E+00 -0.00000000000E+00 -0.17392612840E+04  0.17392612840E+04  0.00000000000E+00 0. -1.
         23    2    1    2    0    0 -0.11362613295E+03 -0.37431137661E+03 -0.16406720484E+04  0.16892148961E+04  0.92856286368E+02 0.  0.
         11    1    3    3    0    0 -0.80748972519E+02 -0.17566313368E+03 -0.96515073510E+03  0.98432406989E+03  0.00000000000E+00 0. -1.
        -11    1    3    3    0    0 -0.32877160434E+02 -0.19864824294E+03 -0.67552131334E+03  0.70489082621E+03  0.00000000000E+00 0.  1.
         22    1    1    2    0    0  0.11362613295E+03  0.37431137661E+03  0.44043060855E+03  0.58906623202E+03  0.00000000000E+00 0.  1.
<mgrwt>
<rscale>  0 0.19364879E+04</rscale>
<asrwt>0</asrwt>
<pdfrwt beam="1">  1        1 0.26757866E+00 0.19364879E+04</pdfrwt>
<pdfrwt beam="2">  1       -1 0.82926130E-01 0.19364879E+04</pdfrwt>
<totfact> 0.60355949E+00</totfact>
</mgrwt>
</event>
<event>
 6    1  0.1585031E-006  0.5367827E+04  0.7818608E-02  0.7774143E-01
          2   -1    0    0  501    0  0.00000000000E+00  0.00000000000E+00  0.37964950487E+04  0.37964950487E+04  0.00000000000E+00 0. -1.
         -2   -1    0    0    0  501 -0.00000000000E+00 -0.00000000000E+00 -0.18973794336E+04  0.18973794336E+04  0.00000000000E+00 0.  1.
         23    2    1    2    0    0  0.26491027418E+03 -0.17714763905E+04  0.30688579629E+04  0.35545747801E+04  0.93843568738E+02 0.  0.
         13    1    3    3    0    0  0.14476760754E+03 -0.72868023357E+03  0.13310462171E+04  0.15243413577E+04  0.00000000000E+00 0. -1.
        -13    1    3    3    0    0  0.12014266665E+03 -0.10427961569E+04  0.17378117459E+04  0.20302334224E+04  0.00000000000E+00 0.  1.
         22    1    1    2    0    0 -0.26491027418E+03  0.17714763905E+04 -0.11697423478E+04  0.21392997021E+04  0.00000000000E+00 0.  1.
<mgrwt>
<rscale>  0 0.53678270E+04</rscale>
<asrwt>0</asrwt>
<pdfrwt beam="1">  1        2 0.58407616E+00 0.53678270E+04</pdfrwt>
<pdfrwt beam="2">  1       -2 0.29190453E+00 0.53678270E+04</pdfrwt>
<totfact> 0.12402952E-02</totfact>
</mgrwt>
</event>
<event>
 6    1  0.1585031E-006  0.4143036E+04  0.7818608E-02  0.7976297E-01
          2   -1    0    0  501    0  0.00000000000E+00  0.00000000000E+00  0.28684948552E+04  0.28684948552E+04  0.00000000000E+00 0. -1.
         -2   -1    0    0    0  501 -0.00000000000E+00 -0.00000000000E+00 -0.14959713392E+04  0.14959713392E+04  0.00000000000E+00 0.  1.
         23    2    1    2    0    0  0.18721252012E+04  0.88093698572E+03  0.76835708760E+03  0.22090266069E+04  0.92321146617E+02 0.  0.
         13    1    3    3    0    0  0.11227640769E+04  0.50310645909E+03  0.49845110733E+03  0.13274670572E+04  0.00000000000E+00 0. -1.
        -13    1    3    3    0    0  0.74936112435E+03  0.37783052663E+03  0.26990598027E+03  0.88155954973E+03  0.00000000000E+00 0.  1.
         22    1    1    2    0    0 -0.18721252012E+04 -0.88093698572E+03  0.60416642843E+03  0.21554395875E+04  0.00000000000E+00 0. -1.
<mgrwt>
<rscale>  0 0.41430356E+04</rscale>
<asrwt>0</asrwt>
<pdfrwt beam="1">  1        2 0.44130690E+00 0.41430356E+04</pdfrwt>
<pdfrwt beam="2">  1       -2 0.23014944E+00 0.41430356E+04</pdfrwt>
<totfact> 0.13970839E-01</totfact>
</mgrwt>
</event>
<event>
 6    1  0.1585031E-006  0.1927733E+04  0.7818608E-02  0.8641174E-01
          2   -1    0    0  501    0  0.00000000000E+00  0.00000000000E+00  0.72708697660E+03  0.72708697660E+03  0.00000000000E+00 0. -1.
         -2   -1    0    0    0  501 -0.00000000000E+00 -0.00000000000E+00 -0.12777544172E+04  0.12777544172E+04  0.00000000000E+00 0.  1.
         23    2    1    2    0    0 -0.47057167237E+03  0.81857750062E+03 -0.85842601839E+02  0.95243037426E+03  0.90817631353E+02 0.  0.
         11    1    3    3    0    0 -0.23482932589E+03  0.35650850253E+03 -0.15964060708E+01  0.42690241647E+03  0.00000000000E+00 0.  1.
        -11    1    3    3    0    0 -0.23574234648E+03  0.46206899809E+03 -0.84246195769E+02  0.52552795779E+03  0.00000000000E+00 0. -1.
         22    1    1    2    0    0  0.47057167237E+03 -0.81857750062E+03 -0.46482483879E+03  0.10524110196E+04  0.00000000000E+00 0.  1.
<mgrwt>
<rscale>  0 0.19277330E+04</rscale>
<asrwt>0</asrwt>
<pdfrwt beam="1">  1        2 0.11185954E+00 0.19277330E+04</pdfrwt>
<pdfrwt beam="2">  1       -2 0.19657760E+00 0.19277330E+04</pdfrwt>
<totfact> 0.51070783E+00</totfact>
</mgrwt>
</event>
<event>
 6    1  0.1585031E-006  0.7975896E+03  0.7818608E-02  0.9563513E-01
         -1   -1    0    0    0  501 -0.00000000000E+00  0.00000000000E+00  0.37634852047E+03  0.37634852047E+03  0.00000000000E+00 0.  1.
          1   -1    0    0  501    0  0.00000000000E+00 -0.00000000000E+00 -0.42257987025E+03  0.42257987025E+03  0.00000000000E+00 0. -1.
         23    2    1    2    0    0 -0.12866700212E+03  0.27400114471E+03  0.22820275108E+03  0.39033825323E+03  0.93035646884E+02 0.  0.
         11    1    3    3    0    0 -0.89926370980E+02  0.94778410607E+02  0.12020178030E+03  0.17753356669E+03  0.00000000000E+00 0. -1.
        -11    1    3    3    0    0 -0.38740631142E+02  0.17922273411E+03  0.10800097079E+03  0.21280468654E+03  0.00000000000E+00 0.  1.
         22    1    1    2    0    0  0.12866700212E+03 -0.27400114471E+03 -0.27443410087E+03  0.40859013749E+03  0.00000000000E+00 0. -1.
<mgrwt>
<rscale>  0 0.79758964E+03</rscale>
<asrwt>0</asrwt>
<pdfrwt beam="1">  1        1 0.65012288E-01 0.79758964E+03</pdfrwt>
<pdfrwt beam="2">  1       -1 0.57899772E-01 0.79758964E+03</pdfrwt>
<totfact> 0.17047697E+02</totfact>
</mgrwt>
</event>
<event>
 6    1  0.1585031E-006  0.2679997E+04  0.7818608E-02  0.8341525E-01
         -1   -1    0    0    0  501 -0.00000000000E+00  0.00000000000E+00  0.12659622546E+04  0.12659622546E+04  0.00000000000E+00 0. -1.
          1   -1    0    0  501    0  0.00000000000E+00 -0.00000000000E+00 -0.14183643934E+04  0.14183643934E+04  0.00000000000E+00 0.  1.
         23    2    1    2    0    0 -0.47692585147E+03  0.88456680913E+03 -0.96182300443E+03  0.13939473064E+04  0.89827020222E+02 0.  0.
         13    1    3    3    0    0 -0.45508509220E+03  0.87198962310E+03 -0.94141152508E+03  0.13615153335E+04  0.00000000000E+00 0. -1.
        -13    1    3    3    0    0 -0.21840759274E+02  0.12577186034E+02 -0.20411479357E+02  0.32431972862E+02  0.00000000000E+00 0.  1.
         22    1    1    2    0    0  0.47692585147E+03 -0.88456680913E+03  0.80942086562E+03  0.12903793416E+04  0.00000000000E+00 0. -1.
<mgrwt>
<rscale>  0 0.26799969E+04</rscale>
<asrwt>0</asrwt>
<pdfrwt beam="1">  1        1 0.21820991E+00 0.26799969E+04</pdfrwt>
<pdfrwt beam="2">  1       -1 0.19476342E+00 0.26799969E+04</pdfrwt>
<totfact> 0.10675024E+00</totfact>
</mgrwt>
</event>
<event>
 6    1  0.1585031E-006  0.3175433E+04  0.7818608E-02  0.8195335E-01
          2   -1    0    0  501    0  0.00000000000E+00  0.00000000000E+00  0.22318128511E+04  0.22318128511E+04  0.00000000000E+00 0. -1.
         -2   -1    0    0    0  501 -0.00000000000E+00 -0.00000000000E+00 -0.11295052727E+04  0.11295052727E+04  0.00000000000E+00 0.  1.
         23    2    1    2    0    0  0.12496605033E+04 -0.88931427949E+03  0.12292142514E+03  0.15415026116E+04  0.92678819533E+02 0.  0.
         11    1    3    3    0    0  0.39829217477E+03 -0.23139519347E+03  0.34969784073E+02  0.46195592630E+03  0.00000000000E+00 0. -1.
        -11    1    3    3    0    0  0.85136832855E+03 -0.65791908602E+03  0.87951641067E+02  0.10795466853E+04  0.00000000000E+00 0.  1.
         22    1    1    2    0    0 -0.12496605033E+04  0.88931427949E+03  0.97938615328E+03  0.18198155122E+04  0.00000000000E+00 0. -1.
<mgrwt>
<rscale>  0 0.31754334E+04</rscale>
<asrwt>0</asrwt>
<pdfrwt beam="1">  1        2 0.34335582E+00 0.31754334E+04</pdfrwt>
<pdfrwt beam="2">  1       -2 0.17377004E+00 0.31754334E+04</pdfrwt>
<totfact> 0.83797194E-01</totfact>
</mgrwt>
</event>
<event>
 6    1  0.1585031E-006  0.2663824E+04  0.7818608E-02  0.8346839E-01
          2   -1    0    0  501    0  0.00000000000E+00  0.00000000000E+00  0.17022882135E+04  0.17022882135E+04  0.00000000000E+00 0. -1.
         -2   -1    0    0    0  501 -0.00000000000E+00 -0.00000000000E+00 -0.10421207177E+04  0.10421207177E+04  0.00000000000E+00 0.  1.
         23    2    1    2    0    0 -0.94212213485E+03 -0.44929168293E+03 -0.51939106119E+03  0.11693484490E+04  0.90286141348E+02 0.  0.
         11    1    3    3    0    0 -0.62133745851E+03 -0.25252922391E+03 -0.31283206601E+03  0.74006428626E+03  0.00000000000E+00 0.  1.
        -11    1    3    3    0    0 -0.32078467634E+03 -0.19676245902E+03 -0.20655899518E+03  0.42928416270E+03  0.00000000000E+00 0. -1.
         22    1    1    2    0    0  0.94212213485E+03  0.44929168293E+03  0.11795585570E+04  0.15750604823E+04  0.00000000000E+00 0. -1.
<mgrwt>
<rscale>  0 0.26638242E+04</rscale>
<asrwt>0</asrwt>
<pdfrwt beam="1">  1        2 0.26189049E+00 0.26638242E+04</pdfrwt>
<pdfrwt beam="2">  1       -2 0.16032626E+00 0.26638242E+04</pdfrwt>
<totfact> 0.21556061E+00</totfact>
</mgrwt>
</event>
<event>
 6    1  0.1585031E-006  0.4158108E+04  0.7818608E-02  0.7973389E-01
         -2   -1    0    0    0  501 -0.00000000000E+00  0.00000000000E+00  0.85960429544E+03  0.85960429544E+03  0.00000000000E+00 0.  1.
          2   -1    0    0  501    0  0.00000000000E+00 -0.00000000000E+00 -0.50284368299E+04  0.50284368299E+04  0.00000000000E+00 0. -1.
         23    2    1    2    0    0 -0.61579182713E+03  0.19104728790E+04 -0.28472060866E+04  0.34847511588E+04  0.88328609011E+02 0.  0.
         11    1    3    3    0    0 -0.35166907855E+03  0.10495010641E+04 -0.16425478290E+04  0.19806784178E+04  0.00000000000E+00 0.  1.
        -11    1    3    3    0    0 -0.26412274858E+03  0.86097181493E+03 -0.12046582576E+04  0.15040727409E+04  0.00000000000E+00 0. -1.
         22    1    1    2    0    0  0.61579182713E+03 -0.19104728790E+04 -0.13216264478E+04  0.24032899665E+04  0.00000000000E+00 0.  1.
<mgrwt>
<rscale>  0 0.41581082E+04</rscale>
<asrwt>0</asrwt>
<pdfrwt beam="1">  1        2 0.77360563E+00 0.41581082E+04</pdfrwt>
<pdfrwt beam="2">  1       -2 0.13224682E+00 0.41581082E+04</pdfrwt>
<totfact> 0.10092605E-02</totfact>
</mgrwt>
</event>
<event>
 6    1  0.1585031E-006  0.2359343E+04  0.7818608E-02  0.8454884E-01
         -1   -1    0    0    0  501 -0.00000000000E+00  0.00000000000E+00  0.61412840471E+03  0.61412840471E+03  0.00000000000E+00 0.  1.
          1   -1    0    0  501    0  0.00000000000E+00 -0.00000000000E+00 -0.22660164579E+04  0.22660164579E+04  0.00000000000E+00 0. -1.
         23    2    1    2    0    0 -0.83084366622E+03  0.51979502604E+03 -0.16248116879E+04  0.18997259744E+04  0.91965698131E+02 0.  0.
         13    1    3    3    0    0 -0.16279327908E+03  0.60785734043E+02 -0.29301773063E+03  0.34066985138E+03  0.00000000000E+00 0. -1.
        -13    1    3    3    0    0 -0.66805038714E+03  0.45900929200E+03 -0.13317939573E+04  0.15590561230E+04  0.00000000000E+00 0.  1.
         22    1    1    2    0    0  0.83084366622E+03 -0.51979502604E+03 -0.27076365202E+02  0.98041888820E+03  0.00000000000E+00 0.  1.
<mgrwt>
<rscale>  0 0.23593432E+04</rscale>
<asrwt>0</asrwt>
<pdfrwt beam="1">  1        1 0.34861792E+00 0.23593432E+04</pdfrwt>
<pdfrwt beam="2">  1       -1 0.94481293E-01 0.23593432E+04</pdfrwt>
<totfact> 0.19137377E+00</totfact>
</mgrwt>
</event>
<event>
 6    1  0.1585031E-006  0.2414576E+04  0.7818608E-02  0.8434067E-01
         -2   -1    0    0    0  501 -0.00000000000E+00  0.00000000000E+00  0.65975565206E+03  0.65975565206E+03  0.00000000000E+00 0.  1.
          2   -1    0    0  501    0  0.00000000000E+00 -0.00000000000E+00 -0.22092176655E+04  0.22092176655E+04  0.00000000000E+00 0. -1.
         23    2    1    2    0    0 -0.88736775087E+03 -0.78225451164E+03 -0.10526553624E+04  0.15859454555E+04  0.88295127917E+02 0.  0.
         13    1    3    3    0    0 -0.58984061968E+03 -0.53625281945E+03 -0.65537512291E+03  0.10319862377E+04  0.00000000000E+00 0.  1.
        -13    1    3    3    0    0 -0.29752713119E+03 -0.24600169219E+03 -0.39728023952E+03  0.55395921787E+03  0.00000000000E+00 0. -1.
         22    1    1    2    0    0  0.88736775087E+03  0.78225451164E+03 -0.49680665102E+03  0.12830278620E+04  0.00000000000E+00 0. -1.
<mgrwt>
<rscale>  0 0.24145756E+04</rscale>
<asrwt>0</asrwt>
<pdfrwt beam="1">  1        2 0.33987964E+00 0.24145756E+04</pdfrwt>
<pdfrwt beam="2">  1       -2 0.10150087E+00 0.24145756E+04</pdfrwt>
<totfact> 0.36530581E+00</totfact>
</mgrwt>
</event>
<event>
 6    1  0.1585031E-006  0.9259696E+03  0.7818608E-02  0.9393688E-01
         -1   -1    0    0    0  501 -0.00000000000E+00  0.00000000000E+00  0.13480182324E+03  0.13480182324E+03  0.00000000000E+00 0.  1.
          1   -1    0    0  501    0  0.00000000000E+00 -0.00000000000E+00 -0.15901486574E+04  0.15901486574E+04  0.00000000000E+00 0. -1.
         23    2    1    2    0    0 -0.10379677550E+03  0.40848927791E+03 -0.10713140613E+04  0.11547589063E+04  0.90094689547E+02 0.  0.
         13    1    3    3    0    0 -0.47363320989E+02  0.33389485877E+03 -0.85354572187E+03  0.91775234143E+03  0.00000000000E+00 0.  1.
        -13    1    3    3    0    0 -0.56433454507E+02  0.74594419148E+02 -0.21776833941E+03  0.23700656490E+03  0.00000000000E+00 0. -1.
         22    1    1    2    0    0  0.10379677550E+03 -0.40848927791E+03 -0.38403277291E+03  0.57019157433E+03  0.00000000000E+00 0.  1.
<mgrwt>
<rscale>  0 0.92596963E+03</rscale>
<asrwt>0</asrwt>
<pdfrwt beam="1">  1        1 0.24463825E+00 0.92596963E+03</pdfrwt>
<pdfrwt beam="2">  1       -1 0.20738742E-01 0.92596963E+03</pdfrwt>
<totfact> 0.10995930E+02</totfact>
</mgrwt>
</event>
<event>
 6    1  0.1585031E-006  0.2094731E+04  0.7818608E-02  0.8563568E-01
          1   -1    0    0  501    0  0.00000000000E+00  0.00000000000E+00  0.23010383215E+04  0.23010383215E+04  0.00000000000E+00 0. -1.
         -1   -1    0    0    0  501 -0.00000000000E+00 -0.00000000000E+00 -0.47673006346E+03  0.47673006346E+03  0.00000000000E+00 0.  1.
         23    2    1    2    0    0 -0.50278380676E+03 -0.16841172960E+03 -0.28056979320E+03  0.60713122561E+03  0.93460415395E+02 0.  0.
         13    1    3    3    0    0 -0.36000500916E+03 -0.11652759285E+03 -0.24601359415E+03  0.45133687532E+03  0.00000000000E+00 0.  1.
        -13    1    3    3    0    0 -0.14277879759E+03 -0.51884136747E+02 -0.34556199057E+02  0.15579435029E+03  0.00000000000E+00 0. -1.
         22    1    1    2    0    0  0.50278380676E+03  0.16841172960E+03  0.21048780513E+04  0.21706371594E+04  0.00000000000E+00 0. -1.
<mgrwt>
<rscale>  0 0.20947307E+04</rscale>
<asrwt>0</asrwt>
<pdfrwt beam="1">  1        1 0.35400589E+00 0.20947307E+04</pdfrwt>
<pdfrwt beam="2">  1       -1 0.73343088E-01 0.20947307E+04</pdfrwt>
<totfact> 0.32027737E+00</totfact>
</mgrwt>
</event>
<event>
 6    1  0.1585031E-006  0.9852355E+03  0.7818608E-02  0.9324888E-01
         -1   -1    0    0    0  501 -0.00000000000E+00  0.00000000000E+00  0.28630763797E+03  0.28630763797E+03  0.00000000000E+00 0.  1.
          1   -1    0    0  501    0  0.00000000000E+00 -0.00000000000E+00 -0.84759257768E+03  0.84759257768E+03  0.00000000000E+00 0. -1.
         23    2    1    2    0    0  0.40605637049E+03 -0.22806495966E+03 -0.45244281456E+03  0.65563040681E+03  0.90836821027E+02 0.  0.
         13    1    3    3    0    0  0.10205548703E+03 -0.76448905558E+02 -0.75471147900E+02  0.14817439644E+03  0.00000000000E+00 0. -1.
        -13    1    3    3    0    0  0.30400088346E+03 -0.15161605410E+03 -0.37697166666E+03  0.50745601037E+03  0.00000000000E+00 0.  1.
         22    1    1    2    0    0 -0.40605637049E+03  0.22806495966E+03 -0.10884212515E+03  0.47826980884E+03  0.00000000000E+00 0.  1.
<mgrwt>
<rscale>  0 0.98523546E+03</rscale>
<asrwt>0</asrwt>
<pdfrwt beam="1">  1        1 0.13039885E+00 0.98523546E+03</pdfrwt>
<pdfrwt beam="2">  1       -1 0.44047330E-01 0.98523546E+03</pdfrwt>
<totfact> 0.10284152E+02</totfact>
</mgrwt>
</event>
<event>
 6    1  0.1585031E-006  0.3660771E+04  0.7818608E-02  0.8076712E-01
         -2   -1    0    0    0  501 -0.00000000000E+00  0.00000000000E+00  0.10581048953E+04  0.10581048953E+04  0.00000000000E+00 0.  1.
          2   -1    0    0  501    0  0.00000000000E+00 -0.00000000000E+00 -0.31663310948E+04  0.31663310948E+04  0.00000000000E+00 0. -1.
         23    2    1    2    0    0  0.36432377652E+03  0.76468022402E+03 -0.29258052350E+04  0.30471921162E+04  0.87039421806E+02 0.  0.
         11    1    3    3    0    0  0.18724322891E+03  0.39249165501E+03 -0.13460142913E+04  0.14145190696E+04  0.00000000000E+00 0. -1.
        -11    1    3    3    0    0  0.17708054761E+03  0.37218856901E+03 -0.15797909437E+04  0.16326730466E+04  0.00000000000E+00 0.  1.
         22    1    1    2    0    0 -0.36432377652E+03 -0.76468022402E+03  0.81757903548E+03  0.11772438738E+04  0.00000000000E+00 0.  1.
<mgrwt>
<rscale>  0 0.36607706E+04</rscale>
<asrwt>0</asrwt>
<pdfrwt beam="1">  1        2 0.48712785E+00 0.36607706E+04</pdfrwt>
<pdfrwt beam="2">  1       -2 0.16278537E+00 0.36607706E+04</pdfrwt>
<totfact> 0.26551215E-01</totfact>
</mgrwt>
</event>
<event>
 6    1  0.1585031E-006  0.2984226E+04  0.7818608E-02  0.8248250E-01
         -2   -1    0    0    0  501 -0.00000000000E+00  0.00000000000E+00  0.99033389541E+03  0.99033389541E+03  0.00000000000E+00 0.  1.
          2   -1    0    0  501    0  0.00000000000E+00 -0.00000000000E+00 -0.22481325286E+04  0.22481325286E+04  0.00000000000E+00 0. -1.
         23    2    1    2    0    0 -0.20103482041E+03 -0.14558835259E+04 -0.90007403931E+03  0.17258598244E+04  0.91907656499E+02 0.  0.
         11    1    3    3    0    0 -0.35011521759E+02 -0.42012306164E+03 -0.21780719738E+03  0.47451993511E+03  0.00000000000E+00 0.  1.
        -11    1    3    3    0    0 -0.16602329865E+03 -0.10357604643E+04 -0.68226684193E+03  0.12513398893E+04  0.00000000000E+00 0. -1.
         22    1    1    2    0    0  0.20103482041E+03  0.14558835259E+04 -0.35772459390E+03  0.15126065996E+04  0.00000000000E+00 0.  1.
<mgrwt>
<rscale>  0 0.29842264E+04</rscale>
<asrwt>0</asrwt>
<pdfrwt beam="1">  1        2 0.34586654E+00 0.29842264E+04</pdfrwt>
<pdfrwt beam="2">  1       -2 0.15235906E+00 0.29842264E+04</pdfrwt>
<totfact> 0.11950485E+00</totfact>
</mgrwt>
</event>
<event>
 6    1  0.1585031E-006  0.9182812E+03  0.7818608E-02  0.9403013E-01
         -2   -1    0    0    0  501 -0.00000000000E+00  0.00000000000E+00  0.14798371150E+03  0.14798371150E+03  0.00000000000E+00 0. -1.
          2   -1    0    0  501    0  0.00000000000E+00 -0.00000000000E+00 -0.14245493152E+04  0.14245493152E+04  0.00000000000E+00 0.  1.
         23    2    1    2    0    0 -0.28347435012E+03 -0.12080566154E+03 -0.73232243623E+02  0.33037245313E+03  0.93974896903E+02 0.  0.
         13    1    3    3    0    0 -0.77016004752E+02 -0.75481550345E+01  0.15141850151E+02  0.78852490502E+02  0.00000000000E+00 0. -1.
        -13    1    3    3    0    0 -0.20645834537E+03 -0.11325750651E+03 -0.88374093774E+02  0.25151996263E+03  0.00000000000E+00 0.  1.
         22    1    1    2    0    0  0.28347435012E+03  0.12080566154E+03 -0.12033333601E+04  0.12421605736E+04  0.00000000000E+00 0.  1.
<mgrwt>
<rscale>  0 0.91828121E+03</rscale>
<asrwt>0</asrwt>
<pdfrwt beam="1">  1        2 0.21916143E+00 0.91828121E+03</pdfrwt>
<pdfrwt beam="2">  1       -2 0.22766725E-01 0.91828121E+03</pdfrwt>
<totfact> 0.23822537E+02</totfact>
</mgrwt>
</event>
<event>
 6    1  0.1585031E-006  0.9859476E+03  0.7818608E-02  0.9324093E-01
         -3   -1    0    0    0  501 -0.00000000000E+00  0.00000000000E+00  0.15603343450E+04  0.15603343450E+04  0.00000000000E+00 0. -1.
          3   -1    0    0  501    0  0.00000000000E+00 -0.00000000000E+00 -0.15575068501E+03  0.15575068501E+03  0.00000000000E+00 0.  1.
         23    2    1    2    0    0 -0.25388306855E+03  0.28741457849E+03  0.12355802050E+04  0.12970075668E+04  0.92230324913E+02 0.  0.
         13    1    3    3    0    0 -0.98620019219E+02  0.17042245243E+03  0.70303722664E+03  0.73008976333E+03  0.00000000000E+00 0.  1.
        -13    1    3    3    0    0 -0.15526304933E+03  0.11699212606E+03  0.53254297837E+03  0.56691780344E+03  0.00000000000E+00 0. -1.
         22    1    1    2    0    0  0.25388306855E+03 -0.28741457849E+03  0.16900345503E+03  0.41907746328E+03  0.00000000000E+00 0.  1.
<mgrwt>
<rscale>  0 0.98594755E+03</rscale>
<asrwt>0</asrwt>
<pdfrwt beam="1">  1        3 0.23961645E-01 0.98594755E+03</pdfrwt>
<pdfrwt beam="2">  1       -3 0.24005143E+00 0.98594755E+03</pdfrwt>
<totfact> 0.36401552E+00</totfact>
</mgrwt>
</event>
<event>
 6    1  0.1585031E-006  0.2701994E+04  0.7818608E-02  0.8334358E-01
          3   -1    0    0  501    0  0.00000000000E+00  0.00000000000E+00  0.11121089525E+04  0.11121089525E+04  0.00000000000E+00 0. -1.
         -3   -1    0    0    0  501 -0.00000000000E+00 -0.00000000000E+00 -0.16412002939E+04  0.16412002939E+04  0.00000000000E+00 0.  1.
         23    2    1    2    0    0 -0.32521270003E+03  0.11836983029E+04 -0.83597926880E+03  0.14879693029E+04  0.91029313185E+02 0.  0.
         11    1    3    3    0    0 -0.17365859214E+03  0.58585003019E+03 -0.46904397479E+03  0.77031150504E+03  0.00000000000E+00 0.  1.
        -11    1    3    3    0    0 -0.15155410789E+03  0.59784827274E+03 -0.36693529401E+03  0.71765779785E+03  0.00000000000E+00 0. -1.
         22    1    1    2    0    0  0.32521270003E+03 -0.11836983029E+04  0.30688792734E+03  0.12653399435E+04  0.00000000000E+00 0. -1.
<mgrwt>
<rscale>  0 0.27019945E+04</rscale>
<asrwt>0</asrwt>
<pdfrwt beam="1">  1        3 0.17109369E+00 0.27019945E+04</pdfrwt>
<pdfrwt beam="2">  1       -3 0.25249235E+00 0.27019945E+04</pdfrwt>
<totfact> 0.36818351E-02</totfact>
</mgrwt>
</event>
<event>
 6    1  0.1585031E-006  0.3973982E+04  0.7818608E-02  0.8009816E-01
         -1   -1    0    0    0  501 -0.00000000000E+00  0.00000000000E+00  0.15242521083E+04  0.15242521083E+04  0.00000000000E+00 0.  1.
          1   -1    0    0  501    0  0.00000000000E+00 -0.00000000000E+00 -0.25902097409E+04  0.25902097409E+04  0.00000000000E+00 0. -1.
         23    2    1    2    0    0 -0.27177583566E+03  0.18650362940E+04 -0.11805022928E+04  0.22262502717E+04  0.10189271885E+03 0.  0.
         13    1    3    3    0    0 -0.98202699747E+02  0.62250499080E+03 -0.33924132820E+03  0.71571007578E+03  0.00000000000E+00 0.  1.
        -13    1    3    3    0    0 -0.17357313591E+03  0.12425313032E+04 -0.84126096459E+03  0.15105401959E+04  0.00000000000E+00 0. -1.
         22    1    1    2    0    0  0.27177583566E+03 -0.18650362940E+04  0.11454466020E+03  0.18882115776E+04  0.00000000000E+00 0.  1.
<mgrwt>
<rscale>  0 0.39739817E+04</rscale>
<asrwt>0</asrwt>
<pdfrwt beam="1">  1        1 0.39849380E+00 0.39739817E+04</pdfrwt>
<pdfrwt beam="2">  1       -1 0.23450033E+00 0.39739817E+04</pdfrwt>
<totfact> 0.81020767E-02</totfact>
</mgrwt>
</event>
<event>
 6    1  0.1585031E-006  0.1008270E+04  0.7818608E-02  0.9299520E-01
          2   -1    0    0  501    0  0.00000000000E+00  0.00000000000E+00  0.83051093251E+03  0.83051093251E+03  0.00000000000E+00 0. -1.
         -2   -1    0    0    0  501 -0.00000000000E+00 -0.00000000000E+00 -0.30601922110E+03  0.30601922110E+03  0.00000000000E+00 0.  1.
         23    2    1    2    0    0  0.70305336874E+02  0.42923167446E+03 -0.17299063571E+02  0.44174967416E+03  0.75238595594E+02 0.  0.
         11    1    3    3    0    0 -0.16085412787E+02  0.76587392312E+02 -0.62896259847E+01  0.78510690741E+02  0.00000000000E+00 0.  1.
        -11    1    3    3    0    0  0.86390749661E+02  0.35264428215E+03 -0.11009437586E+02  0.36323898342E+03  0.00000000000E+00 0. -1.
         22    1    1    2    0    0 -0.70305336874E+02 -0.42923167446E+03  0.54179077498E+03  0.69478047944E+03  0.00000000000E+00 0. -1.
<mgrwt>
<rscale>  0 0.10082704E+04</rscale>
<asrwt>0</asrwt>
<pdfrwt beam="1">  1        2 0.12777091E+00 0.10082704E+04</pdfrwt>
<pdfrwt beam="2">  1       -2 0.47079880E-01 0.10082704E+04</pdfrwt>
<totfact> 0.13976181E+02</totfact>
</mgrwt>
</event>
<event>
 6    1  0.1585031E-006  0.1677049E+04  0.7818608E-02  0.8774563E-01
         -2   -1    0    0    0  501 -0.00000000000E+00  0.00000000000E+00  0.19922171756E+03  0.19922171756E+03  0.00000000000E+00 0.  1.
          2   -1    0    0  501    0  0.00000000000E+00 -0.00000000000E+00 -0.35293527446E+04  0.35293527446E+04  0.00000000000E+00 0. -1.
         23    2    1    2    0    0  0.41904798036E+03 -0.68616532053E+03 -0.21779986318E+04  0.23236427510E+04  0.95987171768E+02 0.  0.
         11    1    3    3    0    0  0.24492827503E+03 -0.45957279546E+03 -0.13053220133E+04  0.14053691945E+04  0.00000000000E+00 0. -1.
        -11    1    3    3    0    0  0.17411970533E+03 -0.22659252507E+03 -0.87267661846E+03  0.91827355652E+03  0.00000000000E+00 0.  1.
         22    1    1    2    0    0 -0.41904798036E+03  0.68616532053E+03 -0.11521323953E+04  0.14049317112E+04  0.00000000000E+00 0.  1.
<mgrwt>
<rscale>  0 0.16770495E+04</rscale>
<asrwt>0</asrwt>
<pdfrwt beam="1">  1        2 0.54297731E+00 0.16770495E+04</pdfrwt>
<pdfrwt beam="2">  1       -2 0.30649497E-01 0.16770495E+04</pdfrwt>
<totfact> 0.73589967E+00</totfact>
</mgrwt>
</event>
<event>
 6    1  0.1585031E-006  0.1435298E+04  0.7818608E-02  0.8928657E-01
         -2   -1    0    0    0  501 -0.00000000000E+00  0.00000000000E+00  0.26004728443E+03  0.26004728443E+03  0.00000000000E+00 0.  1.
          2   -1    0    0  501    0  0.00000000000E+00 -0.00000000000E+00 -0.19804866088E+04  0.19804866088E+04  0.00000000000E+00 0. -1.
         23    2    1    2    0    0 -0.44977049780E+03  0.10364251318E+03 -0.17156574787E+04  0.17789516825E+04  0.90295255470E+02 0.  0.
         13    1    3    3    0    0 -0.18951279268E+03  0.21795829734E+01 -0.76291202887E+03  0.78610089235E+03  0.00000000000E+00 0. -1.
        -13    1    3    3    0    0 -0.26025770512E+03  0.10146293021E+03 -0.95274544985E+03  0.99285079015E+03  0.00000000000E+00 0.  1.
         22    1    1    2    0    0  0.44977049780E+03 -0.10364251318E+03 -0.47818456667E+01  0.46158221075E+03  0.00000000000E+00 0.  1.
<mgrwt>
<rscale>  0 0.14352981E+04</rscale>
<asrwt>0</asrwt>
<pdfrwt beam="1">  1        2 0.30469024E+00 0.14352981E+04</pdfrwt>
<pdfrwt beam="2">  1       -2 0.40007275E-01 0.14352981E+04</pdfrwt>
<totfact> 0.39336749E+01</totfact>
</mgrwt>
</event>
<event>
 6    1  0.1585031E-006  0.2524501E+04  0.7818608E-02  0.8394309E-01
          2   -1    0    0  501    0  0.00000000000E+00  0.00000000000E+00  0.17921429083E+04  0.17921429083E+04  0.00000000000E+00 0. -1.
         -2   -1    0    0    0  501 -0.00000000000E+00 -0.00000000000E+00 -0.88903389248E+03  0.88903389248E+03  0.00000000000E+00 0.  1.
         23    2    1    2    0    0 -0.12430314229E+04  0.10939052161E+03  0.63690911511E+03  0.14052630922E+04  0.10962542086E+03 0.  0.
         13    1    3    3    0    0 -0.98933243553E+03  0.11421381943E+03  0.46757136489E+03  0.11002029112E+04  0.00000000000E+00 0. -1.
        -13    1    3    3    0    0 -0.25369898738E+03 -0.48232978171E+01  0.16933775022E+03  0.30506018103E+03  0.00000000000E+00 0.  1.
         22    1    1    2    0    0  0.12430314229E+04 -0.10939052161E+03  0.26619990071E+03  0.12759137086E+04  0.00000000000E+00 0.  1.
<mgrwt>
<rscale>  0 0.25245006E+04</rscale>
<asrwt>0</asrwt>
<pdfrwt beam="1">  1        2 0.27571429E+00 0.25245006E+04</pdfrwt>
<pdfrwt beam="2">  1       -2 0.13677445E+00 0.25245006E+04</pdfrwt>
<totfact> 0.29602425E+00</totfact>
</mgrwt>
</event>
<event>
 6    1  0.1585031E-006  0.5264254E+04  0.7818608E-02  0.7788988E-01
          2   -1    0    0  501    0  0.00000000000E+00  0.00000000000E+00  0.34182975907E+04  0.34182975907E+04  0.00000000000E+00 0.  1.
         -2   -1    0    0    0  501 -0.00000000000E+00 -0.00000000000E+00 -0.20267668580E+04  0.20267668580E+04  0.00000000000E+00 0. -1.
         23    2    1    2    0    0  0.20780963601E+04 -0.39912700409E+03  0.23137011468E+04  0.31367782619E+04  0.91531527001E+02 0.  0.
         11    1    3    3    0    0  0.95897767183E+03 -0.15137523212E+03  0.10133099874E+04  0.14033352296E+04  0.00000000000E+00 0. -1.
        -11    1    3    3    0    0  0.11191186882E+04 -0.24775177196E+03  0.13003911594E+04  0.17334430323E+04  0.00000000000E+00 0.  1.
         22    1    1    2    0    0 -0.20780963601E+04  0.39912700409E+03 -0.92217041413E+03  0.23082861867E+04  0.00000000000E+00 0. -1.
<mgrwt>
<rscale>  0 0.52642539E+04</rscale>
<asrwt>0</asrwt>
<pdfrwt beam="1">  1        2 0.52589194E+00 0.52642539E+04</pdfrwt>
<pdfrwt beam="2">  1       -2 0.31181029E+00 0.52642539E+04</pdfrwt>
<totfact> 0.17732297E-02</totfact>
</mgrwt>
</event>
<event>
 6    1  0.1585031E-006  0.1087199E+04  0.7818608E-02  0.9217759E-01
          2   -1    0    0  501    0  0.00000000000E+00  0.00000000000E+00  0.41416865697E+03  0.41416865697E+03  0.00000000000E+00 0. -1.
         -2   -1    0    0    0  501 -0.00000000000E+00 -0.00000000000E+00 -0.71347827537E+03  0.71347827537E+03  0.00000000000E+00 0.  1.
         23    2    1    2    0    0 -0.33221780958E+03  0.33618979125E+03 -0.42085592026E+03  0.63962464573E+03  0.92777869482E+02 0.  0.
         13    1    3    3    0    0 -0.15473151494E+03  0.14680737253E+03 -0.25122354101E+03  0.32955654129E+03  0.00000000000E+00 0.  1.
        -13    1    3    3    0    0 -0.17748629464E+03  0.18938241872E+03 -0.16963237924E+03  0.31006810444E+03  0.00000000000E+00 0. -1.
         22    1    1    2    0    0  0.33221780958E+03 -0.33618979125E+03  0.12154630186E+03  0.48802228662E+03  0.00000000000E+00 0. -1.
<mgrwt>
<rscale>  0 0.10871989E+04</rscale>
<asrwt>0</asrwt>
<pdfrwt beam="1">  1        2 0.63718256E-01 0.10871989E+04</pdfrwt>
<pdfrwt beam="2">  1       -2 0.10976589E+00 0.10871989E+04</pdfrwt>
<totfact> 0.50161690E+01</totfact>
</mgrwt>
</event>
<event>
 6    1  0.1585031E-006  0.3098647E+04  0.7818608E-02  0.8216109E-01
          2   -1    0    0  501    0  0.00000000000E+00  0.00000000000E+00  0.47257877980E+04  0.47257877980E+04  0.00000000000E+00 0.  1.
         -2   -1    0    0    0  501 -0.00000000000E+00 -0.00000000000E+00 -0.50793721629E+03  0.50793721629E+03  0.00000000000E+00 0. -1.
         23    2    1    2    0    0 -0.14454623418E+04  0.28267881715E+03  0.29159112013E+04  0.32679389512E+04  0.87282070073E+02 0.  0.
         13    1    3    3    0    0 -0.17177308878E+03  0.52035369329E+01  0.33531194918E+03  0.37678531565E+03  0.00000000000E+00 0. -1.
        -13    1    3    3    0    0 -0.12736892531E+04  0.27747528022E+03  0.25805992521E+04  0.28911536356E+04  0.00000000000E+00 0.  1.
         22    1    1    2    0    0  0.14454623418E+04 -0.28267881715E+03  0.13019393804E+04  0.19657860630E+04  0.00000000000E+00 0. -1.
<mgrwt>
<rscale>  0 0.30986471E+04</rscale>
<asrwt>0</asrwt>
<pdfrwt beam="1">  1        2 0.72704425E+00 0.30986471E+04</pdfrwt>
<pdfrwt beam="2">  1       -2 0.78144190E-01 0.30986471E+04</pdfrwt>
<totfact> 0.88855425E-02</totfact>
</mgrwt>
</event>
<event>
 6    1  0.1585031E-006  0.1606938E+04  0.7818608E-02  0.8816297E-01
          2   -1    0    0  501    0  0.00000000000E+00  0.00000000000E+00  0.21494219715E+04  0.21494219715E+04  0.00000000000E+00 0. -1.
         -2   -1    0    0    0  501 -0.00000000000E+00 -0.00000000000E+00 -0.30034219495E+03  0.30034219495E+03  0.00000000000E+00 0.  1.
         23    2    1    2    0    0  0.68970425060E+03 -0.16737055644E+03  0.14938354908E+04  0.16560996536E+04  0.86120452854E+02 0.  0.
         11    1    3    3    0    0  0.29758337945E+03 -0.36927431078E+02  0.68695876681E+03  0.74955443444E+03  0.00000000000E+00 0. -1.
        -11    1    3    3    0    0  0.39212087115E+03 -0.13044312536E+03  0.80687672404E+03  0.90654521914E+03  0.00000000000E+00 0.  1.
         22    1    1    2    0    0 -0.68970425060E+03  0.16737055644E+03  0.35524428571E+03  0.79366451287E+03  0.00000000000E+00 0.  1.
<mgrwt>
<rscale>  0 0.16069376E+04</rscale>
<asrwt>0</asrwt>
<pdfrwt beam="1">  1        2 0.33068029E+00 0.16069376E+04</pdfrwt>
<pdfrwt beam="2">  1       -2 0.46206493E-01 0.16069376E+04</pdfrwt>
<totfact> 0.23478818E+01</totfact>
</mgrwt>
</event>
<event>
 6    1  0.1585031E-006  0.2034621E+04  0.7818608E-02  0.8590603E-01
         -2   -1    0    0    0  501 -0.00000000000E+00  0.00000000000E+00  0.71565212697E+03  0.71565212697E+03  0.00000000000E+00 0.  1.
          2   -1    0    0  501    0  0.00000000000E+00 -0.00000000000E+00 -0.14461229385E+04  0.14461229385E+04  0.00000000000E+00 0. -1.
         23    2    1    2    0    0  0.67614916549E+03 -0.22508194397E+03  0.40272910540E+03  0.82312588543E+03  0.86636686363E+02 0.  0.
         11    1    3    3    0    0  0.32438008690E+03 -0.14756358880E+03  0.17553594731E+03  0.39725347364E+03  0.00000000000E+00 0. -1.
        -11    1    3    3    0    0  0.35176907859E+03 -0.77518355169E+02  0.22719315809E+03  0.42587241179E+03  0.00000000000E+00 0.  1.
         22    1    1    2    0    0 -0.67614916549E+03  0.22508194397E+03 -0.11331999169E+04  0.13386491800E+04  0.00000000000E+00 0. -1.
<mgrwt>
<rscale>  0 0.20346213E+04</rscale>
<asrwt>0</asrwt>
<pdfrwt beam="1">  1        2 0.22248045E+00 0.20346213E+04</pdfrwt>
<pdfrwt beam="2">  1       -2 0.11010033E+00 0.20346213E+04</pdfrwt>
<totfact> 0.82729668E+00</totfact>
</mgrwt>
</event>
<event>
 6    1  0.1585031E-006  0.3073557E+04  0.7818608E-02  0.8223033E-01
         -2   -1    0    0    0  501 -0.00000000000E+00  0.00000000000E+00  0.11667366799E+04  0.11667366799E+04  0.00000000000E+00 0.  1.
          2   -1    0    0  501    0  0.00000000000E+00 -0.00000000000E+00 -0.20241824751E+04  0.20241824751E+04  0.00000000000E+00 0. -1.
         23    2    1    2    0    0 -0.13614867932E+04  0.57387735721E+03  0.46607253315E+01  0.14803025521E+04  0.91062694488E+02 0.  0.
         11    1    3    3    0    0 -0.10919019424E+04  0.49146247638E+03 -0.17459225904E+02  0.11975349857E+04  0.00000000000E+00 0. -1.
        -11    1    3    3    0    0 -0.26958485078E+03  0.82414880833E+02  0.22119951236E+02  0.28276756638E+03  0.00000000000E+00 0.  1.
         22    1    1    2    0    0  0.13614867932E+04 -0.57387735721E+03 -0.86210652055E+03  0.17106166028E+04  0.00000000000E+00 0. -1.
<mgrwt>
<rscale>  0 0.30735569E+04</rscale>
<asrwt>0</asrwt>
<pdfrwt beam="1">  1        2 0.31141269E+00 0.30735569E+04</pdfrwt>
<pdfrwt beam="2">  1       -2 0.17949795E+00 0.30735569E+04</pdfrwt>
<totfact> 0.10074412E+00</totfact>
</mgrwt>
</event>
<event>
 6    1  0.1585031E-006  0.2147348E+04  0.7818608E-02  0.8540668E-01
         -2   -1    0    0    0  501 -0.00000000000E+00  0.00000000000E+00  0.11846773610E+04  0.11846773610E+04  0.00000000000E+00 0.  1.
          2   -1    0    0  501    0  0.00000000000E+00 -0.00000000000E+00 -0.97307172652E+03  0.97307172652E+03  0.00000000000E+00 0. -1.
         23    2    1    2    0    0 -0.55637230125E+03 -0.55057056868E+03 -0.62971945617E+03  0.10086163725E+04  0.89901638561E+02 0.  0.
         11    1    3    3    0    0 -0.40647527452E+03 -0.38248650862E+03 -0.49609090016E+03  0.74674243169E+03  0.00000000000E+00 0. -1.
        -11    1    3    3    0    0 -0.14989702673E+03 -0.16808406007E+03 -0.13362855601E+03  0.26187394077E+03  0.00000000000E+00 0.  1.
         22    1    1    2    0    0  0.55637230125E+03  0.55057056868E+03  0.84132509068E+03  0.11491327151E+04  0.00000000000E+00 0.  1.
<mgrwt>
<rscale>  0 0.21473482E+04</rscale>
<asrwt>0</asrwt>
<pdfrwt beam="1">  1        2 0.14970334E+00 0.21473482E+04</pdfrwt>
<pdfrwt beam="2">  1       -2 0.18225805E+00 0.21473482E+04</pdfrwt>
<totfact> 0.42099491E+00</totfact>
</mgrwt>
</event>
<event>
 6    1  0.1585031E-006  0.1763306E+04  0.7818608E-02  0.8726060E-01
         -2   -1    0    0    0  501 -0.00000000000E+00  0.00000000000E+00  0.33479297597E+03  0.33479297597E+03  0.00000000000E+00 0.  1.
          2   -1    0    0  501    0  0.00000000000E+00 -0.00000000000E+00 -0.23217697538E+04  0.23217697538E+04  0.00000000000E+00 0. -1.
         23    2    1    2    0    0  0.77920820092E+03  0.28023719491E+03 -0.55101531620E+03  0.99894889505E+03  0.92642918993E+02 0.  0.
         11    1    3    3    0    0  0.28475507591E+03  0.88360610176E+02 -0.14823453326E+03  0.33296625585E+03  0.00000000000E+00 0.  1.
        -11    1    3    3    0    0  0.49445312501E+03  0.19187658473E+03 -0.40278078294E+03  0.66598263919E+03  0.00000000000E+00 0. -1.
         22    1    1    2    0    0 -0.77920820092E+03 -0.28023719491E+03 -0.14359614616E+04  0.16576138347E+04  0.00000000000E+00 0.  1.
<mgrwt>
<rscale>  0 0.17633062E+04</rscale>
<asrwt>0</asrwt>
<pdfrwt beam="1">  1        2 0.35719533E+00 0.17633062E+04</pdfrwt>
<pdfrwt beam="2">  1       -2 0.51506615E-01 0.17633062E+04</pdfrwt>
<totfact> 0.14866352E+01</totfact>
</mgrwt>
</event>
<event>
 6    1  0.1585031E-006  0.2245364E+04  0.7818608E-02  0.8499780E-01
         -2   -1    0    0    0  501 -0.00000000000E+00  0.00000000000E+00  0.94405167265E+03  0.94405167265E+03  0.00000000000E+00 0.  1.
          2   -1    0    0  501    0  0.00000000000E+00 -0.00000000000E+00 -0.13351124013E+04  0.13351124013E+04  0.00000000000E+00 0. -1.
         23    2    1    2    0    0 -0.67521975436E+02  0.34588581628E+03 -0.12758832902E+04  0.13267423289E+04  0.90392598975E+02 0.  0.
         11    1    3    3    0    0 -0.31096101165E+02  0.83161002036E+02 -0.20313396128E+03  0.22168925547E+03  0.00000000000E+00 0.  1.
        -11    1    3    3    0    0 -0.36425874271E+02  0.26272481424E+03 -0.10727493290E+04  0.11050530734E+04  0.00000000000E+00 0. -1.
         22    1    1    2    0    0  0.67521975436E+02 -0.34588581628E+03  0.88482256155E+03  0.95242174508E+03  0.00000000000E+00 0.  1.
<mgrwt>
<rscale>  0 0.22453642E+04</rscale>
<asrwt>0</asrwt>
<pdfrwt beam="1">  1        2 0.20540191E+00 0.22453642E+04</pdfrwt>
<pdfrwt beam="2">  1       -2 0.14523872E+00 0.22453642E+04</pdfrwt>
<totfact> 0.46867670E+00</totfact>
</mgrwt>
</event>
<event>
 6    1  0.1585031E-006  0.4706501E+04  0.7818608E-02  0.7875449E-01
          2   -1    0    0  501    0  0.00000000000E+00  0.00000000000E+00  0.32377205064E+04  0.32377205064E+04  0.00000000000E+00 0. -1.
         -2   -1    0    0    0  501 -0.00000000000E+00 -0.00000000000E+00 -0.17103970255E+04  0.17103970255E+04  0.00000000000E+00 0.  1.
         23    2    1    2    0    0  0.66997419223E+03  0.78728178852E+03 -0.14574070141E+04  0.17894320205E+04  0.96714624075E+02 0.  0.
         13    1    3    3    0    0  0.28247971051E+03  0.34128468157E+03 -0.54359056991E+03  0.70125653539E+03  0.00000000000E+00 0. -1.
        -13    1    3    3    0    0  0.38749448172E+03  0.44599710695E+03 -0.91381644414E+03  0.10881754851E+04  0.00000000000E+00 0.  1.
         22    1    1    2    0    0 -0.66997419223E+03 -0.78728178852E+03  0.29847304949E+04  0.31586855114E+04  0.00000000000E+00 0. -1.
<mgrwt>
<rscale>  0 0.47065008E+04</rscale>
<asrwt>0</asrwt>
<pdfrwt beam="1">  1        2 0.49811085E+00 0.47065008E+04</pdfrwt>
<pdfrwt beam="2">  1       -2 0.26313800E+00 0.47065008E+04</pdfrwt>
<totfact> 0.48674716E-02</totfact>
</mgrwt>
</event>
<event>
 6    1  0.1585031E-006  0.3282970E+04  0.7818608E-02  0.8167242E-01
         -1   -1    0    0    0  501 -0.00000000000E+00  0.00000000000E+00  0.10181093596E+04  0.10181093596E+04  0.00000000000E+00 0.  1.
          1   -1    0    0  501    0  0.00000000000E+00 -0.00000000000E+00 -0.26465458854E+04  0.26465458854E+04  0.00000000000E+00 0. -1.
         23    2    1    2    0    0 -0.35926344143E+03 -0.12031266477E+04 -0.19928526092E+04  0.23572214867E+04  0.91911177690E+02 0.  0.
         13    1    3    3    0    0 -0.10293862898E+03 -0.31394500906E+03 -0.60071849292E+03  0.68558043859E+03  0.00000000000E+00 0.  1.
        -13    1    3    3    0    0 -0.25632481244E+03 -0.88918163865E+03 -0.13921341162E+04  0.16716410481E+04  0.00000000000E+00 0. -1.
         22    1    1    2    0    0  0.35926344143E+03  0.12031266477E+04  0.36441608339E+03  0.13074337584E+04  0.00000000000E+00 0.  1.
<mgrwt>
<rscale>  0 0.32829701E+04</rscale>
<asrwt>0</asrwt>
<pdfrwt beam="1">  1        1 0.40716089E+00 0.32829701E+04</pdfrwt>
<pdfrwt beam="2">  1       -1 0.15663221E+00 0.32829701E+04</pdfrwt>
<totfact> 0.27557012E-01</totfact>
</mgrwt>
</event>
<event>
 6    1  0.1585031E-006  0.2294961E+04  0.7818608E-02  0.8479911E-01
         -1   -1    0    0    0  501 -0.00000000000E+00  0.00000000000E+00  0.81497131580E+03  0.81497131580E+03  0.00000000000E+00 0.  1.
          1   -1    0    0  501    0  0.00000000000E+00 -0.00000000000E+00 -0.16156534763E+04  0.16156534763E+04  0.00000000000E+00 0. -1.
         23    2    1    2    0    0 -0.51031828801E+03 -0.84057906450E+03  0.22167608403E+03  0.10120993961E+04  0.90592398750E+02 0.  0.
         11    1    3    3    0    0 -0.20194289662E+03 -0.25348331254E+03  0.61529345819E+02  0.32987965022E+03  0.00000000000E+00 0. -1.
        -11    1    3    3    0    0 -0.30837539139E+03 -0.58709575195E+03  0.16014673821E+03  0.68221974593E+03  0.00000000000E+00 0.  1.
         22    1    1    2    0    0  0.51031828801E+03  0.84057906450E+03 -0.10223582445E+04  0.14185253959E+04  0.00000000000E+00 0.  1.
<mgrwt>
<rscale>  0 0.22949608E+04</rscale>
<asrwt>0</asrwt>
<pdfrwt beam="1">  1        1 0.24856207E+00 0.22949608E+04</pdfrwt>
<pdfrwt beam="2">  1       -1 0.12538020E+00 0.22949608E+04</pdfrwt>
<totfact> 0.27339481E+00</totfact>
</mgrwt>
</event>
<event>
 6    1  0.1585031E-006  0.2558882E+04  0.7818608E-02  0.8382304E-01
         -2   -1    0    0    0  501 -0.00000000000E+00  0.00000000000E+00  0.16113283870E+04  0.16113283870E+04  0.00000000000E+00 0.  1.
          2   -1    0    0  501    0  0.00000000000E+00 -0.00000000000E+00 -0.10159126877E+04  0.10159126877E+04  0.00000000000E+00 0. -1.
         23    2    1    2    0    0 -0.73734148496E+03  0.89023924001E+03 -0.26114855160E+03  0.11885261322E+04  0.90539665431E+02 0.  0.
         11    1    3    3    0    0 -0.78530136202E+02  0.65895839604E+02 -0.41804092852E+02  0.11071055121E+03  0.00000000000E+00 0. -1.
        -11    1    3    3    0    0 -0.65881134876E+03  0.82434340041E+03 -0.21934445875E+03  0.10778155810E+04  0.00000000000E+00 0.  1.
         22    1    1    2    0    0  0.73734148496E+03 -0.89023924001E+03  0.85656425083E+03  0.14387149425E+04  0.00000000000E+00 0.  1.
<mgrwt>
<rscale>  0 0.25588817E+04</rscale>
<asrwt>0</asrwt>
<pdfrwt beam="1">  1        2 0.15629426E+00 0.25588817E+04</pdfrwt>
<pdfrwt beam="2">  1       -2 0.24789667E+00 0.25588817E+04</pdfrwt>
<totfact> 0.14456418E+00</totfact>
</mgrwt>
</event>
<event>
 6    1  0.1585031E-006  0.1447823E+04  0.7818608E-02  0.8919911E-01
         -1   -1    0    0    0  501 -0.00000000000E+00  0.00000000000E+00  0.43937326337E+03  0.43937326337E+03  0.00000000000E+00 0.  1.
          1   -1    0    0  501    0  0.00000000000E+00 -0.00000000000E+00 -0.11927165695E+04  0.11927165695E+04  0.00000000000E+00 0. -1.
         23    2    1    2    0    0  0.18624396342E+03 -0.24044059293E+03 -0.11150931985E+04  0.11594784945E+04  0.91973067871E+02 0.  0.
         13    1    3    3    0    0  0.13873273966E+03 -0.22626837942E+03 -0.87719985380E+03  0.91647353267E+03  0.00000000000E+00 0. -1.
        -13    1    3    3    0    0  0.47511223756E+02 -0.14172213515E+02 -0.23789334466E+03  0.24300496179E+03  0.00000000000E+00 0.  1.
         22    1    1    2    0    0 -0.18624396342E+03  0.24044059293E+03  0.36174989231E+03  0.47261133844E+03  0.00000000000E+00 0.  1.
<mgrwt>
<rscale>  0 0.14478229E+04</rscale>
<asrwt>0</asrwt>
<pdfrwt beam="1">  1        1 0.18349485E+00 0.14478229E+04</pdfrwt>
<pdfrwt beam="2">  1       -1 0.67595888E-01 0.14478229E+04</pdfrwt>
<totfact> 0.23291239E+01</totfact>
</mgrwt>
</event>
<event>
 6    1  0.1585031E-006  0.3013703E+04  0.7818608E-02  0.8239829E-01
          1   -1    0    0  501    0  0.00000000000E+00  0.00000000000E+00  0.18117843651E+04  0.18117843651E+04  0.00000000000E+00 0. -1.
         -1   -1    0    0    0  501 -0.00000000000E+00 -0.00000000000E+00 -0.12532401022E+04  0.12532401022E+04  0.00000000000E+00 0.  1.
         23    2    1    2    0    0  0.80341092315E+03 -0.84834641592E+01  0.15743477720E+04  0.17698805179E+04  0.91460701619E+02 0.  0.
         11    1    3    3    0    0  0.54168370523E+03 -0.45981553971E+02  0.10911186526E+04  0.12190469449E+04  0.00000000000E+00 0. -1.
        -11    1    3    3    0    0  0.26172721792E+03  0.37498089812E+02  0.48322911940E+03  0.55083357303E+03  0.00000000000E+00 0.  1.
         22    1    1    2    0    0 -0.80341092315E+03  0.84834641592E+01 -0.10158035090E+04  0.12951439494E+04  0.00000000000E+00 0.  1.
<mgrwt>
<rscale>  0 0.30137026E+04</rscale>
<asrwt>0</asrwt>
<pdfrwt beam="1">  1        1 0.27873606E+00 0.30137026E+04</pdfrwt>
<pdfrwt beam="2">  1       -1 0.19280617E+00 0.30137026E+04</pdfrwt>
<totfact> 0.57417484E-01</totfact>
</mgrwt>
</event>
<event>
 6    1  0.1585031E-006  0.1933876E+04  0.7818608E-02  0.8638176E-01
          2   -1    0    0  501    0  0.00000000000E+00  0.00000000000E+00  0.25506614399E+04  0.25506614399E+04  0.00000000000E+00 0. -1.
         -2   -1    0    0    0  501 -0.00000000000E+00 -0.00000000000E+00 -0.36655944354E+03  0.36655944354E+03  0.00000000000E+00 0.  1.
         23    2    1    2    0    0  0.32898842757E+03  0.28202131106E+03 -0.20574598886E+03  0.48840578182E+03  0.91866154917E+02 0.  0.
         11    1    3    3    0    0  0.20799225611E+03  0.13205910241E+03 -0.83168975004E+02  0.26003358155E+03  0.00000000000E+00 0. -1.
        -11    1    3    3    0    0  0.12099617146E+03  0.14996220865E+03 -0.12257701386E+03  0.22837220027E+03  0.00000000000E+00 0.  1.
         22    1    1    2    0    0 -0.32898842757E+03 -0.28202131106E+03  0.23898479853E+04  0.24288151017E+04  0.00000000000E+00 0. -1.
<mgrwt>
<rscale>  0 0.19338759E+04</rscale>
<asrwt>0</asrwt>
<pdfrwt beam="1">  1        2 0.39240944E+00 0.19338759E+04</pdfrwt>
<pdfrwt beam="2">  1       -2 0.56393762E-01 0.19338759E+04</pdfrwt>
<totfact> 0.89725141E+00</totfact>
</mgrwt>
</event>
<event>
 6    1  0.1585031E-006  0.1768948E+04  0.7818608E-02  0.8722989E-01
         -2   -1    0    0    0  501 -0.00000000000E+00  0.00000000000E+00  0.40152461570E+03  0.40152461570E+03  0.00000000000E+00 0.  1.
          2   -1    0    0  501    0  0.00000000000E+00 -0.00000000000E+00 -0.19483104773E+04  0.19483104773E+04  0.00000000000E+00 0. -1.
         23    2    1    2    0    0 -0.30584128353E+02  0.72468652276E+03 -0.14423938103E+04  0.16170297672E+04  0.90440139184E+02 0.  0.
         11    1    3    3    0    0 -0.19269349356E+02  0.35851446215E+02 -0.60341761349E+02  0.72785727880E+02  0.00000000000E+00 0.  1.
        -11    1    3    3    0    0 -0.11314778997E+02  0.68883507655E+03 -0.13820520489E+04  0.15442440393E+04  0.00000000000E+00 0. -1.
         22    1    1    2    0    0  0.30584128353E+02 -0.72468652276E+03 -0.10439205130E+03  0.73280532582E+03  0.00000000000E+00 0.  1.
<mgrwt>
<rscale>  0 0.17689484E+04</rscale>
<asrwt>0</asrwt>
<pdfrwt beam="1">  1        2 0.29974007E+00 0.17689484E+04</pdfrwt>
<pdfrwt beam="2">  1       -2 0.61773018E-01 0.17689484E+04</pdfrwt>
<totfact> 0.16447554E+01</totfact>
</mgrwt>
</event>
<event>
 6    1  0.1585031E-006  0.1605135E+04  0.7818608E-02  0.8817400E-01
          1   -1    0    0  501    0  0.00000000000E+00  0.00000000000E+00  0.15285751989E+04  0.15285751989E+04  0.00000000000E+00 0. -1.
         -1   -1    0    0    0  501 -0.00000000000E+00 -0.00000000000E+00 -0.42138229614E+03  0.42138229614E+03  0.00000000000E+00 0.  1.
         23    2    1    2    0    0 -0.56462484736E+03  0.34850347926E+03  0.10982506140E+04  0.12863794229E+04  0.91442414554E+02 0.  0.
         13    1    3    3    0    0 -0.49202550442E+03  0.29815075033E+03  0.88511444005E+03  0.10556564493E+04  0.00000000000E+00 0.  1.
        -13    1    3    3    0    0 -0.72599342939E+02  0.50352728926E+02  0.21313617397E+03  0.23072297363E+03  0.00000000000E+00 0. -1.
         22    1    1    2    0    0  0.56462484736E+03 -0.34850347926E+03  0.89422887649E+01  0.66357807215E+03  0.00000000000E+00 0.  1.
<mgrwt>
<rscale>  0 0.16051349E+04</rscale>
<asrwt>0</asrwt>
<pdfrwt beam="1">  1        1 0.23516541E+00 0.16051349E+04</pdfrwt>
<pdfrwt beam="2">  1       -1 0.64828046E-01 0.16051349E+04</pdfrwt>
<totfact> 0.14461830E+01</totfact>
</mgrwt>
</event>
<event>
 6    1  0.1585031E-006  0.6122629E+03  0.7818608E-02  0.9880286E-01
         -2   -1    0    0    0  501 -0.00000000000E+00  0.00000000000E+00  0.21052843583E+03  0.21052843583E+03  0.00000000000E+00 0.  1.
          2   -1    0    0  501    0  0.00000000000E+00 -0.00000000000E+00 -0.44514867338E+03  0.44514867338E+03  0.00000000000E+00 0. -1.
         23    2    1    2    0    0 -0.19689613172E+03  0.19714040007E+03 -0.36895781601E+01  0.29379122462E+03  0.93098048588E+02 0.  0.
         13    1    3    3    0    0 -0.10336754483E+03  0.13748575425E+03 -0.40860294812E+02  0.17679577381E+03  0.00000000000E+00 0. -1.
        -13    1    3    3    0    0 -0.93528586888E+02  0.59654645825E+02  0.37170716652E+02  0.11699545081E+03  0.00000000000E+00 0.  1.
         22    1    1    2    0    0  0.19689613172E+03 -0.19714040007E+03 -0.23093065938E+03  0.36188588459E+03  0.00000000000E+00 0. -1.
<mgrwt>
<rscale>  0 0.61226286E+03</rscale>
<asrwt>0</asrwt>
<pdfrwt beam="1">  1        2 0.68484411E-01 0.61226286E+03</pdfrwt>
<pdfrwt beam="2">  1       -2 0.32388990E-01 0.61226286E+03</pdfrwt>
<totfact> 0.62908563E+02</totfact>
</mgrwt>
</event>
<event>
 6    1  0.1585031E-006  0.2142146E+04  0.7818608E-02  0.8542901E-01
         -2   -1    0    0    0  501 -0.00000000000E+00  0.00000000000E+00  0.10275825110E+04  0.10275825110E+04  0.00000000000E+00 0.  1.
          2   -1    0    0  501    0  0.00000000000E+00 -0.00000000000E+00 -0.11164044797E+04  0.11164044797E+04  0.00000000000E+00 0. -1.
         23    2    1    2    0    0  0.68360074294E+03  0.69752466623E+03 -0.47963495699E+03  0.10920433480E+04  0.93050234325E+02 0.  0.
         11    1    3    3    0    0  0.49991558535E+03  0.46912794991E+03 -0.30041617221E+03  0.74849616057E+03  0.00000000000E+00 0. -1.
        -11    1    3    3    0    0  0.18368515759E+03  0.22839671632E+03 -0.17921878478E+03  0.34354718739E+03  0.00000000000E+00 0.  1.
         22    1    1    2    0    0 -0.68360074294E+03 -0.69752466623E+03  0.39081298828E+03  0.10519436428E+04  0.00000000000E+00 0.  1.
<mgrwt>
<rscale>  0 0.21421463E+04</rscale>
<asrwt>0</asrwt>
<pdfrwt beam="1">  1        2 0.17175454E+00 0.21421463E+04</pdfrwt>
<pdfrwt beam="2">  1       -2 0.15808962E+00 0.21421463E+04</pdfrwt>
<totfact> 0.50873821E+00</totfact>
</mgrwt>
</event>
<event>
 6    1  0.1585031E-006  0.1708031E+04  0.7818608E-02  0.8756797E-01
          2   -1    0    0  501    0  0.00000000000E+00  0.00000000000E+00  0.22280964468E+04  0.22280964468E+04  0.00000000000E+00 0. -1.
         -2   -1    0    0    0  501 -0.00000000000E+00 -0.00000000000E+00 -0.32733864826E+03  0.32733864826E+03  0.00000000000E+00 0.  1.
         23    2    1    2    0    0 -0.70347025051E+03 -0.18886142006E+03  0.29251255886E+03  0.78993466167E+03  0.88848991463E+02 0.  0.
         13    1    3    3    0    0 -0.25606213794E+03 -0.99053023531E+02  0.14412088366E+03  0.31008087504E+03  0.00000000000E+00 0.  1.
        -13    1    3    3    0    0 -0.44740811257E+03 -0.89808396532E+02  0.14839167519E+03  0.47985378663E+03  0.00000000000E+00 0. -1.
         22    1    1    2    0    0  0.70347025051E+03  0.18886142006E+03  0.16082452397E+04  0.17655004334E+04  0.00000000000E+00 0. -1.
<mgrwt>
<rscale>  0 0.17080305E+04</rscale>
<asrwt>0</asrwt>
<pdfrwt beam="1">  1        2 0.34278406E+00 0.17080305E+04</pdfrwt>
<pdfrwt beam="2">  1       -2 0.50359794E-01 0.17080305E+04</pdfrwt>
<totfact> 0.17666807E+01</totfact>
</mgrwt>
</event>
<event>
 6    1  0.1585031E-006  0.1763417E+04  0.7818608E-02  0.8726000E-01
         -2   -1    0    0    0  501 -0.00000000000E+00  0.00000000000E+00  0.71021302348E+03  0.71021302348E+03  0.00000000000E+00 0.  1.
          2   -1    0    0  501    0  0.00000000000E+00 -0.00000000000E+00 -0.10946146773E+04  0.10946146773E+04  0.00000000000E+00 0. -1.
         23    2    1    2    0    0 -0.33861060908E+03 -0.81089888901E+03 -0.15663491073E+03  0.89703265675E+03  0.88988421916E+02 0.  0.
         11    1    3    3    0    0 -0.86363671453E+02 -0.30098109264E+03 -0.78290512887E+02  0.32276571423E+03  0.00000000000E+00 0.  1.
        -11    1    3    3    0    0 -0.25224693763E+03 -0.50991779636E+03 -0.78344397840E+02  0.57426694251E+03  0.00000000000E+00 0. -1.
         22    1    1    2    0    0  0.33861060908E+03  0.81089888901E+03 -0.22776674314E+03  0.90779504408E+03  0.00000000000E+00 0. -1.
<mgrwt>
<rscale>  0 0.17634167E+04</rscale>
<asrwt>0</asrwt>
<pdfrwt beam="1">  1        2 0.16840226E+00 0.17634167E+04</pdfrwt>
<pdfrwt beam="2">  1       -2 0.10926354E+00 0.17634167E+04</pdfrwt>
<totfact> 0.13883260E+01</totfact>
</mgrwt>
</event>
<event>
 6    1  0.1585031E-006  0.4666660E+04  0.7818608E-02  0.7882092E-01
          1   -1    0    0  501    0  0.00000000000E+00  0.00000000000E+00  0.51422210355E+04  0.51422210355E+04  0.00000000000E+00 0. -1.
         -1   -1    0    0    0  501 -0.00000000000E+00 -0.00000000000E+00 -0.10587697731E+04  0.10587697731E+04  0.00000000000E+00 0.  1.
         23    2    1    2    0    0  0.82539531144E+03 -0.95648992607E+03  0.46477239241E+04  0.48173167011E+04  0.95142656850E+02 0.  0.
         13    1    3    3    0    0  0.28220852101E+03 -0.38256209294E+03  0.18550094889E+04  0.19149557719E+04  0.00000000000E+00 0.  1.
        -13    1    3    3    0    0  0.54318679043E+03 -0.57392783312E+03  0.27927144352E+04  0.29023609293E+04  0.00000000000E+00 0. -1.
         22    1    1    2    0    0 -0.82539531144E+03  0.95648992607E+03 -0.56427266171E+03  0.13836741074E+04  0.00000000000E+00 0.  1.
<mgrwt>
<rscale>  0 0.46666597E+04</rscale>
<asrwt>0</asrwt>
<pdfrwt beam="1">  1        1 0.79111092E+00 0.46666597E+04</pdfrwt>
<pdfrwt beam="2">  1       -1 0.16288766E+00 0.46666597E+04</pdfrwt>
<totfact> 0.11329018E-03</totfact>
</mgrwt>
</event>
<event>
 6    1  0.1585031E-006  0.3754481E+04  0.7818608E-02  0.8055994E-01
         -1   -1    0    0    0  501 -0.00000000000E+00  0.00000000000E+00  0.15243092204E+04  0.15243092204E+04  0.00000000000E+00 0.  1.
          1   -1    0    0  501    0  0.00000000000E+00 -0.00000000000E+00 -0.23118881455E+04  0.23118881455E+04  0.00000000000E+00 0. -1.
         23    2    1    2    0    0 -0.11735229008E+03  0.15580139366E+04  0.66712732674E+03  0.17014024657E+04  0.92371498674E+02 0.  0.
         11    1    3    3    0    0 -0.41528350847E+02  0.17757427139E+03  0.87961147018E+02  0.20247071188E+03  0.00000000000E+00 0.  1.
        -11    1    3    3    0    0 -0.75823939229E+02  0.13804396652E+04  0.57916617972E+03  0.14989317539E+04  0.00000000000E+00 0. -1.
         22    1    1    2    0    0  0.11735229008E+03 -0.15580139366E+04 -0.14547062519E+04  0.21347949002E+04  0.00000000000E+00 0.  1.
<mgrwt>
<rscale>  0 0.37544813E+04</rscale>
<asrwt>0</asrwt>
<pdfrwt beam="1">  1        1 0.35567510E+00 0.37544813E+04</pdfrwt>
<pdfrwt beam="2">  1       -1 0.23450911E+00 0.37544813E+04</pdfrwt>
<totfact> 0.12856038E-01</totfact>
</mgrwt>
</event>
<event>
 6    1  0.1585031E-006  0.1421239E+04  0.7818608E-02  0.8938587E-01
          1   -1    0    0  501    0  0.00000000000E+00  0.00000000000E+00  0.35581897906E+03  0.35581897906E+03  0.00000000000E+00 0. -1.
         -1   -1    0    0    0  501 -0.00000000000E+00 -0.00000000000E+00 -0.14192040168E+04  0.14192040168E+04  0.00000000000E+00 0.  1.
         23    2    1    2    0    0  0.66701803752E+03 -0.22775039513E+03 -0.61308126713E+03  0.93862787948E+03  0.91489623294E+02 0.  0.
         13    1    3    3    0    0  0.18073590567E+03 -0.20012149953E+02 -0.14988491714E+03  0.23565110254E+03  0.00000000000E+00 0.  1.
        -13    1    3    3    0    0  0.48628213185E+03 -0.20773824518E+03 -0.46319634999E+03  0.70297677693E+03  0.00000000000E+00 0. -1.
         22    1    1    2    0    0 -0.66701803752E+03  0.22775039513E+03 -0.45030377059E+03  0.83639511636E+03  0.00000000000E+00 0. -1.
<mgrwt>
<rscale>  0 0.14212385E+04</rscale>
<asrwt>0</asrwt>
<pdfrwt beam="1">  1        1 0.54741381E-01 0.14212385E+04</pdfrwt>
<pdfrwt beam="2">  1       -1 0.21833908E+00 0.14212385E+04</pdfrwt>
<totfact> 0.77033973E+00</totfact>
</mgrwt>
</event>
<event>
 6    1  0.1585031E-006  0.5701607E+04  0.7818608E-02  0.7728541E-01
         -2   -1    0    0    0  501 -0.00000000000E+00  0.00000000000E+00  0.29946855357E+04  0.29946855357E+04  0.00000000000E+00 0.  1.
          2   -1    0    0  501    0  0.00000000000E+00 -0.00000000000E+00 -0.27138343262E+04  0.27138343262E+04  0.00000000000E+00 0. -1.
         23    2    1    2    0    0 -0.13655158314E+04  0.21632147410E+04  0.13985389283E+04  0.29168613337E+04  0.89651575778E+02 0.  0.
         11    1    3    3    0    0 -0.12740235159E+04  0.20371878477E+04  0.13344025085E+04  0.27484359735E+04  0.00000000000E+00 0.  1.
        -11    1    3    3    0    0 -0.91492315509E+02  0.12602689326E+03  0.64136419774E+02  0.16842536021E+03  0.00000000000E+00 0. -1.
         22    1    1    2    0    0  0.13655158314E+04 -0.21632147410E+04 -0.11176877188E+04  0.27916585282E+04  0.00000000000E+00 0. -1.
<mgrwt>
<rscale>  0 0.57016069E+04</rscale>
<asrwt>0</asrwt>
<pdfrwt beam="1">  1        2 0.41751297E+00 0.57016069E+04</pdfrwt>
<pdfrwt beam="2">  1       -2 0.46072085E+00 0.57016069E+04</pdfrwt>
<totfact> 0.53208805E-03</totfact>
</mgrwt>
</event>
<event>
 6    1  0.1585031E-006  0.3187665E+04  0.7818608E-02  0.8192082E-01
         -2   -1    0    0    0  501 -0.00000000000E+00  0.00000000000E+00  0.10166967965E+04  0.10166967965E+04  0.00000000000E+00 0.  1.
          2   -1    0    0  501    0  0.00000000000E+00 -0.00000000000E+00 -0.24985839687E+04  0.24985839687E+04  0.00000000000E+00 0. -1.
         23    2    1    2    0    0  0.13061248512E+04 -0.30289043741E+03  0.20604436687E+03  0.13596329219E+04  0.91883934003E+02 0.  0.
         13    1    3    3    0    0  0.30150100883E+03 -0.62770717788E+02  0.86070979925E+02  0.31976747008E+03  0.00000000000E+00 0. -1.
        -13    1    3    3    0    0  0.10046238423E+04 -0.24011971962E+03  0.11997338694E+03  0.10398654518E+04  0.00000000000E+00 0.  1.
         22    1    1    2    0    0 -0.13061248512E+04  0.30289043741E+03 -0.16879315391E+04  0.21556478433E+04  0.00000000000E+00 0. -1.
<mgrwt>
<rscale>  0 0.31876652E+04</rscale>
<asrwt>0</asrwt>
<pdfrwt beam="1">  1        2 0.38439753E+00 0.31876652E+04</pdfrwt>
<pdfrwt beam="2">  1       -2 0.15641489E+00 0.31876652E+04</pdfrwt>
<totfact> 0.78736182E-01</totfact>
</mgrwt>
</event>
<event>
 6    1  0.1585031E-006  0.3039122E+04  0.7818608E-02  0.8232647E-01
         -2   -1    0    0    0  501 -0.00000000000E+00  0.00000000000E+00  0.15121858180E+04  0.15121858180E+04  0.00000000000E+00 0.  1.
          2   -1    0    0  501    0  0.00000000000E+00 -0.00000000000E+00 -0.15269717345E+04  0.15269717345E+04  0.00000000000E+00 0. -1.
         23    2    1    2    0    0 -0.37595334365E+03 -0.14688759014E+04  0.69853104459E+02  0.15205723247E+04  0.91232714096E+02 0.  0.
         13    1    3    3    0    0 -0.26699734975E+03 -0.95625047834E+03  0.79947393945E+01  0.99285773299E+03  0.00000000000E+00 0. -1.
        -13    1    3    3    0    0 -0.10895599390E+03 -0.51262542304E+03  0.61858365064E+02  0.52771459169E+03  0.00000000000E+00 0.  1.
         22    1    1    2    0    0  0.37595334365E+03  0.14688759014E+04 -0.84639020891E+02  0.15185852278E+04  0.00000000000E+00 0.  1.
<mgrwt>
<rscale>  0 0.30391216E+04</rscale>
<asrwt>0</asrwt>
<pdfrwt beam="1">  1        2 0.23491873E+00 0.30391216E+04</pdfrwt>
<pdfrwt beam="2">  1       -2 0.23264397E+00 0.30391216E+04</pdfrwt>
<totfact> 0.86080684E-01</totfact>
</mgrwt>
</event>
<event>
 6    1  0.1585031E-006  0.3333323E+04  0.7818608E-02  0.8154468E-01
         -1   -1    0    0    0  501 -0.00000000000E+00  0.00000000000E+00  0.93369806781E+03  0.93369806781E+03  0.00000000000E+00 0. -1.
          1   -1    0    0  501    0  0.00000000000E+00 -0.00000000000E+00 -0.29750089543E+04  0.29750089543E+04  0.00000000000E+00 0.  1.
         23    2    1    2    0    0  0.38228062071E+03  0.16176753724E+04 -0.11424222132E+04  0.20189946285E+04  0.90546746145E+02 0.  0.
         13    1    3    3    0    0  0.27821210786E+03  0.13183746740E+04 -0.90717807019E+03  0.16243416540E+04  0.00000000000E+00 0.  1.
        -13    1    3    3    0    0  0.10406851284E+03  0.29930069845E+03 -0.23524414304E+03  0.39465297451E+03  0.00000000000E+00 0. -1.
         22    1    1    2    0    0 -0.38228062071E+03 -0.16176753724E+04 -0.89888867331E+03  0.18897123936E+04  0.00000000000E+00 0.  1.
<mgrwt>
<rscale>  0 0.33333227E+04</rscale>
<asrwt>0</asrwt>
<pdfrwt beam="1">  1        1 0.45769368E+00 0.33333227E+04</pdfrwt>
<pdfrwt beam="2">  1       -1 0.14364586E+00 0.33333227E+04</pdfrwt>
<totfact> 0.20185132E-01</totfact>
</mgrwt>
</event>
<event>
 6    1  0.1585031E-006  0.2457424E+04  0.7818608E-02  0.8418312E-01
          2   -1    0    0  501    0  0.00000000000E+00  0.00000000000E+00  0.25069858142E+04  0.25069858142E+04  0.00000000000E+00 0. -1.
         -2   -1    0    0    0  501 -0.00000000000E+00 -0.00000000000E+00 -0.60221069839E+03  0.60221069839E+03  0.00000000000E+00 0.  1.
         23    2    1    2    0    0  0.75742370390E+03 -0.38087937736E+03 -0.16871737697E+03  0.86907801463E+03  0.89840274280E+02 0.  0.
         11    1    3    3    0    0  0.23440833242E+03 -0.80403233915E+02 -0.25486258567E+02  0.24912144771E+03  0.00000000000E+00 0.  1.
        -11    1    3    3    0    0  0.52301537148E+03 -0.30047614345E+03 -0.14323111840E+03  0.61995656692E+03  0.00000000000E+00 0. -1.
         22    1    1    2    0    0 -0.75742370390E+03  0.38087937736E+03  0.20734924928E+04  0.22401184980E+04  0.00000000000E+00 0. -1.
<mgrwt>
<rscale>  0 0.24574244E+04</rscale>
<asrwt>0</asrwt>
<pdfrwt beam="1">  1        2 0.38569012E+00 0.24574244E+04</pdfrwt>
<pdfrwt beam="2">  1       -2 0.92647801E-01 0.24574244E+04</pdfrwt>
<totfact> 0.30495802E+00</totfact>
</mgrwt>
</event>
<event>
 6    1  0.1585031E-006  0.2829937E+04  0.7818608E-02  0.8294034E-01
         -1   -1    0    0    0  501 -0.00000000000E+00  0.00000000000E+00  0.12740371177E+04  0.12740371177E+04  0.00000000000E+00 0.  1.
          1   -1    0    0  501    0  0.00000000000E+00 -0.00000000000E+00 -0.15714894348E+04  0.15714894348E+04  0.00000000000E+00 0. -1.
         23    2    1    2    0    0 -0.65954710602E+03 -0.21594053924E+03 -0.13870888815E+04  0.15536517351E+04  0.90473460353E+02 0.  0.
         13    1    3    3    0    0 -0.75716490998E+02 -0.91565626581E+01 -0.21241527637E+03  0.22569244401E+03  0.00000000000E+00 0. -1.
        -13    1    3    3    0    0 -0.58383061502E+03 -0.20678397658E+03 -0.11746736052E+04  0.13279592911E+04  0.00000000000E+00 0.  1.
         22    1    1    2    0    0  0.65954710602E+03  0.21594053924E+03  0.10896365644E+04  0.12918748175E+04  0.00000000000E+00 0.  1.
<mgrwt>
<rscale>  0 0.28299370E+04</rscale>
<asrwt>0</asrwt>
<pdfrwt beam="1">  1        1 0.24176760E+00 0.28299370E+04</pdfrwt>
<pdfrwt beam="2">  1       -1 0.19600571E+00 0.28299370E+04</pdfrwt>
<totfact> 0.80869869E-01</totfact>
</mgrwt>
</event>
<event>
 6    1  0.1585031E-006  0.1476115E+04  0.7818608E-02  0.8900493E-01
          1   -1    0    0  501    0  0.00000000000E+00  0.00000000000E+00  0.13870564572E+04  0.13870564572E+04  0.00000000000E+00 0. -1.
         -1   -1    0    0    0  501 -0.00000000000E+00 -0.00000000000E+00 -0.39272294099E+03  0.39272294099E+03  0.00000000000E+00 0.  1.
         23    2    1    2    0    0 -0.38874140651E+03  0.49867559544E+03  0.46850111662E+02  0.64069115205E+03  0.92157412777E+02 0.  0.
         11    1    3    3    0    0 -0.20678164173E+03  0.24034648891E+03  0.67039510586E+02  0.32406693455E+03  0.00000000000E+00 0.  1.
        -11    1    3    3    0    0 -0.18195976477E+03  0.25832910653E+03 -0.20189398924E+02  0.31662421750E+03  0.00000000000E+00 0. -1.
         22    1    1    2    0    0  0.38874140651E+03 -0.49867559544E+03  0.94748340458E+03  0.11390882462E+04  0.00000000000E+00 0. -1.
<mgrwt>
<rscale>  0 0.14761150E+04</rscale>
<asrwt>0</asrwt>
<pdfrwt beam="1">  1        1 0.21339330E+00 0.14761150E+04</pdfrwt>
<pdfrwt beam="2">  1       -1 0.60418915E-01 0.14761150E+04</pdfrwt>
<totfact> 0.21122489E+01</totfact>
</mgrwt>
</event>
<event>
 6    1  0.1585031E-006  0.6281715E+03  0.7818608E-02  0.9848623E-01
         -2   -1    0    0    0  501 -0.00000000000E+00  0.00000000000E+00  0.90767270537E+02  0.90767270537E+02  0.00000000000E+00 0.  1.
          2   -1    0    0  501    0  0.00000000000E+00 -0.00000000000E+00 -0.10868440709E+04  0.10868440709E+04  0.00000000000E+00 0. -1.
         23    2    1    2    0    0  0.29439442780E+03 -0.89514643124E+02 -0.49834134488E+03  0.59244338768E+03  0.89241924757E+02 0.  0.
         13    1    3    3    0    0  0.39998160595E+02 -0.46416154414E+02 -0.77413917422E+02  0.98728044912E+02  0.00000000000E+00 0.  1.
        -13    1    3    3    0    0  0.25439626721E+03 -0.43098488710E+02 -0.42092742746E+03  0.49371534277E+03  0.00000000000E+00 0. -1.
         22    1    1    2    0    0 -0.29439442780E+03  0.89514643124E+02 -0.49773545545E+03  0.58516795373E+03  0.00000000000E+00 0. -1.
<mgrwt>
<rscale>  0 0.62817154E+03</rscale>
<asrwt>0</asrwt>
<pdfrwt beam="1">  1        2 0.16720678E+00 0.62817154E+03</pdfrwt>
<pdfrwt beam="2">  1       -2 0.13964195E-01 0.62817154E+03</pdfrwt>
<totfact> 0.88563025E+02</totfact>
</mgrwt>
</event>
<event>
 6    1  0.1585031E-006  0.3480409E+04  0.7818608E-02  0.8118449E-01
          2   -1    0    0  501    0  0.00000000000E+00  0.00000000000E+00  0.18883555814E+04  0.18883555814E+04  0.00000000000E+00 0. -1.
         -2   -1    0    0    0  501 -0.00000000000E+00 -0.00000000000E+00 -0.16036762337E+04  0.16036762337E+04  0.00000000000E+00 0.  1.
         23    2    1    2    0    0 -0.60971088534E+03  0.10091615328E+04 -0.11401189387E+04  0.16426523193E+04  0.91000464925E+02 0.  0.
         13    1    3    3    0    0 -0.40358532062E+03  0.71796713209E+03 -0.74907153057E+03  0.11133131059E+04  0.00000000000E+00 0. -1.
        -13    1    3    3    0    0 -0.20612556472E+03  0.29119440070E+03 -0.39104740813E+03  0.52933921340E+03  0.00000000000E+00 0.  1.
         22    1    1    2    0    0  0.60971088534E+03 -0.10091615328E+04  0.14247982864E+04  0.18493794959E+04  0.00000000000E+00 0. -1.
<mgrwt>
<rscale>  0 0.34804086E+04</rscale>
<asrwt>0</asrwt>
<pdfrwt beam="1">  1        2 0.29051624E+00 0.34804086E+04</pdfrwt>
<pdfrwt beam="2">  1       -2 0.24671942E+00 0.34804086E+04</pdfrwt>
<totfact> 0.42708189E-01</totfact>
</mgrwt>
</event>
<event>
 6    1  0.1585031E-006  0.1687640E+04  0.7818608E-02  0.8768445E-01
         -2   -1    0    0    0  501 -0.00000000000E+00  0.00000000000E+00  0.46313097564E+03  0.46313097564E+03  0.00000000000E+00 0.  1.
          2   -1    0    0  501    0  0.00000000000E+00 -0.00000000000E+00 -0.15374308853E+04  0.15374308853E+04  0.00000000000E+00 0. -1.
         23    2    1    2    0    0 -0.50172108093E+03 -0.58873619525E+03 -0.93068882682E+03  0.12138227087E+04  0.94071914139E+02 0.  0.
         13    1    3    3    0    0 -0.17176706915E+03 -0.13816626265E+03 -0.24800937961E+03  0.33181695941E+03  0.00000000000E+00 0. -1.
        -13    1    3    3    0    0 -0.32995401178E+03 -0.45056993260E+03 -0.68267944722E+03  0.88200574925E+03  0.00000000000E+00 0.  1.
         22    1    1    2    0    0  0.50172108093E+03  0.58873619525E+03 -0.14361108287E+03  0.78673915231E+03  0.00000000000E+00 0. -1.
<mgrwt>
<rscale>  0 0.16876396E+04</rscale>
<asrwt>0</asrwt>
<pdfrwt beam="1">  1        2 0.23652783E+00 0.16876396E+04</pdfrwt>
<pdfrwt beam="2">  1       -2 0.71250918E-01 0.16876396E+04</pdfrwt>
<totfact> 0.20592333E+01</totfact>
</mgrwt>
</event>
<event>
 6    1  0.1585031E-006  0.2576154E+04  0.7818608E-02  0.8376346E-01
          1   -1    0    0  501    0  0.00000000000E+00  0.00000000000E+00  0.11294474560E+04  0.11294474560E+04  0.00000000000E+00 0. -1.
         -1   -1    0    0    0  501 -0.00000000000E+00 -0.00000000000E+00 -0.14689863660E+04  0.14689863660E+04  0.00000000000E+00 0.  1.
         23    2    1    2    0    0  0.39618069784E+03 -0.93222922136E+03 -0.96993695826E+03  0.14053654393E+04  0.90905712684E+02 0.  0.
         11    1    3    3    0    0  0.32405678877E+03 -0.68670970716E+03 -0.68863471673E+03  0.10250857512E+04  0.00000000000E+00 0.  1.
        -11    1    3    3    0    0  0.72123909071E+02 -0.24551951420E+03 -0.28130224154E+03  0.38027968813E+03  0.00000000000E+00 0. -1.
         22    1    1    2    0    0 -0.39618069784E+03  0.93222922136E+03  0.63039804826E+03  0.11930683827E+04  0.00000000000E+00 0. -1.
<mgrwt>
<rscale>  0 0.25761544E+04</rscale>
<asrwt>0</asrwt>
<pdfrwt beam="1">  1        1 0.17376115E+00 0.25761544E+04</pdfrwt>
<pdfrwt beam="2">  1       -1 0.22599790E+00 0.25761544E+04</pdfrwt>
<totfact> 0.10671856E+00</totfact>
</mgrwt>
</event>
<event>
 6    1  0.1585031E-006  0.2250255E+04  0.7818608E-02  0.8497797E-01
         -1   -1    0    0    0  501 -0.00000000000E+00  0.00000000000E+00  0.12175633461E+04  0.12175633461E+04  0.00000000000E+00 0.  1.
          1   -1    0    0  501    0  0.00000000000E+00 -0.00000000000E+00 -0.10397092682E+04  0.10397092682E+04  0.00000000000E+00 0. -1.
         23    2    1    2    0    0 -0.33557233321E+03  0.47366659572E+03 -0.87571145999E+03  0.10543722953E+04  0.88665333133E+02 0.  0.
         11    1    3    3    0    0 -0.19166174552E+03  0.30925595573E+03 -0.47951481269E+03  0.60192019939E+03  0.00000000000E+00 0. -1.
        -11    1    3    3    0    0 -0.14391058769E+03  0.16441063999E+03 -0.39619664730E+03  0.45245209594E+03  0.00000000000E+00 0.  1.
         22    1    1    2    0    0  0.33557233321E+03 -0.47366659572E+03  0.10535655378E+04  0.12029003189E+04  0.00000000000E+00 0.  1.
<mgrwt>
<rscale>  0 0.22502550E+04</rscale>
<asrwt>0</asrwt>
<pdfrwt beam="1">  1        1 0.15995527E+00 0.22502550E+04</pdfrwt>
<pdfrwt beam="2">  1       -1 0.18731744E+00 0.22502550E+04</pdfrwt>
<totfact> 0.23612451E+00</totfact>
</mgrwt>
</event>
<event>
 6    1  0.1585031E-006  0.1624132E+04  0.7818608E-02  0.8805859E-01
          1   -1    0    0  501    0  0.00000000000E+00  0.00000000000E+00  0.19734325964E+04  0.19734325964E+04  0.00000000000E+00 0.  1.
         -1   -1    0    0    0  501 -0.00000000000E+00 -0.00000000000E+00 -0.33416444328E+03  0.33416444328E+03  0.00000000000E+00 0. -1.
         23    2    1    2    0    0  0.46646132419E+03 -0.26075167322E+03 -0.41725020307E+02  0.54370485160E+03  0.91084500779E+02 0.  0.
         13    1    3    3    0    0  0.36634342875E+03 -0.17641476930E+03 -0.61772183220E+02  0.41127300086E+03  0.00000000000E+00 0. -1.
        -13    1    3    3    0    0  0.10011789545E+03 -0.84336903921E+02  0.20047162914E+02  0.13243185075E+03  0.00000000000E+00 0.  1.
         22    1    1    2    0    0 -0.46646132419E+03  0.26075167322E+03  0.16809931734E+04  0.17638921881E+04  0.00000000000E+00 0.  1.
<mgrwt>
<rscale>  0 0.16241318E+04</rscale>
<asrwt>0</asrwt>
<pdfrwt beam="1">  1        1 0.30360501E+00 0.16241318E+04</pdfrwt>
<pdfrwt beam="2">  1       -1 0.51409916E-01 0.16241318E+04</pdfrwt>
<totfact> 0.11325795E+01</totfact>
</mgrwt>
</event>
<event>
 6    1  0.1585031E-006  0.1735474E+04  0.7818608E-02  0.8741387E-01
          2   -1    0    0  501    0  0.00000000000E+00  0.00000000000E+00  0.15978920948E+04  0.15978920948E+04  0.00000000000E+00 0.  1.
         -2   -1    0    0    0  501 -0.00000000000E+00 -0.00000000000E+00 -0.47122535357E+03  0.47122535357E+03  0.00000000000E+00 0. -1.
         23    2    1    2    0    0 -0.52063197744E+03 -0.20958554112E+03 -0.22031272629E+03  0.60989250309E+03  0.91909808938E+02 0.  0.
         13    1    3    3    0    0 -0.31196226169E+03 -0.13159817988E+03 -0.84422057631E+02  0.34894930503E+03  0.00000000000E+00 0.  1.
        -13    1    3    3    0    0 -0.20866971575E+03 -0.77987361241E+02 -0.13589066866E+03  0.26094319806E+03  0.00000000000E+00 0. -1.
         22    1    1    2    0    0  0.52063197744E+03  0.20958554112E+03  0.13469794676E+04  0.14592249453E+04  0.00000000000E+00 0.  1.
<mgrwt>
<rscale>  0 0.17354737E+04</rscale>
<asrwt>0</asrwt>
<pdfrwt beam="1">  1        2 0.24582955E+00 0.17354737E+04</pdfrwt>
<pdfrwt beam="2">  1       -2 0.72496209E-01 0.17354737E+04</pdfrwt>
<totfact> 0.18263278E+01</totfact>
</mgrwt>
</event>
<event>
 6    1  0.1585031E-006  0.2266999E+04  0.7818608E-02  0.8491048E-01
         -1   -1    0    0    0  501 -0.00000000000E+00  0.00000000000E+00  0.69106182554E+03  0.69106182554E+03  0.00000000000E+00 0.  1.
          1   -1    0    0  501    0  0.00000000000E+00 -0.00000000000E+00 -0.18591977941E+04  0.18591977941E+04  0.00000000000E+00 0. -1.
         23    2    1    2    0    0 -0.76087927996E+03 -0.31122771339E+03  0.29003075454E+03  0.87632707601E+03  0.89617728775E+02 0.  0.
         11    1    3    3    0    0 -0.53789262114E+03 -0.25859164518E+03  0.19009838348E+03  0.62636691023E+03  0.00000000000E+00 0. -1.
        -11    1    3    3    0    0 -0.22298665883E+03 -0.52636068211E+02  0.99932371054E+02  0.24996016578E+03  0.00000000000E+00 0.  1.
         22    1    1    2    0    0  0.76087927996E+03  0.31122771339E+03 -0.14581667231E+04  0.16739325436E+04  0.00000000000E+00 0. -1.
<mgrwt>
<rscale>  0 0.22669986E+04</rscale>
<asrwt>0</asrwt>
<pdfrwt beam="1">  1        1 0.28603043E+00 0.22669986E+04</pdfrwt>
<pdfrwt beam="2">  1       -1 0.10631721E+00 0.22669986E+04</pdfrwt>
<totfact> 0.27831383E+00</totfact>
</mgrwt>
</event>
<event>
 6    1  0.1585031E-006  0.1465734E+04  0.7818608E-02  0.8907564E-01
         -1   -1    0    0    0  501 -0.00000000000E+00  0.00000000000E+00  0.21296226196E+03  0.21296226196E+03  0.00000000000E+00 0.  1.
          1   -1    0    0  501    0  0.00000000000E+00 -0.00000000000E+00 -0.25220161623E+04  0.25220161623E+04  0.00000000000E+00 0. -1.
         23    2    1    2    0    0  0.13299851112E+03  0.56606215586E+03 -0.19824804779E+04  0.20680712579E+04  0.92600834103E+02 0.  0.
         11    1    3    3    0    0  0.42733647523E+01  0.20997259439E+03 -0.68541040416E+03  0.71686412533E+03  0.00000000000E+00 0. -1.
        -11    1    3    3    0    0  0.12872514636E+03  0.35608956147E+03 -0.12970700737E+04  0.13512071326E+04  0.00000000000E+00 0.  1.
         22    1    1    2    0    0 -0.13299851112E+03 -0.56606215586E+03 -0.32657342248E+03  0.66690716635E+03  0.00000000000E+00 0.  1.
<mgrwt>
<rscale>  0 0.14657343E+04</rscale>
<asrwt>0</asrwt>
<pdfrwt beam="1">  1        1 0.38800249E+00 0.14657343E+04</pdfrwt>
<pdfrwt beam="2">  1       -1 0.32763425E-01 0.14657343E+04</pdfrwt>
<totfact> 0.11111189E+01</totfact>
</mgrwt>
</event>
<event>
 6    1  0.1585031E-006  0.7308976E+03  0.7818608E-02  0.9665805E-01
         -4   -1    0    0    0  501 -0.00000000000E+00  0.00000000000E+00  0.40994657228E+03  0.40994657228E+03  0.00000000000E+00 0.  1.
          4   -1    0    0  501    0  0.00000000000E+00 -0.00000000000E+00 -0.32578102424E+03  0.32578102424E+03  0.00000000000E+00 0. -1.
         23    2    1    2    0    0 -0.15426844986E+01  0.20856439923E+03  0.33832910801E+03  0.40694103395E+03  0.87366648582E+02 0.  0.
         13    1    3    3    0    0 -0.19492815766E+02  0.15844941636E+03  0.18354563235E+03  0.24325950458E+03  0.00000000000E+00 0.  1.
        -13    1    3    3    0    0  0.17950131268E+02  0.50114982866E+02  0.15478347567E+03  0.16368152938E+03  0.00000000000E+00 0. -1.
         22    1    1    2    0    0  0.15426844986E+01 -0.20856439923E+03 -0.25416355998E+03  0.32878656256E+03  0.00000000000E+00 0. -1.
<mgrwt>
<rscale>  0 0.73089757E+03</rscale>
<asrwt>0</asrwt>
<pdfrwt beam="1">  1        4 0.50120158E-01 0.73089757E+03</pdfrwt>
<pdfrwt beam="2">  1       -4 0.63068703E-01 0.73089757E+03</pdfrwt>
<totfact> 0.17944805E+01</totfact>
</mgrwt>
</event>
<event>
 6    1  0.1585031E-006  0.1481882E+04  0.7818608E-02  0.8896591E-01
         -2   -1    0    0    0  501 -0.00000000000E+00  0.00000000000E+00  0.44633508549E+03  0.44633508549E+03  0.00000000000E+00 0.  1.
          2   -1    0    0  501    0  0.00000000000E+00 -0.00000000000E+00 -0.12300037783E+04  0.12300037783E+04  0.00000000000E+00 0. -1.
         23    2    1    2    0    0  0.31130400878E+03 -0.29547250871E+03 -0.10726364666E+04  0.11589255245E+04  0.91352024940E+02 0.  0.
         13    1    3    3    0    0  0.93404655376E+02 -0.13738106983E+03 -0.48213970885E+03  0.50995753435E+03  0.00000000000E+00 0. -1.
        -13    1    3    3    0    0  0.21789935341E+03 -0.15809143888E+03 -0.59049675780E+03  0.64896799015E+03  0.00000000000E+00 0.  1.
         22    1    1    2    0    0 -0.31130400878E+03  0.29547250871E+03  0.28896777388E+03  0.51741333924E+03  0.00000000000E+00 0.  1.
<mgrwt>
<rscale>  0 0.14818824E+04</rscale>
<asrwt>0</asrwt>
<pdfrwt beam="1">  1        2 0.18923135E+00 0.14818824E+04</pdfrwt>
<pdfrwt beam="2">  1       -2 0.68666936E-01 0.14818824E+04</pdfrwt>
<totfact> 0.34093425E+01</totfact>
</mgrwt>
</event>
<event>
 6    1  0.1585031E-006  0.5915670E+04  0.7818608E-02  0.7700946E-01
         -2   -1    0    0    0  501 -0.00000000000E+00  0.00000000000E+00  0.33691542648E+04  0.33691542648E+04  0.00000000000E+00 0.  1.
          2   -1    0    0  501    0  0.00000000000E+00 -0.00000000000E+00 -0.25967314126E+04  0.25967314126E+04  0.00000000000E+00 0. -1.
         23    2    1    2    0    0  0.56113129108E+03 -0.72651890805E+03 -0.24485531074E+04  0.26166493193E+04  0.93505565634E+02 0.  0.
         11    1    3    3    0    0  0.49124398202E+03 -0.62992399951E+03 -0.22104342082E+04  0.23503498216E+04  0.00000000000E+00 0.  1.
        -11    1    3    3    0    0  0.69887309066E+02 -0.96594908533E+02 -0.23811889918E+03  0.26629949769E+03  0.00000000000E+00 0. -1.
         22    1    1    2    0    0 -0.56113129108E+03  0.72651890805E+03  0.32209759596E+04  0.33492363580E+04  0.00000000000E+00 0.  1.
<mgrwt>
<rscale>  0 0.59156703E+04</rscale>
<asrwt>0</asrwt>
<pdfrwt beam="1">  1        2 0.39949714E+00 0.59156703E+04</pdfrwt>
<pdfrwt beam="2">  1       -2 0.51833142E+00 0.59156703E+04</pdfrwt>
<totfact> 0.26827685E-03</totfact>
</mgrwt>
</event>
<event>
 6    1  0.1585031E-006  0.2397510E+04  0.7818608E-02  0.8440436E-01
          1   -1    0    0  501    0  0.00000000000E+00  0.00000000000E+00  0.15498726102E+04  0.15498726102E+04  0.00000000000E+00 0. -1.
         -1   -1    0    0    0  501 -0.00000000000E+00 -0.00000000000E+00 -0.92718169414E+03  0.92718169414E+03  0.00000000000E+00 0.  1.
         23    2    1    2    0    0 -0.34068355009E+02  0.35571383795E+03  0.14920257053E+04  0.15371415619E+04  0.94712664175E+02 0.  0.
         13    1    3    3    0    0 -0.57404020303E+02  0.14006392183E+03  0.68003878471E+03  0.69668204545E+03  0.00000000000E+00 0. -1.
        -13    1    3    3    0    0  0.23335665295E+02  0.21564991611E+03  0.81198692062E+03  0.84045951649E+03  0.00000000000E+00 0.  1.
         22    1    1    2    0    0  0.34068355009E+02 -0.35571383795E+03 -0.86933478931E+03  0.93991274235E+03  0.00000000000E+00 0.  1.
<mgrwt>
<rscale>  0 0.23975100E+04</rscale>
<asrwt>0</asrwt>
<pdfrwt beam="1">  1        1 0.23844194E+00 0.23975100E+04</pdfrwt>
<pdfrwt beam="2">  1       -1 0.14264334E+00 0.23975100E+04</pdfrwt>
<totfact> 0.21609967E+00</totfact>
</mgrwt>
</event>
<event>
 6    1  0.1585031E-006  0.3854152E+04  0.7818608E-02  0.8034633E-01
         -1   -1    0    0    0  501 -0.00000000000E+00  0.00000000000E+00  0.34082511643E+04  0.34082511643E+04  0.00000000000E+00 0.  1.
          1   -1    0    0  501    0  0.00000000000E+00 -0.00000000000E+00 -0.10895975308E+04  0.10895975308E+04  0.00000000000E+00 0. -1.
         23    2    1    2    0    0 -0.12549256972E+04 -0.70330722402E+03 -0.33443546258E+03  0.14798425142E+04  0.92775164775E+02 0.  0.
         11    1    3    3    0    0 -0.72259914837E+03 -0.45386499617E+03 -0.18146675592E+03  0.87239506388E+03  0.00000000000E+00 0. -1.
        -11    1    3    3    0    0 -0.53232654884E+03 -0.24944222785E+03 -0.15296870666E+03  0.60744745028E+03  0.00000000000E+00 0.  1.
         22    1    1    2    0    0  0.12549256972E+04  0.70330722402E+03  0.26530890960E+04  0.30180061810E+04  0.00000000000E+00 0.  1.
<mgrwt>
<rscale>  0 0.38541521E+04</rscale>
<asrwt>0</asrwt>
<pdfrwt beam="1">  1        1 0.16763039E+00 0.38541521E+04</pdfrwt>
<pdfrwt beam="2">  1       -1 0.52434633E+00 0.38541521E+04</pdfrwt>
<totfact> 0.10743522E-02</totfact>
</mgrwt>
</event>
<event>
 6    1  0.1585031E-006  0.9525917E+03  0.7818608E-02  0.9362126E-01
          2   -1    0    0  501    0  0.00000000000E+00  0.00000000000E+00  0.23132640400E+04  0.23132640400E+04  0.00000000000E+00 0. -1.
         -2   -1    0    0    0  501 -0.00000000000E+00 -0.00000000000E+00 -0.98068235481E+02  0.98068235481E+02  0.00000000000E+00 0.  1.
         23    2    1    2    0    0 -0.33337275947E+03 -0.32263124343E+03  0.13366841686E+04  0.14178479976E+04  0.91323938091E+02 0.  0.
         13    1    3    3    0    0 -0.69169728783E+02 -0.22264655692E+02  0.19346819254E+03  0.20666423928E+03  0.00000000000E+00 0.  1.
        -13    1    3    3    0    0 -0.26420303069E+03 -0.30036658774E+03  0.11432159761E+04  0.12111837583E+04  0.00000000000E+00 0. -1.
         22    1    1    2    0    0  0.33337275947E+03  0.32263124343E+03  0.87851163592E+03  0.99348427790E+03  0.00000000000E+00 0.  1.
<mgrwt>
<rscale>  0 0.95259167E+03</rscale>
<asrwt>0</asrwt>
<pdfrwt beam="1">  1        2 0.35588673E+00 0.95259167E+03</pdfrwt>
<pdfrwt beam="2">  1       -2 0.15087423E-01 0.95259167E+03</pdfrwt>
<totfact> 0.15667320E+02</totfact>
</mgrwt>
</event>
<event>
 6    1  0.1585031E-006  0.4294514E+04  0.7818608E-02  0.7947633E-01
         -2   -1    0    0    0  501 -0.00000000000E+00  0.00000000000E+00  0.14695275937E+04  0.14695275937E+04  0.00000000000E+00 0.  1.
          2   -1    0    0  501    0  0.00000000000E+00 -0.00000000000E+00 -0.31375474463E+04  0.31375474463E+04  0.00000000000E+00 0. -1.
         23    2    1    2    0    0 -0.19661139843E+04 -0.75395649864E+03 -0.38767739213E+03  0.21426620436E+04  0.81561460541E+02 0.  0.
         11    1    3    3    0    0 -0.15922703478E+04 -0.58913358659E+03 -0.28667455735E+03  0.17217971847E+04  0.00000000000E+00 0. -1.
        -11    1    3    3    0    0 -0.37384363650E+03 -0.16482291205E+03 -0.10100283477E+03  0.42086485898E+03  0.00000000000E+00 0.  1.
         22    1    1    2    0    0  0.19661139843E+04  0.75395649864E+03 -0.12803424605E+04  0.24644129965E+04  0.00000000000E+00 0.  1.
<mgrwt>
<rscale>  0 0.42945140E+04</rscale>
<asrwt>0</asrwt>
<pdfrwt beam="1">  1        2 0.48269960E+00 0.42945140E+04</pdfrwt>
<pdfrwt beam="2">  1       -2 0.22608117E+00 0.42945140E+04</pdfrwt>
<totfact> 0.99141244E-02</totfact>
</mgrwt>
</event>
<event>
 6    1  0.1585031E-006  0.9789272E+03  0.7818608E-02  0.9331964E-01
          2   -1    0    0  501    0  0.00000000000E+00  0.00000000000E+00  0.47747582566E+03  0.47747582566E+03  0.00000000000E+00 0. -1.
         -2   -1    0    0    0  501 -0.00000000000E+00 -0.00000000000E+00 -0.50175238015E+03  0.50175238015E+03  0.00000000000E+00 0.  1.
         23    2    1    2    0    0 -0.21653077452E+03 -0.43156008030E+03 -0.61613139372E+02  0.49495173539E+03  0.89729383163E+02 0.  0.
         13    1    3    3    0    0 -0.66309587433E+02 -0.57971843937E+02 -0.18410159943E+02  0.89981276186E+02  0.00000000000E+00 0. -1.
        -13    1    3    3    0    0 -0.15022118709E+03 -0.37358823637E+03 -0.43202979429E+02  0.40497045921E+03  0.00000000000E+00 0.  1.
         22    1    1    2    0    0  0.21653077452E+03  0.43156008030E+03  0.37336584878E+02  0.48427647041E+03  0.00000000000E+00 0. -1.
<mgrwt>
<rscale>  0 0.97892723E+03</rscale>
<asrwt>0</asrwt>
<pdfrwt beam="1">  1        2 0.73457820E-01 0.97892723E+03</pdfrwt>
<pdfrwt beam="2">  1       -2 0.77192673E-01 0.97892723E+03</pdfrwt>
<totfact> 0.97312045E+01</totfact>
</mgrwt>
</event>
<event>
 6    1  0.1585031E-006  0.1406981E+04  0.7818608E-02  0.8948781E-01
         -1   -1    0    0    0  501 -0.00000000000E+00  0.00000000000E+00  0.20872979930E+03  0.20872979930E+03  0.00000000000E+00 0.  1.
          1   -1    0    0  501    0  0.00000000000E+00 -0.00000000000E+00 -0.23710036878E+04  0.23710036878E+04  0.00000000000E+00 0. -1.
         23    2    1    2    0    0 -0.62635042349E+03  0.17379816361E+02 -0.50371891479E+03  0.80676379988E+03  0.67217353792E+02 0.  0.
         13    1    3    3    0    0 -0.44432533466E+03  0.23618661289E+02 -0.32004921340E+03  0.54810066884E+03  0.00000000000E+00 0. -1.
        -13    1    3    3    0    0 -0.18202508882E+03 -0.62388449277E+01 -0.18366970140E+03  0.25866313104E+03  0.00000000000E+00 0.  1.
         22    1    1    2    0    0  0.62635042349E+03 -0.17379816361E+02 -0.16585549737E+04  0.17729696872E+04  0.00000000000E+00 0. -1.
<mgrwt>
<rscale>  0 0.14069813E+04</rscale>
<asrwt>0</asrwt>
<pdfrwt beam="1">  1        1 0.36476981E+00 0.14069813E+04</pdfrwt>
<pdfrwt beam="2">  1       -1 0.32112276E-01 0.14069813E+04</pdfrwt>
<totfact> 0.14707464E+01</totfact>
</mgrwt>
</event>
<event>
 6    1  0.1585031E-006  0.4741059E+04  0.7818608E-02  0.7869742E-01
         -2   -1    0    0    0  501 -0.00000000000E+00  0.00000000000E+00  0.29856599963E+04  0.29856599963E+04  0.00000000000E+00 0. -1.
          2   -1    0    0  501    0  0.00000000000E+00 -0.00000000000E+00 -0.18821334266E+04  0.18821334266E+04  0.00000000000E+00 0.  1.
         23    2    1    2    0    0  0.22960205600E+04 -0.38303867215E+03  0.10075707040E+04  0.25380645622E+04  0.90243904998E+02 0.  0.
         13    1    3    3    0    0  0.12151580230E+04 -0.17356433099E+03  0.56892168168E+03  0.13529247864E+04  0.00000000000E+00 0. -1.
        -13    1    3    3    0    0  0.10808625370E+04 -0.20947434116E+03  0.43864902232E+03  0.11851397758E+04  0.00000000000E+00 0.  1.
         22    1    1    2    0    0 -0.22960205600E+04  0.38303867215E+03  0.95955865741E+02  0.23297288607E+04  0.00000000000E+00 0. -1.
<mgrwt>
<rscale>  0 0.47410592E+04</rscale>
<asrwt>0</asrwt>
<pdfrwt beam="1">  1        2 0.28955899E+00 0.47410592E+04</pdfrwt>
<pdfrwt beam="2">  1       -2 0.45933231E+00 0.47410592E+04</pdfrwt>
<totfact> 0.17432876E-02</totfact>
</mgrwt>
</event>
<event>
 6    1  0.1585031E-006  0.1133959E+04  0.7818608E-02  0.9172711E-01
          1   -1    0    0  501    0  0.00000000000E+00  0.00000000000E+00  0.11055498222E+04  0.11055498222E+04  0.00000000000E+00 0. -1.
         -1   -1    0    0    0  501 -0.00000000000E+00 -0.00000000000E+00 -0.29077453751E+03  0.29077453751E+03  0.00000000000E+00 0.  1.
         23    2    1    2    0    0  0.15115008452E+03 -0.71491594982E+02  0.10723208798E+04  0.10892622654E+04  0.93074256701E+02 0.  0.
         13    1    3    3    0    0  0.22032089748E+02 -0.50318937968E+02  0.44964966068E+03  0.45299252294E+03  0.00000000000E+00 0.  1.
        -13    1    3    3    0    0  0.12911799477E+03 -0.21172657014E+02  0.62267121917E+03  0.63626974245E+03  0.00000000000E+00 0. -1.
         22    1    1    2    0    0 -0.15115008452E+03  0.71491594982E+02 -0.25754559514E+03  0.30706209434E+03  0.00000000000E+00 0.  1.
<mgrwt>
<rscale>  0 0.11339590E+04</rscale>
<asrwt>0</asrwt>
<pdfrwt beam="1">  1        1 0.17008459E+00 0.11339590E+04</pdfrwt>
<pdfrwt beam="2">  1       -1 0.44734545E-01 0.11339590E+04</pdfrwt>
<totfact> 0.61792183E+01</totfact>
</mgrwt>
</event>
<event>
 6    1  0.1585031E-006  0.1185328E+04  0.7818608E-02  0.9125796E-01
          1   -1    0    0  501    0  0.00000000000E+00  0.00000000000E+00  0.26659127447E+04  0.26659127447E+04  0.00000000000E+00 0. -1.
         -1   -1    0    0    0  501 -0.00000000000E+00 -0.00000000000E+00 -0.13175628371E+03  0.13175628371E+03  0.00000000000E+00 0.  1.
         23    2    1    2    0    0 -0.35642429779E+03 -0.19635245225E+03  0.22802589178E+04  0.23180269452E+04  0.89864458307E+02 0.  0.
         11    1    3    3    0    0 -0.19590754310E+03 -0.57169266821E+02  0.10812862517E+04  0.11003763214E+04  0.00000000000E+00 0. -1.
        -11    1    3    3    0    0 -0.16051675469E+03 -0.13918318543E+03  0.11989726661E+04  0.12176506238E+04  0.00000000000E+00 0.  1.
         22    1    1    2    0    0  0.35642429779E+03  0.19635245225E+03  0.25389754320E+03  0.47964208323E+03  0.00000000000E+00 0.  1.
<mgrwt>
<rscale>  0 0.11853282E+04</rscale>
<asrwt>0</asrwt>
<pdfrwt beam="1">  1        1 0.41014038E+00 0.11853282E+04</pdfrwt>
<pdfrwt beam="2">  1       -1 0.20270199E-01 0.11853282E+04</pdfrwt>
<totfact> 0.20732431E+01</totfact>
</mgrwt>
</event>
<event>
 6    1  0.1585031E-006  0.9345794E+03  0.7818608E-02  0.9383359E-01
         -2   -1    0    0    0  501 -0.00000000000E+00  0.00000000000E+00  0.13668935112E+04  0.13668935112E+04  0.00000000000E+00 0. -1.
          2   -1    0    0  501    0  0.00000000000E+00 -0.00000000000E+00 -0.15974885873E+03  0.15974885873E+03  0.00000000000E+00 0.  1.
         23    2    1    2    0    0 -0.30320795398E+03 -0.17237014060E+03  0.11299363947E+03  0.37824654619E+03  0.93039552940E+02 0.  0.
         11    1    3    3    0    0 -0.95405078904E+02 -0.29775203302E+02 -0.47916779566E+01  0.10005824299E+03  0.00000000000E+00 0.  1.
        -11    1    3    3    0    0 -0.20780287508E+03 -0.14259493730E+03  0.11778531742E+03  0.27818830320E+03  0.00000000000E+00 0. -1.
         22    1    1    2    0    0  0.30320795398E+03  0.17237014060E+03  0.10941510130E+04  0.11483958237E+04  0.00000000000E+00 0. -1.
<mgrwt>
<rscale>  0 0.93457943E+03</rscale>
<asrwt>0</asrwt>
<pdfrwt beam="1">  1        2 0.24576748E-01 0.93457943E+03</pdfrwt>
<pdfrwt beam="2">  1       -2 0.21029130E+00 0.93457943E+03</pdfrwt>
<totfact> 0.25631909E+01</totfact>
</mgrwt>
</event>
<event>
 6    1  0.1585031E-006  0.2555903E+04  0.7818608E-02  0.8383336E-01
         -2   -1    0    0    0  501 -0.00000000000E+00  0.00000000000E+00  0.39576559333E+03  0.39576559333E+03  0.00000000000E+00 0.  1.
          2   -1    0    0  501    0  0.00000000000E+00 -0.00000000000E+00 -0.41265840537E+04  0.41265840537E+04  0.00000000000E+00 0. -1.
         23    2    1    2    0    0 -0.81498707136E+03  0.20158282257E+03 -0.16664734717E+03  0.86063484586E+03  0.89896822807E+02 0.  0.
         11    1    3    3    0    0 -0.10890577473E+03  0.57447857087E+02 -0.13179390203E+02  0.12383222674E+03  0.00000000000E+00 0.  1.
        -11    1    3    3    0    0 -0.70608129664E+03  0.14413496548E+03 -0.15346795696E+03  0.73680261913E+03  0.00000000000E+00 0. -1.
         22    1    1    2    0    0  0.81498707136E+03 -0.20158282257E+03 -0.35641711132E+04  0.36617148012E+04  0.00000000000E+00 0. -1.
<mgrwt>
<rscale>  0 0.25559030E+04</rscale>
<asrwt>0</asrwt>
<pdfrwt beam="1">  1        2 0.63485905E+00 0.25559030E+04</pdfrwt>
<pdfrwt beam="2">  1       -2 0.60887018E-01 0.25559030E+04</pdfrwt>
<totfact> 0.60111431E-01</totfact>
</mgrwt>
</event>
<event>
 6    1  0.1585031E-006  0.2444723E+04  0.7818608E-02  0.8422947E-01
         -2   -1    0    0    0  501 -0.00000000000E+00  0.00000000000E+00  0.66420844809E+03  0.66420844809E+03  0.00000000000E+00 0.  1.
          2   -1    0    0  501    0  0.00000000000E+00 -0.00000000000E+00 -0.22495471355E+04  0.22495471355E+04  0.00000000000E+00 0. -1.
         23    2    1    2    0    0  0.42080886076E+03 -0.10512803725E+04 -0.25066003736E+03  0.11634305801E+04  0.92031199544E+02 0.  0.
         13    1    3    3    0    0  0.23815194092E+03 -0.64939359648E+03 -0.11183185779E+03  0.70066736369E+03  0.00000000000E+00 0.  1.
        -13    1    3    3    0    0  0.18265691984E+03 -0.40188677597E+03 -0.13882817958E+03  0.46276321646E+03  0.00000000000E+00 0. -1.
         22    1    1    2    0    0 -0.42080886076E+03  0.10512803725E+04 -0.13346786500E+04  0.17503250034E+04  0.00000000000E+00 0. -1.
<mgrwt>
<rscale>  0 0.24447235E+04</rscale>
<asrwt>0</asrwt>
<pdfrwt beam="1">  1        2 0.34608417E+00 0.24447235E+04</pdfrwt>
<pdfrwt beam="2">  1       -2 0.10218592E+00 0.24447235E+04</pdfrwt>
<totfact> 0.34028807E+00</totfact>
</mgrwt>
</event>
<event>
 6    1  0.1585031E-006  0.2090525E+04  0.7818608E-02  0.8565429E-01
         -1   -1    0    0    0  501 -0.00000000000E+00  0.00000000000E+00  0.85839530889E+03  0.85839530889E+03  0.00000000000E+00 0.  1.
          1   -1    0    0  501    0  0.00000000000E+00 -0.00000000000E+00 -0.12728093496E+04  0.12728093496E+04  0.00000000000E+00 0. -1.
         23    2    1    2    0    0 -0.15913388672E+03 -0.90098919011E+03  0.30353844127E+03  0.96820814907E+03  0.90478284706E+02 0.  0.
         13    1    3    3    0    0 -0.75339228108E+02 -0.62962318316E+03  0.23303776905E+03  0.67557971689E+03  0.00000000000E+00 0. -1.
        -13    1    3    3    0    0 -0.83794658608E+02 -0.27136600695E+03  0.70500672212E+02  0.29262843218E+03  0.00000000000E+00 0.  1.
         22    1    1    2    0    0  0.15913388672E+03  0.90098919011E+03 -0.71795248201E+03  0.11629965095E+04  0.00000000000E+00 0. -1.
<mgrwt>
<rscale>  0 0.20905249E+04</rscale>
<asrwt>0</asrwt>
<pdfrwt beam="1">  1        1 0.19581682E+00 0.20905249E+04</pdfrwt>
<pdfrwt beam="2">  1       -1 0.13206082E+00 0.20905249E+04</pdfrwt>
<totfact> 0.42440343E+00</totfact>
</mgrwt>
</event>
<event>
 6    1  0.1585031E-006  0.2140830E+04  0.7818608E-02  0.8543468E-01
         -2   -1    0    0    0  501 -0.00000000000E+00  0.00000000000E+00  0.51140873205E+03  0.51140873205E+03  0.00000000000E+00 0.  1.
          2   -1    0    0  501    0  0.00000000000E+00 -0.00000000000E+00 -0.22404558356E+04  0.22404558356E+04  0.00000000000E+00 0. -1.
         23    2    1    2    0    0  0.40418119664E+02  0.72908254142E+03 -0.18687788277E+04  0.20084132032E+04  0.90522435585E+02 0.  0.
         11    1    3    3    0    0  0.14172737171E+02  0.33198905403E+03 -0.72911427423E+03  0.80126476483E+03  0.00000000000E+00 0. -1.
        -11    1    3    3    0    0  0.26245382493E+02  0.39709348739E+03 -0.11396645535E+04  0.12071484384E+04  0.00000000000E+00 0.  1.
         22    1    1    2    0    0 -0.40418119664E+02 -0.72908254142E+03  0.13973172413E+03  0.74345136446E+03  0.00000000000E+00 0.  1.
<mgrwt>
<rscale>  0 0.21408304E+04</rscale>
<asrwt>0</asrwt>
<pdfrwt beam="1">  1        2 0.34468551E+00 0.21408304E+04</pdfrwt>
<pdfrwt beam="2">  1       -2 0.78678267E-01 0.21408304E+04</pdfrwt>
<totfact> 0.64574606E+00</totfact>
</mgrwt>
</event>
<event>
 6    1  0.1585031E-006  0.3270895E+04  0.7818608E-02  0.8170341E-01
         -1   -1    0    0    0  501 -0.00000000000E+00  0.00000000000E+00  0.10739183624E+04  0.10739183624E+04  0.00000000000E+00 0.  1.
          1   -1    0    0  501    0  0.00000000000E+00 -0.00000000000E+00 -0.24905884915E+04  0.24905884915E+04  0.00000000000E+00 0. -1.
         23    2    1    2    0    0 -0.14540039903E+04  0.51867964832E+03 -0.12481300153E+03  0.15515361589E+04  0.92357921438E+02 0.  0.
         11    1    3    3    0    0 -0.91329950243E+03  0.35948413986E+03 -0.48010237327E+02  0.98267482457E+03  0.00000000000E+00 0.  1.
        -11    1    3    3    0    0 -0.54070448783E+03  0.15919550846E+03 -0.76802764208E+02  0.56886133430E+03  0.00000000000E+00 0. -1.
         22    1    1    2    0    0  0.14540039903E+04 -0.51867964832E+03 -0.12918571275E+04  0.20129706950E+04  0.00000000000E+00 0. -1.
<mgrwt>
<rscale>  0 0.32708951E+04</rscale>
<asrwt>0</asrwt>
<pdfrwt beam="1">  1        1 0.38316746E+00 0.32708951E+04</pdfrwt>
<pdfrwt beam="2">  1       -1 0.16521821E+00 0.32708951E+04</pdfrwt>
<totfact> 0.30527290E-01</totfact>
</mgrwt>
</event>
<event>
 6    1  0.1585031E-006  0.1926826E+04  0.7818608E-02  0.8641618E-01
         -1   -1    0    0    0  501 -0.00000000000E+00  0.00000000000E+00  0.46179970065E+03  0.46179970065E+03  0.00000000000E+00 0.  1.
          1   -1    0    0  501    0  0.00000000000E+00 -0.00000000000E+00 -0.20098852594E+04  0.20098852594E+04  0.00000000000E+00 0. -1.
         23    2    1    2    0    0 -0.40005830087E+03 -0.41336828236E+03  0.21212443691E+03  0.61985904766E+03  0.91150870956E+02 0.  0.
         13    1    3    3    0    0 -0.72095085304E+02 -0.56523201306E+02  0.68417554423E+02  0.11433956168E+03  0.00000000000E+00 0.  1.
        -13    1    3    3    0    0 -0.32796321556E+03 -0.35684508105E+03  0.14370688249E+03  0.50551948598E+03  0.00000000000E+00 0. -1.
         22    1    1    2    0    0  0.40005830087E+03  0.41336828236E+03 -0.17602099957E+04  0.18518259124E+04  0.00000000000E+00 0. -1.
<mgrwt>
<rscale>  0 0.19268258E+04</rscale>
<asrwt>0</asrwt>
<pdfrwt beam="1">  1        1 0.30921312E+00 0.19268258E+04</pdfrwt>
<pdfrwt beam="2">  1       -1 0.71046107E-01 0.19268258E+04</pdfrwt>
<totfact> 0.54811791E+00</totfact>
</mgrwt>
</event>
<event>
 6    1  0.1585031E-006  0.2867267E+04  0.7818608E-02  0.8282684E-01
          2   -1    0    0  501    0  0.00000000000E+00  0.00000000000E+00  0.14243680014E+04  0.14243680014E+04  0.00000000000E+00 0. -1.
         -2   -1    0    0    0  501 -0.00000000000E+00 -0.00000000000E+00 -0.14429596822E+04  0.14429596822E+04  0.00000000000E+00 0.  1.
         23    2    1    2    0    0  0.10148901267E+03 -0.11838859234E+04  0.79033732015E+03  0.14298813270E+04  0.89675137091E+02 0.  0.
         13    1    3    3    0    0  0.83093187828E+00 -0.23625756419E+03  0.12182060800E+03  0.26581683095E+03  0.00000000000E+00 0. -1.
        -13    1    3    3    0    0  0.10065808080E+03 -0.94762835924E+03  0.66851671216E+03  0.11640644960E+04  0.00000000000E+00 0.  1.
         22    1    1    2    0    0 -0.10148901267E+03  0.11838859234E+04 -0.80892900102E+03  0.14374463566E+04  0.00000000000E+00 0.  1.
<mgrwt>
<rscale>  0 0.28672674E+04</rscale>
<asrwt>0</asrwt>
<pdfrwt beam="1">  1        2 0.21913354E+00 0.28672674E+04</pdfrwt>
<pdfrwt beam="2">  1       -2 0.22199380E+00 0.28672674E+04</pdfrwt>
<totfact> 0.11643185E+00</totfact>
</mgrwt>
</event>
<event>
 6    1  0.1585031E-006  0.9327754E+03  0.7818608E-02  0.9385513E-01
         -1   -1    0    0    0  501 -0.00000000000E+00  0.00000000000E+00  0.30801799188E+03  0.30801799188E+03  0.00000000000E+00 0.  1.
          1   -1    0    0  501    0  0.00000000000E+00 -0.00000000000E+00 -0.70618432008E+03  0.70618432008E+03  0.00000000000E+00 0. -1.
         23    2    1    2    0    0 -0.25653633184E+03 -0.10318056641E+03 -0.60349245781E+03  0.66979566518E+03  0.89252269539E+02 0.  0.
         11    1    3    3    0    0 -0.18463032357E+03 -0.84133675544E+02 -0.33935832193E+03  0.39538702862E+03  0.00000000000E+00 0. -1.
        -11    1    3    3    0    0 -0.71906008275E+02 -0.19046890864E+02 -0.26413413589E+03  0.27440863656E+03  0.00000000000E+00 0.  1.
         22    1    1    2    0    0  0.25653633184E+03  0.10318056641E+03  0.20532612962E+03  0.34440664678E+03  0.00000000000E+00 0.  1.
<mgrwt>
<rscale>  0 0.93277538E+03</rscale>
<asrwt>0</asrwt>
<pdfrwt beam="1">  1        1 0.10864374E+00 0.93277538E+03</pdfrwt>
<pdfrwt beam="2">  1       -1 0.47387384E-01 0.93277538E+03</pdfrwt>
<totfact> 0.12014833E+02</totfact>
</mgrwt>
</event>
<event>
 6    1  0.1585031E-006  0.1960279E+04  0.7818608E-02  0.8625420E-01
         -1   -1    0    0    0  501 -0.00000000000E+00  0.00000000000E+00  0.40818900721E+03  0.40818900721E+03  0.00000000000E+00 0.  1.
          1   -1    0    0  501    0  0.00000000000E+00 -0.00000000000E+00 -0.23535018763E+04  0.23535018763E+04  0.00000000000E+00 0. -1.
         23    2    1    2    0    0  0.60178477474E+03  0.17808188961E+03  0.81996338156E+02  0.63946547223E+03  0.91294119120E+02 0.  0.
         13    1    3    3    0    0  0.37550010712E+03  0.11797206356E+03  0.71500103516E+01  0.39366084499E+03  0.00000000000E+00 0.  1.
        -13    1    3    3    0    0  0.22628466761E+03  0.60109826054E+02  0.74846327805E+02  0.24580462723E+03  0.00000000000E+00 0. -1.
         22    1    1    2    0    0 -0.60178477474E+03 -0.17808188961E+03 -0.20273092073E+04  0.21222254113E+04  0.00000000000E+00 0. -1.
<mgrwt>
<rscale>  0 0.19602792E+04</rscale>
<asrwt>0</asrwt>
<pdfrwt beam="1">  1        1 0.36207722E+00 0.19602792E+04</pdfrwt>
<pdfrwt beam="2">  1       -1 0.62798308E-01 0.19602792E+04</pdfrwt>
<totfact> 0.40956028E+00</totfact>
</mgrwt>
</event>
<event>
 6    1  0.1585031E-006  0.2975911E+04  0.7818608E-02  0.8250643E-01
         -1   -1    0    0    0  501 -0.00000000000E+00  0.00000000000E+00  0.12675640787E+04  0.12675640787E+04  0.00000000000E+00 0.  1.
          1   -1    0    0  501    0  0.00000000000E+00 -0.00000000000E+00 -0.17466662868E+04  0.17466662868E+04  0.00000000000E+00 0. -1.
         23    2    1    2    0    0 -0.87359820684E+03 -0.27557461454E+02 -0.14577325737E+04  0.17021135134E+04  0.90955568593E+02 0.  0.
         11    1    3    3    0    0 -0.86016278331E+03 -0.23350770573E+02 -0.14052203947E+04  0.16477468343E+04  0.00000000000E+00 0. -1.
        -11    1    3    3    0    0 -0.13435423528E+02 -0.42066908810E+01 -0.52512179075E+02  0.54366679177E+02  0.00000000000E+00 0.  1.
         22    1    1    2    0    0  0.87359820684E+03  0.27557461454E+02  0.97863036563E+03  0.13121168520E+04  0.00000000000E+00 0.  1.
<mgrwt>
<rscale>  0 0.29759109E+04</rscale>
<asrwt>0</asrwt>
<pdfrwt beam="1">  1        1 0.26871789E+00 0.29759109E+04</pdfrwt>
<pdfrwt beam="2">  1       -1 0.19500986E+00 0.29759109E+04</pdfrwt>
<totfact> 0.61569846E-01</totfact>
</mgrwt>
</event>
<event>
 6    1  0.1585031E-006  0.2994098E+04  0.7818608E-02  0.8245418E-01
          1   -1    0    0  501    0  0.00000000000E+00  0.00000000000E+00  0.47770661948E+04  0.47770661948E+04  0.00000000000E+00 0. -1.
         -1   -1    0    0    0  501 -0.00000000000E+00 -0.00000000000E+00 -0.46914906666E+03  0.46914906666E+03  0.00000000000E+00 0.  1.
         23    2    1    2    0    0 -0.12680796737E+04 -0.64010738509E+03  0.13355936128E+04  0.19519064413E+04  0.91460010884E+02 0.  0.
         11    1    3    3    0    0 -0.81722918351E+03 -0.42372828506E+03  0.80635127394E+03  0.12237694125E+04  0.00000000000E+00 0. -1.
        -11    1    3    3    0    0 -0.45085049015E+03 -0.21637910002E+03  0.52924233891E+03  0.72813702878E+03  0.00000000000E+00 0.  1.
         22    1    1    2    0    0  0.12680796737E+04  0.64010738509E+03  0.29723235153E+04  0.32943088202E+04  0.00000000000E+00 0. -1.
<mgrwt>
<rscale>  0 0.29940983E+04</rscale>
<asrwt>0</asrwt>
<pdfrwt beam="1">  1        1 0.73493323E+00 0.29940983E+04</pdfrwt>
<pdfrwt beam="2">  1       -1 0.72176783E-01 0.29940983E+04</pdfrwt>
<totfact> 0.26568349E-02</totfact>
</mgrwt>
</event>
<event>
 6    1  0.1585031E-006  0.4369471E+04  0.7818608E-02  0.7933896E-01
         -2   -1    0    0    0  501 -0.00000000000E+00  0.00000000000E+00  0.19289500771E+04  0.19289500771E+04  0.00000000000E+00 0.  1.
          2   -1    0    0  501    0  0.00000000000E+00 -0.00000000000E+00 -0.24744393445E+04  0.24744393445E+04  0.00000000000E+00 0. -1.
         23    2    1    2    0    0  0.11067212022E+04  0.73624604877E+03 -0.20189309385E+04  0.24189700048E+04  0.91889532014E+02 0.  0.
         13    1    3    3    0    0  0.50553338435E+03  0.29382762062E+03 -0.93933467360E+03  0.11064575466E+04  0.00000000000E+00 0. -1.
        -13    1    3    3    0    0  0.60118781787E+03  0.44241842815E+03 -0.10795962649E+04  0.13125124582E+04  0.00000000000E+00 0.  1.
         22    1    1    2    0    0 -0.11067212022E+04 -0.73624604877E+03  0.14734416711E+04  0.19844194168E+04  0.00000000000E+00 0.  1.
<mgrwt>
<rscale>  0 0.43694713E+04</rscale>
<asrwt>0</asrwt>
<pdfrwt beam="1">  1        2 0.38068298E+00 0.43694713E+04</pdfrwt>
<pdfrwt beam="2">  1       -2 0.29676155E+00 0.43694713E+04</pdfrwt>
<totfact> 0.91754903E-02</totfact>
</mgrwt>
</event>
<event>
 6    1  0.1585031E-006  0.1325316E+04  0.7818608E-02  0.9009727E-01
         -1   -1    0    0    0  501 -0.00000000000E+00  0.00000000000E+00  0.27759873069E+03  0.27759873069E+03  0.00000000000E+00 0.  1.
          1   -1    0    0  501    0  0.00000000000E+00 -0.00000000000E+00 -0.15818367322E+04  0.15818367322E+04  0.00000000000E+00 0. -1.
         23    2    1    2    0    0 -0.30132128264E+03  0.14853683852E+03  0.14152783001E+03  0.37515228661E+03  0.88608146964E+02 0.  0.
         11    1    3    3    0    0 -0.97779196396E+02  0.46354021207E+01  0.46611858425E+02  0.10842012519E+03  0.00000000000E+00 0.  1.
        -11    1    3    3    0    0 -0.20354208624E+03  0.14390143640E+03  0.94915971589E+02  0.26673216142E+03  0.00000000000E+00 0. -1.
         22    1    1    2    0    0  0.30132128264E+03 -0.14853683852E+03 -0.14457658315E+04  0.14842831763E+04  0.00000000000E+00 0. -1.
<mgrwt>
<rscale>  0 0.13253164E+04</rscale>
<asrwt>0</asrwt>
<pdfrwt beam="1">  1        1 0.24335950E+00 0.13253164E+04</pdfrwt>
<pdfrwt beam="2">  1       -1 0.42707497E-01 0.13253164E+04</pdfrwt>
<totfact> 0.30401145E+01</totfact>
</mgrwt>
</event>
<event>
 6    1  0.1585031E-006  0.1720215E+04  0.7818608E-02  0.8749919E-01
         -2   -1    0    0    0  501 -0.00000000000E+00  0.00000000000E+00  0.74139289830E+03  0.74139289830E+03  0.00000000000E+00 0.  1.
          2   -1    0    0  501    0  0.00000000000E+00 -0.00000000000E+00 -0.99783061135E+03  0.99783061135E+03  0.00000000000E+00 0. -1.
         23    2    1    2    0    0 -0.38659769547E+03  0.75560000196E+03 -0.37599622368E+01  0.85365296652E+03  0.91214630480E+02 0.  0.
         11    1    3    3    0    0 -0.33722885119E+03  0.57714936879E+03  0.52354781833E+00  0.66844967355E+03  0.00000000000E+00 0.  1.
        -11    1    3    3    0    0 -0.49368844277E+02  0.17845063317E+03 -0.42835100551E+01  0.18520329296E+03  0.00000000000E+00 0. -1.
         22    1    1    2    0    0  0.38659769547E+03 -0.75560000196E+03 -0.25267775081E+03  0.88557054313E+03  0.00000000000E+00 0. -1.
<mgrwt>
<rscale>  0 0.17202146E+04</rscale>
<asrwt>0</asrwt>
<pdfrwt beam="1">  1        2 0.15351240E+00 0.17202146E+04</pdfrwt>
<pdfrwt beam="2">  1       -2 0.11406045E+00 0.17202146E+04</pdfrwt>
<totfact> 0.14443806E+01</totfact>
</mgrwt>
</event>
<event>
 6    1  0.1585031E-006  0.3025626E+04  0.7818608E-02  0.8236451E-01
          2   -1    0    0  501    0  0.00000000000E+00  0.00000000000E+00  0.13220147127E+04  0.13220147127E+04  0.00000000000E+00 0.  1.
         -2   -1    0    0    0  501 -0.00000000000E+00 -0.00000000000E+00 -0.17311475236E+04  0.17311475236E+04  0.00000000000E+00 0. -1.
         23    2    1    2    0    0  0.13523781203E+04 -0.11737363175E+02  0.47619586395E+03  0.14367244218E+04  0.91379523296E+02 0.  0.
         11    1    3    3    0    0  0.94155605257E+03 -0.25720061574E+02  0.37165536752E+03  0.10125793963E+04  0.00000000000E+00 0.  1.
        -11    1    3    3    0    0  0.41082206774E+03  0.13982698399E+02  0.10454049642E+03  0.42414502542E+03  0.00000000000E+00 0. -1.
         22    1    1    2    0    0 -0.13523781203E+04  0.11737363175E+02 -0.88532867481E+03  0.16164378146E+04  0.00000000000E+00 0. -1.
<mgrwt>
<rscale>  0 0.30256256E+04</rscale>
<asrwt>0</asrwt>
<pdfrwt beam="1">  1        2 0.20338688E+00 0.30256256E+04</pdfrwt>
<pdfrwt beam="2">  1       -2 0.26633039E+00 0.30256256E+04</pdfrwt>
<totfact> 0.69971294E-01</totfact>
</mgrwt>
</event>
<event>
 6    1  0.1585031E-006  0.1382827E+04  0.7818608E-02  0.8966344E-01
          2   -1    0    0  501    0  0.00000000000E+00  0.00000000000E+00  0.15796214401E+04  0.15796214401E+04  0.00000000000E+00 0. -1.
         -2   -1    0    0    0  501 -0.00000000000E+00 -0.00000000000E+00 -0.30263752845E+03  0.30263752845E+03  0.00000000000E+00 0.  1.
         23    2    1    2    0    0 -0.21305568035E+02  0.29545571552E+03 -0.20290408993E+03  0.37301528236E+03  0.10110550971E+03 0.  0.
         11    1    3    3    0    0 -0.34422144348E+02  0.67369734260E+02 -0.91836203966E+02  0.11898509770E+03  0.00000000000E+00 0.  1.
        -11    1    3    3    0    0  0.13116576313E+02  0.22808598126E+03 -0.11106788597E+03  0.25403018466E+03  0.00000000000E+00 0. -1.
         22    1    1    2    0    0  0.21305568035E+02 -0.29545571552E+03  0.14798880016E+04  0.15092436862E+04  0.00000000000E+00 0. -1.
<mgrwt>
<rscale>  0 0.13828271E+04</rscale>
<asrwt>0</asrwt>
<pdfrwt beam="1">  1        2 0.24301868E+00 0.13828271E+04</pdfrwt>
<pdfrwt beam="2">  1       -2 0.46559621E-01 0.13828271E+04</pdfrwt>
<totfact> 0.48782281E+01</totfact>
</mgrwt>
</event>
<event>
 6    1  0.2524595E-006  0.2435447E+04  0.7818608E-02  0.8426351E-01
         -1   -1    0    0    0  501 -0.00000000000E+00  0.00000000000E+00  0.83650740143E+03  0.83650740143E+03  0.00000000000E+00 0.  1.
          1   -1    0    0  501    0  0.00000000000E+00 -0.00000000000E+00 -0.17726683666E+04  0.17726683666E+04  0.00000000000E+00 0. -1.
         23    2    1    2    0    0 -0.18624621270E+03  0.36032703459E+03  0.75923589481E+03  0.86593346232E+03  0.94225227992E+02 0.  0.
         11    1    3    3    0    0 -0.11290904100E+03  0.16840017086E+03  0.46271936508E+03  0.50518935055E+03  0.00000000000E+00 0. -1.
        -11    1    3    3    0    0 -0.73337171698E+02  0.19192686373E+03  0.29651652973E+03  0.36074411177E+03  0.00000000000E+00 0.  1.
         22    1    1    2    0    0  0.18624621270E+03 -0.36032703459E+03 -0.16953968600E+04  0.17432423058E+04  0.00000000000E+00 0. -1.
<mgrwt>
<rscale>  0 0.24354467E+04</rscale>
<asrwt>0</asrwt>
<pdfrwt beam="1">  1        1 0.27271821E+00 0.24354467E+04</pdfrwt>
<pdfrwt beam="2">  1       -1 0.12869345E+00 0.24354467E+04</pdfrwt>
<totfact> 0.19761907E+00</totfact>
</mgrwt>
</event>
<event>
 6    1  0.1585031E-006  0.1024964E+04  0.7818608E-02  0.9281580E-01
         -2   -1    0    0    0  501 -0.00000000000E+00  0.00000000000E+00  0.13345032444E+03  0.13345032444E+03  0.00000000000E+00 0.  1.
          2   -1    0    0  501    0  0.00000000000E+00 -0.00000000000E+00 -0.19680577960E+04  0.19680577960E+04  0.00000000000E+00 0. -1.
         23    2    1    2    0    0 -0.47527036510E+02  0.15681217297E+03 -0.19114015344E+04  0.19205489956E+04  0.90574509205E+02 0.  0.
         13    1    3    3    0    0 -0.35345883395E+02  0.12782679465E+03 -0.10190666548E+04  0.10276603855E+04  0.00000000000E+00 0.  1.
        -13    1    3    3    0    0 -0.12181153115E+02  0.28985378321E+02 -0.89233487963E+03  0.89288861010E+03  0.00000000000E+00 0. -1.
         22    1    1    2    0    0  0.47527036510E+02 -0.15681217297E+03  0.76794062857E+02  0.18095912489E+03  0.00000000000E+00 0.  1.
<mgrwt>
<rscale>  0 0.10249643E+04</rscale>
<asrwt>0</asrwt>
<pdfrwt beam="1">  1        2 0.30277810E+00 0.10249643E+04</pdfrwt>
<pdfrwt beam="2">  1       -2 0.20530821E-01 0.10249643E+04</pdfrwt>
<totfact> 0.14205022E+02</totfact>
</mgrwt>
</event>
<event>
 6    1  0.1585031E-006  0.4198330E+04  0.7818608E-02  0.7965690E-01
         -1   -1    0    0    0  501 -0.00000000000E+00  0.00000000000E+00  0.95301070864E+03  0.95301070864E+03  0.00000000000E+00 0.  1.
          1   -1    0    0  501    0  0.00000000000E+00 -0.00000000000E+00 -0.46237604350E+04  0.46237604350E+04  0.00000000000E+00 0. -1.
         23    2    1    2    0    0  0.10545608349E+04 -0.11965538605E+04 -0.36470685110E+04  0.39816534378E+04  0.92820681273E+02 0.  0.
         13    1    3    3    0    0  0.25713854212E+03 -0.34124731365E+03 -0.10389781035E+04  0.11234079661E+04  0.00000000000E+00 0. -1.
        -13    1    3    3    0    0  0.79742229276E+03 -0.85530654686E+03 -0.26080904075E+04  0.28582454716E+04  0.00000000000E+00 0.  1.
         22    1    1    2    0    0 -0.10545608349E+04  0.11965538605E+04 -0.23681215321E+02  0.15951177059E+04  0.00000000000E+00 0.  1.
<mgrwt>
<rscale>  0 0.41983298E+04</rscale>
<asrwt>0</asrwt>
<pdfrwt beam="1">  1        1 0.71134776E+00 0.41983298E+04</pdfrwt>
<pdfrwt beam="2">  1       -1 0.14661703E+00 0.41983298E+04</pdfrwt>
<totfact> 0.67683066E-03</totfact>
</mgrwt>
</event>
<event>
 6    1  0.1585031E-006  0.1184095E+04  0.7818608E-02  0.9126893E-01
         -1   -1    0    0    0  501 -0.00000000000E+00  0.00000000000E+00  0.59087809055E+03  0.59087809055E+03  0.00000000000E+00 0.  1.
          1   -1    0    0  501    0  0.00000000000E+00 -0.00000000000E+00 -0.59321909384E+03  0.59321909384E+03  0.00000000000E+00 0. -1.
         23    2    1    2    0    0 -0.53782787439E+03 -0.23899985539E+03  0.23283279531E+02  0.59499926620E+03  0.84274921111E+02 0.  0.
         11    1    3    3    0    0 -0.22353522197E+03 -0.70679792052E+02  0.41139422269E+02  0.23802537791E+03  0.00000000000E+00 0. -1.
        -11    1    3    3    0    0 -0.31429265242E+03 -0.16832006334E+03 -0.17856142739E+02  0.35697388829E+03  0.00000000000E+00 0.  1.
         22    1    1    2    0    0  0.53782787439E+03  0.23899985539E+03 -0.25624282826E+02  0.58909791819E+03  0.00000000000E+00 0. -1.
<mgrwt>
<rscale>  0 0.11840949E+04</rscale>
<asrwt>0</asrwt>
<pdfrwt beam="1">  1        1 0.91264476E-01 0.11840949E+04</pdfrwt>
<pdfrwt beam="2">  1       -1 0.90904322E-01 0.11840949E+04</pdfrwt>
<totfact> 0.40781241E+01</totfact>
</mgrwt>
</event>
<event>
 6    1  0.1585031E-006  0.4042975E+04  0.7818608E-02  0.7995933E-01
          1   -1    0    0  501    0  0.00000000000E+00  0.00000000000E+00  0.26407154942E+04  0.26407154942E+04  0.00000000000E+00 0. -1.
         -1   -1    0    0    0  501 -0.00000000000E+00 -0.00000000000E+00 -0.15474637110E+04  0.15474637110E+04  0.00000000000E+00 0.  1.
         23    2    1    2    0    0  0.50118754965E+03 -0.19465864759E+04  0.75874472195E+03  0.21504641019E+04  0.91730214687E+02 0.  0.
         13    1    3    3    0    0  0.34019692159E+03 -0.11972772723E+04  0.43522462381E+03  0.13185701670E+04  0.00000000000E+00 0.  1.
        -13    1    3    3    0    0  0.16099062806E+03 -0.74930920358E+03  0.32352009814E+03  0.83189393482E+03  0.00000000000E+00 0. -1.
         22    1    1    2    0    0 -0.50118754965E+03  0.19465864759E+04  0.33450706123E+03  0.20377151033E+04  0.00000000000E+00 0.  1.
<mgrwt>
<rscale>  0 0.40429748E+04</rscale>
<asrwt>0</asrwt>
<pdfrwt beam="1">  1        1 0.40626392E+00 0.40429748E+04</pdfrwt>
<pdfrwt beam="2">  1       -1 0.23807134E+00 0.40429748E+04</pdfrwt>
<totfact> 0.70337101E-02</totfact>
</mgrwt>
</event>
<event>
 6    1  0.1585031E-006  0.1428049E+04  0.7818608E-02  0.8933762E-01
         -1   -1    0    0    0  501 -0.00000000000E+00  0.00000000000E+00  0.15153334608E+04  0.15153334608E+04  0.00000000000E+00 0.  1.
          1   -1    0    0  501    0  0.00000000000E+00 -0.00000000000E+00 -0.33644814599E+03  0.33644814599E+03  0.00000000000E+00 0. -1.
         23    2    1    2    0    0 -0.35627585653E+03 -0.30666166800E+03  0.12838049327E+04  0.13701365188E+04  0.90250266133E+02 0.  0.
         13    1    3    3    0    0 -0.21318627497E+03 -0.12805306467E+03  0.62168103840E+03  0.66957694757E+03  0.00000000000E+00 0.  1.
        -13    1    3    3    0    0 -0.14308958156E+03 -0.17860860334E+03  0.66212389426E+03  0.70055957126E+03  0.00000000000E+00 0. -1.
         22    1    1    2    0    0  0.35627585653E+03  0.30666166800E+03 -0.10491961783E+03  0.48164508798E+03  0.00000000000E+00 0. -1.
<mgrwt>
<rscale>  0 0.14280492E+04</rscale>
<asrwt>0</asrwt>
<pdfrwt beam="1">  1        1 0.51761254E-01 0.14280492E+04</pdfrwt>
<pdfrwt beam="2">  1       -1 0.23312822E+00 0.14280492E+04</pdfrwt>
<totfact> 0.66079649E+00</totfact>
</mgrwt>
</event>
<event>
 6    1  0.1585031E-006  0.1903071E+04  0.7818608E-02  0.8653329E-01
         -4   -1    0    0    0  501 -0.00000000000E+00  0.00000000000E+00  0.35710138801E+03  0.35710138801E+03  0.00000000000E+00 0.  1.
          4   -1    0    0  501    0  0.00000000000E+00 -0.00000000000E+00 -0.25354705263E+04  0.25354705263E+04  0.00000000000E+00 0. -1.
         23    2    1    2    0    0 -0.49683053010E+03 -0.17639632172E+03  0.10864882844E+03  0.54557225132E+03  0.88815964408E+02 0.  0.
         11    1    3    3    0    0 -0.44329180946E+03 -0.16544609976E+03  0.69243262393E+02  0.47819940364E+03  0.00000000000E+00 0. -1.
        -11    1    3    3    0    0 -0.53538720648E+02 -0.10950221962E+02  0.39405566043E+02  0.67372847682E+02  0.00000000000E+00 0.  1.
         22    1    1    2    0    0  0.49683053010E+03  0.17639632172E+03 -0.22870179668E+04  0.23469996630E+04  0.00000000000E+00 0. -1.
<mgrwt>
<rscale>  0 0.19030712E+04</rscale>
<asrwt>0</asrwt>
<pdfrwt beam="1">  1        4 0.39007239E+00 0.19030712E+04</pdfrwt>
<pdfrwt beam="2">  1       -4 0.54938674E-01 0.19030712E+04</pdfrwt>
<totfact> 0.47662541E-02</totfact>
</mgrwt>
</event>
<event>
 6    1  0.1585031E-006  0.1862965E+04  0.7818608E-02  0.8673514E-01
          1   -1    0    0  501    0  0.00000000000E+00  0.00000000000E+00  0.24047138940E+04  0.24047138940E+04  0.00000000000E+00 0. -1.
         -1   -1    0    0    0  501 -0.00000000000E+00 -0.00000000000E+00 -0.36081598652E+03  0.36081598652E+03  0.00000000000E+00 0.  1.
         23    2    1    2    0    0 -0.25378983166E+03 -0.26346583218E+03  0.22925541395E+04  0.23232025752E+04  0.87419674101E+02 0.  0.
         13    1    3    3    0    0 -0.18920864266E+03 -0.19531075744E+03  0.19117935695E+04  0.19310362127E+04  0.00000000000E+00 0.  1.
        -13    1    3    3    0    0 -0.64581189005E+02 -0.68155074744E+02  0.38076056998E+03  0.39216636245E+03  0.00000000000E+00 0. -1.
         22    1    1    2    0    0  0.25378983166E+03  0.26346583218E+03 -0.24865623198E+03  0.44232730538E+03  0.00000000000E+00 0.  1.
<mgrwt>
<rscale>  0 0.18629645E+04</rscale>
<asrwt>0</asrwt>
<pdfrwt beam="1">  1        1 0.36995597E+00 0.18629645E+04</pdfrwt>
<pdfrwt beam="2">  1       -1 0.55510153E-01 0.18629645E+04</pdfrwt>
<totfact> 0.48597876E+00</totfact>
</mgrwt>
</event>
<event>
 6    1  0.1585031E-006  0.1828367E+04  0.7818608E-02  0.8691358E-01
          2   -1    0    0  501    0  0.00000000000E+00  0.00000000000E+00  0.99243856121E+03  0.99243856121E+03  0.00000000000E+00 0. -1.
         -2   -1    0    0    0  501 -0.00000000000E+00 -0.00000000000E+00 -0.84209853181E+03  0.84209853181E+03  0.00000000000E+00 0.  1.
         23    2    1    2    0    0 -0.56411852181E+03 -0.75790025001E+02 -0.63939510396E+03  0.86106114806E+03  0.92878238487E+02 0.  0.
         11    1    3    3    0    0 -0.21522053849E+03 -0.11982281374E+02 -0.18099730686E+03  0.28146665939E+03  0.00000000000E+00 0. -1.
        -11    1    3    3    0    0 -0.34889798332E+03 -0.63807743627E+02 -0.45839779710E+03  0.57959448867E+03  0.00000000000E+00 0.  1.
         22    1    1    2    0    0  0.56411852181E+03  0.75790025001E+02  0.78973513336E+03  0.97347594495E+03  0.00000000000E+00 0. -1.
<mgrwt>
<rscale>  0 0.18283665E+04</rscale>
<asrwt>0</asrwt>
<pdfrwt beam="1">  1        2 0.15268286E+00 0.18283665E+04</pdfrwt>
<pdfrwt beam="2">  1       -2 0.12955362E+00 0.18283665E+04</pdfrwt>
<totfact> 0.10511732E+01</totfact>
</mgrwt>
</event>
<event>
 6    1  0.1585031E-006  0.3838356E+04  0.7818608E-02  0.8037974E-01
          1   -1    0    0  501    0  0.00000000000E+00  0.00000000000E+00  0.16671344380E+04  0.16671344380E+04  0.00000000000E+00 0. -1.
         -1   -1    0    0    0  501 -0.00000000000E+00 -0.00000000000E+00 -0.22093263928E+04  0.22093263928E+04  0.00000000000E+00 0.  1.
         23    2    1    2    0    0  0.10702724587E+04  0.14418685441E+04 -0.95169655421E+03  0.20346785279E+04  0.98601958437E+02 0.  0.
         11    1    3    3    0    0  0.80561017678E+03  0.11530702381E+04 -0.74985370066E+03  0.15940073097E+04  0.00000000000E+00 0.  1.
        -11    1    3    3    0    0  0.26466228191E+03  0.28879830598E+03 -0.20184285355E+03  0.44067121818E+03  0.00000000000E+00 0. -1.
         22    1    1    2    0    0 -0.10702724587E+04 -0.14418685441E+04  0.40950459937E+03  0.18417823029E+04  0.00000000000E+00 0.  1.
<mgrwt>
<rscale>  0 0.38383560E+04</rscale>
<asrwt>0</asrwt>
<pdfrwt beam="1">  1        1 0.25648222E+00 0.38383560E+04</pdfrwt>
<pdfrwt beam="2">  1       -1 0.33989637E+00 0.38383560E+04</pdfrwt>
<totfact> 0.72115898E-02</totfact>
</mgrwt>
</event>
<event>
 6    1  0.1585031E-006  0.9744543E+03  0.7818608E-02  0.9337015E-01
          2   -1    0    0  501    0  0.00000000000E+00  0.00000000000E+00  0.12184155665E+04  0.12184155665E+04  0.00000000000E+00 0. -1.
         -2   -1    0    0    0  501 -0.00000000000E+00 -0.00000000000E+00 -0.19483523638E+03  0.19483523638E+03  0.00000000000E+00 0.  1.
         23    2    1    2    0    0  0.20355929311E+03  0.38061850023E+03  0.20038308746E+03  0.48375603213E+03  0.86946468343E+02 0.  0.
         13    1    3    3    0    0  0.94603382252E+02  0.11519494969E+03  0.37017128471E+02  0.15359018253E+03  0.00000000000E+00 0.  1.
        -13    1    3    3    0    0  0.10895591086E+03  0.26542355054E+03  0.16336595899E+03  0.33016584961E+03  0.00000000000E+00 0. -1.
         22    1    1    2    0    0 -0.20355929311E+03 -0.38061850023E+03  0.82319724266E+03  0.92949477075E+03  0.00000000000E+00 0. -1.
<mgrwt>
<rscale>  0 0.97445428E+03</rscale>
<asrwt>0</asrwt>
<pdfrwt beam="1">  1        2 0.18744854E+00 0.97445428E+03</pdfrwt>
<pdfrwt beam="2">  1       -2 0.29974652E-01 0.97445428E+03</pdfrwt>
<totfact> 0.18931288E+02</totfact>
</mgrwt>
</event>
<event>
 6    1  0.1585031E-006  0.1175831E+04  0.7818608E-02  0.9134278E-01
         -2   -1    0    0    0  501 -0.00000000000E+00  0.00000000000E+00  0.67062833068E+03  0.67062833068E+03  0.00000000000E+00 0.  1.
          2   -1    0    0  501    0  0.00000000000E+00 -0.00000000000E+00 -0.51540433974E+03  0.51540433974E+03  0.00000000000E+00 0. -1.
         23    2    1    2    0    0  0.41782463353E+03  0.11479272563E+03 -0.31740451319E+03  0.54483652480E+03  0.91358740802E+02 0.  0.
         11    1    3    3    0    0  0.16293921397E+03  0.29619899663E+02 -0.17406045949E+03  0.24025729845E+03  0.00000000000E+00 0.  1.
        -11    1    3    3    0    0  0.25488541956E+03  0.85172825971E+02 -0.14334405371E+03  0.30457922635E+03  0.00000000000E+00 0. -1.
         22    1    1    2    0    0 -0.41782463353E+03 -0.11479272563E+03  0.47262850413E+03  0.64119614562E+03  0.00000000000E+00 0.  1.
<mgrwt>
<rscale>  0 0.11758312E+04</rscale>
<asrwt>0</asrwt>
<pdfrwt beam="1">  1        2 0.79292975E-01 0.11758312E+04</pdfrwt>
<pdfrwt beam="2">  1       -2 0.10317359E+00 0.11758312E+04</pdfrwt>
<totfact> 0.45040426E+01</totfact>
</mgrwt>
</event>
<event>
 6    1  0.1585031E-006  0.2147857E+04  0.7818608E-02  0.8540450E-01
         -2   -1    0    0    0  501 -0.00000000000E+00  0.00000000000E+00  0.54876992786E+03  0.54876992786E+03  0.00000000000E+00 0.  1.
          2   -1    0    0  501    0  0.00000000000E+00 -0.00000000000E+00 -0.21016501841E+04  0.21016501841E+04  0.00000000000E+00 0. -1.
         23    2    1    2    0    0 -0.45015090424E+03  0.73843415953E+03 -0.15595051035E+04  0.17855705683E+04  0.91023306257E+02 0.  0.
         13    1    3    3    0    0 -0.27159190134E+03  0.52511818608E+03 -0.10791317695E+04  0.12304619645E+04  0.00000000000E+00 0. -1.
        -13    1    3    3    0    0 -0.17855900290E+03  0.21331597344E+03 -0.48037333395E+03  0.55510860380E+03  0.00000000000E+00 0.  1.
         22    1    1    2    0    0  0.45015090424E+03 -0.73843415953E+03  0.66248471908E+01  0.86484954364E+03  0.00000000000E+00 0.  1.
<mgrwt>
<rscale>  0 0.21478570E+04</rscale>
<asrwt>0</asrwt>
<pdfrwt beam="1">  1        2 0.32333079E+00 0.21478570E+04</pdfrwt>
<pdfrwt beam="2">  1       -2 0.84426144E-01 0.21478570E+04</pdfrwt>
<totfact> 0.65853765E+00</totfact>
</mgrwt>
</event>
<event>
 6    1  0.1585031E-006  0.4012315E+04  0.7818608E-02  0.8002067E-01
         -1   -1    0    0    0  501 -0.00000000000E+00  0.00000000000E+00  0.19007828790E+04  0.19007828790E+04  0.00000000000E+00 0.  1.
          1   -1    0    0  501    0  0.00000000000E+00 -0.00000000000E+00 -0.21173736820E+04  0.21173736820E+04  0.00000000000E+00 0. -1.
         23    2    1    2    0    0 -0.30031013957E+03 -0.12346938592E+04  0.14449476662E+04  0.19264191993E+04  0.92531441127E+02 0.  0.
         11    1    3    3    0    0 -0.21025468753E+03 -0.67048284051E+03  0.80307010309E+03  0.10670875613E+04  0.00000000000E+00 0.  1.
        -11    1    3    3    0    0 -0.90055452034E+02 -0.56421101864E+03  0.64187756309E+03  0.85933163796E+03  0.00000000000E+00 0. -1.
         22    1    1    2    0    0  0.30031013957E+03  0.12346938592E+04 -0.16615384692E+04  0.20917373617E+04  0.00000000000E+00 0. -1.
<mgrwt>
<rscale>  0 0.40123149E+04</rscale>
<asrwt>0</asrwt>
<pdfrwt beam="1">  1        1 0.32574980E+00 0.40123149E+04</pdfrwt>
<pdfrwt beam="2">  1       -1 0.29242814E+00 0.40123149E+04</pdfrwt>
<totfact> 0.71700114E-02</totfact>
</mgrwt>
</event>
<event>
 6    1  0.1585031E-006  0.1350899E+04  0.7818608E-02  0.8990148E-01
          2   -1    0    0  501    0  0.00000000000E+00  0.00000000000E+00  0.22618092602E+04  0.22618092602E+04  0.00000000000E+00 0. -1.
         -2   -1    0    0    0  501 -0.00000000000E+00 -0.00000000000E+00 -0.20171105643E+03  0.20171105643E+03  0.00000000000E+00 0.  1.
         23    2    1    2    0    0 -0.33493928500E+02  0.65217923316E+03  0.74385704099E+03  0.99418359756E+03  0.92833899050E+02 0.  0.
         13    1    3    3    0    0 -0.44919967778E+02  0.49341662920E+03  0.61253504902E+03  0.78783054000E+03  0.00000000000E+00 0.  1.
        -13    1    3    3    0    0  0.11426039277E+02  0.15876260396E+03  0.13132199197E+03  0.20635305756E+03  0.00000000000E+00 0. -1.
         22    1    1    2    0    0  0.33493928500E+02 -0.65217923316E+03  0.13162411627E+04  0.14693367190E+04  0.00000000000E+00 0. -1.
<mgrwt>
<rscale>  0 0.13508989E+04</rscale>
<asrwt>0</asrwt>
<pdfrwt beam="1">  1        2 0.34797064E+00 0.13508989E+04</pdfrwt>
<pdfrwt beam="2">  1       -2 0.31032472E-01 0.13508989E+04</pdfrwt>
<totfact> 0.44895778E+01</totfact>
</mgrwt>
</event>
<event>
 6    1  0.1585031E-006  0.1108649E+04  0.7818608E-02  0.9196803E-01
          1   -1    0    0  501    0  0.00000000000E+00  0.00000000000E+00  0.12779773929E+04  0.12779773929E+04  0.00000000000E+00 0. -1.
         -1   -1    0    0    0  501 -0.00000000000E+00 -0.00000000000E+00 -0.24043911543E+03  0.24043911543E+03  0.00000000000E+00 0.  1.
         23    2    1    2    0    0  0.22812128845E+03  0.51548564801E+02 -0.16020933558E+03  0.29804938270E+03  0.92031660546E+02 0.  0.
         11    1    3    3    0    0  0.21476894609E+03  0.28114958920E+02 -0.16279038430E+03  0.27095545822E+03  0.00000000000E+00 0.  1.
        -11    1    3    3    0    0  0.13352342358E+02  0.23433605881E+02  0.25810487182E+01  0.27093924476E+02  0.00000000000E+00 0. -1.
         22    1    1    2    0    0 -0.22812128845E+03 -0.51548564801E+02  0.11977476131E+04  0.12203671257E+04  0.00000000000E+00 0. -1.
<mgrwt>
<rscale>  0 0.11086492E+04</rscale>
<asrwt>0</asrwt>
<pdfrwt beam="1">  1        1 0.19661190E+00 0.11086492E+04</pdfrwt>
<pdfrwt beam="2">  1       -1 0.36990634E-01 0.11086492E+04</pdfrwt>
<totfact> 0.65571281E+01</totfact>
</mgrwt>
</event>
<event>
 6    1  0.1585031E-006  0.3174574E+04  0.7818608E-02  0.8195565E-01
          2   -1    0    0  501    0  0.00000000000E+00  0.00000000000E+00  0.15744423628E+04  0.15744423628E+04  0.00000000000E+00 0. -1.
         -2   -1    0    0    0  501 -0.00000000000E+00 -0.00000000000E+00 -0.16002365129E+04  0.16002365129E+04  0.00000000000E+00 0.  1.
         23    2    1    2    0    0  0.46392611629E+03 -0.14044938708E+04  0.55947013742E+03  0.15839668462E+04  0.90075859725E+02 0.  0.
         11    1    3    3    0    0  0.11185018207E+03 -0.24218601325E+03  0.11885493077E+03  0.29204626827E+03  0.00000000000E+00 0.  1.
        -11    1    3    3    0    0  0.35207593422E+03 -0.11623078576E+04  0.44061520665E+03  0.12919205779E+04  0.00000000000E+00 0. -1.
         22    1    1    2    0    0 -0.46392611629E+03  0.14044938708E+04 -0.58526428747E+03  0.15907120295E+04  0.00000000000E+00 0.  1.
<mgrwt>
<rscale>  0 0.31745741E+04</rscale>
<asrwt>0</asrwt>
<pdfrwt beam="1">  1        2 0.24222190E+00 0.31745741E+04</pdfrwt>
<pdfrwt beam="2">  1       -2 0.24619023E+00 0.31745741E+04</pdfrwt>
<totfact> 0.65973887E-01</totfact>
</mgrwt>
</event>
<event>
 6    1  0.1585031E-006  0.2851515E+04  0.7818608E-02  0.8287451E-01
         -1   -1    0    0    0  501 -0.00000000000E+00  0.00000000000E+00  0.15727667086E+04  0.15727667086E+04  0.00000000000E+00 0.  1.
          1   -1    0    0  501    0  0.00000000000E+00 -0.00000000000E+00 -0.12924894713E+04  0.12924894713E+04  0.00000000000E+00 0. -1.
         23    2    1    2    0    0 -0.96839778027E+03  0.87176820801E+03 -0.43780941889E+03  0.13774986340E+04  0.89729204837E+02 0.  0.
         11    1    3    3    0    0 -0.78125697979E+03  0.65334313695E+03 -0.34247707344E+03  0.10744813953E+04  0.00000000000E+00 0.  1.
        -11    1    3    3    0    0 -0.18714080047E+03  0.21842507106E+03 -0.95332345452E+02  0.30301723871E+03  0.00000000000E+00 0. -1.
         22    1    1    2    0    0  0.96839778027E+03 -0.87176820801E+03  0.71808665623E+03  0.14877575458E+04  0.00000000000E+00 0.  1.
<mgrwt>
<rscale>  0 0.28515150E+04</rscale>
<asrwt>0</asrwt>
<pdfrwt beam="1">  1        1 0.19884453E+00 0.28515150E+04</pdfrwt>
<pdfrwt beam="2">  1       -1 0.24196411E+00 0.28515150E+04</pdfrwt>
<totfact> 0.62123704E-01</totfact>
</mgrwt>
</event>
<event>
 6    1  0.1585031E-006  0.1678065E+04  0.7818608E-02  0.8773975E-01
          1   -1    0    0  501    0  0.00000000000E+00  0.00000000000E+00  0.79873057192E+03  0.79873057192E+03  0.00000000000E+00 0. -1.
         -1   -1    0    0    0  501 -0.00000000000E+00 -0.00000000000E+00 -0.88136793754E+03  0.88136793754E+03  0.00000000000E+00 0.  1.
         23    2    1    2    0    0 -0.24050841345E+03 -0.46421936108E+03  0.61239420533E+03  0.81037855639E+03  0.91339092308E+02 0.  0.
         13    1    3    3    0    0 -0.50039894710E+02 -0.18130609824E+03  0.18808482508E+03  0.26599209339E+03  0.00000000000E+00 0. -1.
        -13    1    3    3    0    0 -0.19046851875E+03 -0.28291326285E+03  0.42430938025E+03  0.54438646300E+03  0.00000000000E+00 0.  1.
         22    1    1    2    0    0  0.24050841345E+03  0.46421936108E+03 -0.69503157095E+03  0.86971995307E+03  0.00000000000E+00 0.  1.
<mgrwt>
<rscale>  0 0.16780650E+04</rscale>
<asrwt>0</asrwt>
<pdfrwt beam="1">  1        1 0.12288163E+00 0.16780650E+04</pdfrwt>
<pdfrwt beam="2">  1       -1 0.13559507E+00 0.16780650E+04</pdfrwt>
<totfact> 0.96265426E+00</totfact>
</mgrwt>
</event>
<event>
 6    1  0.1585031E-006  0.3942216E+04  0.7818608E-02  0.8016306E-01
          2   -1    0    0  501    0  0.00000000000E+00  0.00000000000E+00  0.34788733418E+04  0.34788733418E+04  0.00000000000E+00 0. -1.
         -2   -1    0    0    0  501 -0.00000000000E+00 -0.00000000000E+00 -0.11168173738E+04  0.11168173738E+04  0.00000000000E+00 0.  1.
         23    2    1    2    0    0 -0.29320189388E+03 -0.13101787123E+04  0.28625295070E+04  0.31628580764E+04  0.84026332858E+02 0.  0.
         13    1    3    3    0    0 -0.66647935662E+02 -0.38508143412E+03  0.91235107013E+03  0.99252915997E+03  0.00000000000E+00 0. -1.
        -13    1    3    3    0    0 -0.22655395821E+03 -0.92509727818E+03  0.19501784368E+04  0.21703289165E+04  0.00000000000E+00 0.  1.
         22    1    1    2    0    0  0.29320189388E+03  0.13101787123E+04 -0.50047353891E+03  0.14328326392E+04  0.00000000000E+00 0.  1.
<mgrwt>
<rscale>  0 0.39422157E+04</rscale>
<asrwt>0</asrwt>
<pdfrwt beam="1">  1        2 0.53521128E+00 0.39422157E+04</pdfrwt>
<pdfrwt beam="2">  1       -2 0.17181806E+00 0.39422157E+04</pdfrwt>
<totfact> 0.13767716E-01</totfact>
</mgrwt>
</event>
<event>
 6    1  0.1585031E-006  0.5499172E+03  0.7818608E-02  0.1001513E+00
         -2   -1    0    0    0  501 -0.00000000000E+00  0.00000000000E+00  0.86151663137E+02  0.86151663137E+02  0.00000000000E+00 0.  1.
          2   -1    0    0  501    0  0.00000000000E+00 -0.00000000000E+00 -0.87754823397E+03  0.87754823397E+03  0.00000000000E+00 0. -1.
         23    2    1    2    0    0  0.19556054379E+03 -0.62826251233E+01 -0.88178941800E+02  0.23376946792E+03  0.92678156479E+02 0.  0.
         11    1    3    3    0    0  0.15571140150E+03 -0.21175304712E+02 -0.10393280940E+03  0.18840505024E+03  0.00000000000E+00 0.  1.
        -11    1    3    3    0    0  0.39849142296E+02  0.14892679589E+02  0.15753867603E+02  0.45364417681E+02  0.00000000000E+00 0. -1.
         22    1    1    2    0    0 -0.19556054379E+03  0.62826251233E+01 -0.70321762903E+03  0.72993042919E+03  0.00000000000E+00 0. -1.
<mgrwt>
<rscale>  0 0.54991723E+03</rscale>
<asrwt>0</asrwt>
<pdfrwt beam="1">  1        2 0.13500741E+00 0.54991723E+03</pdfrwt>
<pdfrwt beam="2">  1       -2 0.13254103E-01 0.54991723E+03</pdfrwt>
<totfact> 0.13175825E+03</totfact>
</mgrwt>
</event>
<event>
 6    1  0.1585031E-006  0.3613610E+04  0.7818608E-02  0.8087381E-01
          1   -1    0    0  501    0  0.00000000000E+00  0.00000000000E+00  0.22967948158E+04  0.22967948158E+04  0.00000000000E+00 0. -1.
         -1   -1    0    0    0  501 -0.00000000000E+00 -0.00000000000E+00 -0.14213480120E+04  0.14213480120E+04  0.00000000000E+00 0.  1.
         23    2    1    2    0    0  0.59926861519E+03 -0.15133547859E+03  0.21836737802E+04  0.22712554368E+04  0.90248437265E+02 0.  0.
         11    1    3    3    0    0  0.55055256887E+03 -0.12017107558E+03  0.19027688732E+04  0.19844592722E+04  0.00000000000E+00 0.  1.
        -11    1    3    3    0    0  0.48716046314E+02 -0.31164403005E+02  0.28090490706E+03  0.28679616453E+03  0.00000000000E+00 0. -1.
         22    1    1    2    0    0 -0.59926861519E+03  0.15133547859E+03 -0.13082269764E+04  0.14468873909E+04  0.00000000000E+00 0.  1.
<mgrwt>
<rscale>  0 0.36136102E+04</rscale>
<asrwt>0</asrwt>
<pdfrwt beam="1">  1        1 0.35335305E+00 0.36136102E+04</pdfrwt>
<pdfrwt beam="2">  1       -1 0.21866892E+00 0.36136102E+04</pdfrwt>
<totfact> 0.16982392E-01</totfact>
</mgrwt>
</event>
<event>
 6    1  0.1585031E-006  0.1461452E+04  0.7818608E-02  0.8910499E-01
         -1   -1    0    0    0  501 -0.00000000000E+00  0.00000000000E+00  0.42773584723E+03  0.42773584723E+03  0.00000000000E+00 0.  1.
          1   -1    0    0  501    0  0.00000000000E+00 -0.00000000000E+00 -0.12483420100E+04  0.12483420100E+04  0.00000000000E+00 0. -1.
         23    2    1    2    0    0 -0.60418205860E+03  0.33577057581E+03 -0.15052395673E+03  0.71337956474E+03  0.92060318905E+02 0.  0.
         11    1    3    3    0    0 -0.35066382239E+03  0.22615578466E+03 -0.53743319575E+02  0.42071356012E+03  0.00000000000E+00 0.  1.
        -11    1    3    3    0    0 -0.25351823621E+03  0.10961479115E+03 -0.96780637159E+02  0.29266600462E+03  0.00000000000E+00 0. -1.
         22    1    1    2    0    0  0.60418205860E+03 -0.33577057581E+03 -0.67008220604E+03  0.96269829249E+03  0.00000000000E+00 0. -1.
<mgrwt>
<rscale>  0 0.14614522E+04</rscale>
<asrwt>0</asrwt>
<pdfrwt beam="1">  1        1 0.19205261E+00 0.14614522E+04</pdfrwt>
<pdfrwt beam="2">  1       -1 0.65805516E-01 0.14614522E+04</pdfrwt>
<totfact> 0.22380780E+01</totfact>
</mgrwt>
</event>
<event>
 6    1  0.1585031E-006  0.1418177E+04  0.7818608E-02  0.8940765E-01
         -2   -1    0    0    0  501 -0.00000000000E+00  0.00000000000E+00  0.15181099756E+03  0.15181099756E+03  0.00000000000E+00 0. -1.
          2   -1    0    0  501    0  0.00000000000E+00 -0.00000000000E+00 -0.33120550136E+04  0.33120550136E+04  0.00000000000E+00 0.  1.
         23    2    1    2    0    0 -0.52401587738E+03  0.13380183110E+01 -0.42975453955E+03  0.68354818559E+03  0.89189280283E+02 0.  0.
         13    1    3    3    0    0 -0.33250260702E+03 -0.41753475467E+02 -0.26345166148E+03  0.42627234760E+03  0.00000000000E+00 0. -1.
        -13    1    3    3    0    0 -0.19151327036E+03  0.43091493778E+02 -0.16630287807E+03  0.25727583799E+03  0.00000000000E+00 0.  1.
         22    1    1    2    0    0  0.52401587738E+03 -0.13380183110E+01 -0.27304894765E+04  0.27803178256E+04  0.00000000000E+00 0.  1.
<mgrwt>
<rscale>  0 0.14181768E+04</rscale>
<asrwt>0</asrwt>
<pdfrwt beam="1">  1        2 0.50954696E+00 0.14181768E+04</pdfrwt>
<pdfrwt beam="2">  1       -2 0.23355537E-01 0.14181768E+04</pdfrwt>
<totfact> 0.17473517E+01</totfact>
</mgrwt>
</event>
<event>
 6    1  0.1585031E-006  0.1631960E+04  0.7818608E-02  0.8801151E-01
          2   -1    0    0  501    0  0.00000000000E+00  0.00000000000E+00  0.80440192536E+03  0.80440192536E+03  0.00000000000E+00 0. -1.
         -2   -1    0    0    0  501 -0.00000000000E+00 -0.00000000000E+00 -0.82772479652E+03  0.82772479652E+03  0.00000000000E+00 0.  1.
         23    2    1    2    0    0 -0.73967402075E+03  0.31356468123E+03  0.11704106712E+03  0.81656403180E+03  0.87394166543E+02 0.  0.
         11    1    3    3    0    0 -0.29436769665E+02  0.16541482494E+02 -0.12287959912E+02  0.35932408912E+02  0.00000000000E+00 0.  1.
        -11    1    3    3    0    0 -0.71023725109E+03  0.29702319873E+03  0.12932902703E+03  0.78063162289E+03  0.00000000000E+00 0. -1.
         22    1    1    2    0    0  0.73967402075E+03 -0.31356468123E+03 -0.14036393828E+03  0.81556269008E+03  0.00000000000E+00 0.  1.
<mgrwt>
<rscale>  0 0.16319601E+04</rscale>
<asrwt>0</asrwt>
<pdfrwt beam="1">  1        2 0.12375414E+00 0.16319601E+04</pdfrwt>
<pdfrwt beam="2">  1       -2 0.12734228E+00 0.16319601E+04</pdfrwt>
<totfact> 0.14965589E+01</totfact>
</mgrwt>
</event>
<event>
 6    1  0.1585031E-006  0.3007237E+04  0.7818608E-02  0.8241667E-01
         -1   -1    0    0    0  501 -0.00000000000E+00  0.00000000000E+00  0.29609429005E+04  0.29609429005E+04  0.00000000000E+00 0.  1.
          1   -1    0    0  501    0  0.00000000000E+00 -0.00000000000E+00 -0.76356358554E+03  0.76356358554E+03  0.00000000000E+00 0. -1.
         23    2    1    2    0    0 -0.36148240607E+03 -0.10631631166E+04 -0.13591877757E+03  0.11350537773E+04  0.94275239179E+02 0.  0.
         13    1    3    3    0    0 -0.13164448568E+03 -0.26384057673E+03 -0.23762981959E+02  0.29581548277E+03  0.00000000000E+00 0. -1.
        -13    1    3    3    0    0 -0.22983792039E+03 -0.79932253990E+03 -0.11215579561E+03  0.83923829449E+03  0.00000000000E+00 0.  1.
         22    1    1    2    0    0  0.36148240607E+03  0.10631631166E+04  0.23332980926E+04  0.25894527088E+04  0.00000000000E+00 0.  1.
<mgrwt>
<rscale>  0 0.30072367E+04</rscale>
<asrwt>0</asrwt>
<pdfrwt beam="1">  1        1 0.11747132E+00 0.30072367E+04</pdfrwt>
<pdfrwt beam="2">  1       -1 0.45552967E+00 0.30072367E+04</pdfrwt>
<totfact> 0.59959812E-02</totfact>
</mgrwt>
</event>
<event>
 6    1  0.1585031E-006  0.2867161E+04  0.7818608E-02  0.8282716E-01
         -2   -1    0    0    0  501 -0.00000000000E+00  0.00000000000E+00  0.11562143486E+04  0.11562143486E+04  0.00000000000E+00 0.  1.
          2   -1    0    0  501    0  0.00000000000E+00 -0.00000000000E+00 -0.17774842574E+04  0.17774842574E+04  0.00000000000E+00 0. -1.
         23    2    1    2    0    0 -0.42120828318E+03 -0.27074679809E+03  0.10619710321E+04  0.11775607095E+04  0.90257992089E+02 0.  0.
         11    1    3    3    0    0 -0.27155329512E+03 -0.12803945961E+03  0.57986370046E+03  0.65297565530E+03  0.00000000000E+00 0.  1.
        -11    1    3    3    0    0 -0.14965498806E+03 -0.14270733847E+03  0.48210733165E+03  0.52458505424E+03  0.00000000000E+00 0. -1.
         22    1    1    2    0    0  0.42120828318E+03  0.27074679809E+03 -0.16832409409E+04  0.17561378965E+04  0.00000000000E+00 0. -1.
<mgrwt>
<rscale>  0 0.28671608E+04</rscale>
<asrwt>0</asrwt>
<pdfrwt beam="1">  1        2 0.27345912E+00 0.28671608E+04</pdfrwt>
<pdfrwt beam="2">  1       -2 0.17787913E+00 0.28671608E+04</pdfrwt>
<totfact> 0.14417975E+00</totfact>
</mgrwt>
</event>
<event>
 6    1  0.1585031E-006  0.1430528E+04  0.7818608E-02  0.8932012E-01
         -1   -1    0    0    0  501 -0.00000000000E+00  0.00000000000E+00  0.21424784996E+03  0.21424784996E+03  0.00000000000E+00 0.  1.
          1   -1    0    0  501    0  0.00000000000E+00 -0.00000000000E+00 -0.23879020777E+04  0.23879020777E+04  0.00000000000E+00 0. -1.
         23    2    1    2    0    0 -0.14057775862E+03 -0.44647110670E+03 -0.11286170923E+03  0.48886708817E+03  0.84585513802E+02 0.  0.
         13    1    3    3    0    0  0.42554936006E+01 -0.47390520666E+02 -0.30169152615E+02  0.56339581506E+02  0.00000000000E+00 0.  1.
        -13    1    3    3    0    0 -0.14483325222E+03 -0.39908058603E+03 -0.82692556617E+02  0.43252750666E+03  0.00000000000E+00 0. -1.
         22    1    1    2    0    0  0.14057775862E+03  0.44647110670E+03 -0.20607925185E+04  0.21132828395E+04  0.00000000000E+00 0. -1.
<mgrwt>
<rscale>  0 0.14305284E+04</rscale>
<asrwt>0</asrwt>
<pdfrwt beam="1">  1        1 0.36736952E+00 0.14305284E+04</pdfrwt>
<pdfrwt beam="2">  1       -1 0.32961210E-01 0.14305284E+04</pdfrwt>
<totfact> 0.13643508E+01</totfact>
</mgrwt>
</event>
<event>
 6    1  0.1585031E-006  0.4209482E+04  0.7818608E-02  0.7963571E-01
          1   -1    0    0  501    0  0.00000000000E+00  0.00000000000E+00  0.28990253925E+04  0.28990253925E+04  0.00000000000E+00 0. -1.
         -1   -1    0    0    0  501 -0.00000000000E+00 -0.00000000000E+00 -0.15280772432E+04  0.15280772432E+04  0.00000000000E+00 0.  1.
         23    2    1    2    0    0  0.85549382420E+03 -0.19438946374E+03 -0.13251213700E+04  0.15918869826E+04  0.92198553467E+02 0.  0.
         11    1    3    3    0    0  0.28942428750E+03 -0.90894983417E+02 -0.39335784980E+03  0.49674813960E+03  0.00000000000E+00 0. -1.
        -11    1    3    3    0    0  0.56606953670E+03 -0.10349448032E+03 -0.93176352023E+03  0.10951388430E+04  0.00000000000E+00 0.  1.
         22    1    1    2    0    0 -0.85549382420E+03  0.19438946374E+03  0.26960695193E+04  0.28352156532E+04  0.00000000000E+00 0. -1.
<mgrwt>
<rscale>  0 0.42094820E+04</rscale>
<asrwt>0</asrwt>
<pdfrwt beam="1">  1        1 0.44600391E+00 0.42094820E+04</pdfrwt>
<pdfrwt beam="2">  1       -1 0.23508881E+00 0.42094820E+04</pdfrwt>
<totfact> 0.47542794E-02</totfact>
</mgrwt>
</event>
<event>
 6    1  0.1585031E-006  0.4135081E+04  0.7818608E-02  0.7977837E-01
         -1   -1    0    0    0  501 -0.00000000000E+00  0.00000000000E+00  0.12679706564E+04  0.12679706564E+04  0.00000000000E+00 0.  1.
          1   -1    0    0  501    0  0.00000000000E+00 -0.00000000000E+00 -0.33713115106E+04  0.33713115106E+04  0.00000000000E+00 0. -1.
         23    2    1    2    0    0  0.12886238557E+04 -0.70762108406E+03 -0.26816162899E+04  0.30595095505E+04  0.90850003935E+02 0.  0.
         11    1    3    3    0    0  0.43937663100E+03 -0.19668613556E+03 -0.84171085550E+03  0.96964654594E+03  0.00000000000E+00 0. -1.
        -11    1    3    3    0    0  0.84924722475E+03 -0.51093494850E+03 -0.18399054344E+04  0.20898630046E+04  0.00000000000E+00 0.  1.
         22    1    1    2    0    0 -0.12886238557E+04  0.70762108406E+03  0.57827543571E+03  0.15797726165E+04  0.00000000000E+00 0.  1.
<mgrwt>
<rscale>  0 0.41350812E+04</rscale>
<asrwt>0</asrwt>
<pdfrwt beam="1">  1        1 0.51866330E+00 0.41350812E+04</pdfrwt>
<pdfrwt beam="2">  1       -1 0.19507241E+00 0.41350812E+04</pdfrwt>
<totfact> 0.39640044E-02</totfact>
</mgrwt>
</event>
<event>
 6    1  0.1585031E-006  0.9833305E+03  0.7818608E-02  0.9327019E-01
         -2   -1    0    0    0  501 -0.00000000000E+00  0.00000000000E+00  0.57798135728E+03  0.57798135728E+03  0.00000000000E+00 0.  1.
          2   -1    0    0  501    0  0.00000000000E+00 -0.00000000000E+00 -0.41823961632E+03  0.41823961632E+03  0.00000000000E+00 0. -1.
         23    2    1    2    0    0 -0.92228497240E+02 -0.28751705737E+03  0.46846770831E+03  0.56438318358E+03  0.88849480561E+02 0.  0.
         13    1    3    3    0    0  0.15267296850E+02 -0.16359261458E+02  0.43868674310E+02  0.49246079786E+02  0.00000000000E+00 0. -1.
        -13    1    3    3    0    0 -0.10749579409E+03 -0.27115779591E+03  0.42459903400E+03  0.51513710379E+03  0.00000000000E+00 0.  1.
         22    1    1    2    0    0  0.92228497240E+02  0.28751705737E+03 -0.30872596735E+03  0.43183779003E+03  0.00000000000E+00 0. -1.
<mgrwt>
<rscale>  0 0.98333047E+03</rscale>
<asrwt>0</asrwt>
<pdfrwt beam="1">  1        2 0.64344556E-01 0.98333047E+03</pdfrwt>
<pdfrwt beam="2">  1       -2 0.88920209E-01 0.98333047E+03</pdfrwt>
<totfact> 0.82137829E+01</totfact>
</mgrwt>
</event>
<event>
 6    1  0.1585031E-006  0.2166645E+04  0.7818608E-02  0.8532441E-01
          1   -1    0    0  501    0  0.00000000000E+00  0.00000000000E+00  0.26597045073E+04  0.26597045073E+04  0.00000000000E+00 0. -1.
         -1   -1    0    0    0  501 -0.00000000000E+00 -0.00000000000E+00 -0.44124724923E+03  0.44124724923E+03  0.00000000000E+00 0.  1.
         23    2    1    2    0    0 -0.90307271487E+03 -0.54167755513E+03  0.14623834117E+04  0.18045711939E+04  0.94641686850E+02 0.  0.
         11    1    3    3    0    0 -0.14870720536E+03 -0.52284755422E+02  0.19928714095E+03  0.25409229254E+03  0.00000000000E+00 0. -1.
        -11    1    3    3    0    0 -0.75436550951E+03 -0.48939279971E+03  0.12630962708E+04  0.15504789014E+04  0.00000000000E+00 0.  1.
         22    1    1    2    0    0  0.90307271487E+03  0.54167755513E+03  0.75607384635E+03  0.12963805626E+04  0.00000000000E+00 0.  1.
<mgrwt>
<rscale>  0 0.21666447E+04</rscale>
<asrwt>0</asrwt>
<pdfrwt beam="1">  1        1 0.40918530E+00 0.21666447E+04</pdfrwt>
<pdfrwt beam="2">  1       -1 0.67884194E-01 0.21666447E+04</pdfrwt>
<totfact> 0.21055980E+00</totfact>
</mgrwt>
</event>
<event>
 6    1  0.1585031E-006  0.1786811E+04  0.7818608E-02  0.8713345E-01
         -2   -1    0    0    0  501 -0.00000000000E+00  0.00000000000E+00  0.11247900858E+04  0.11247900858E+04  0.00000000000E+00 0.  1.
          2   -1    0    0  501    0  0.00000000000E+00 -0.00000000000E+00 -0.70961980750E+03  0.70961980750E+03  0.00000000000E+00 0. -1.
         23    2    1    2    0    0  0.90788725984E+02 -0.23591951555E+03 -0.66907560430E+03  0.72108615579E+03  0.91664983591E+02 0.  0.
         11    1    3    3    0    0  0.42838633894E+02 -0.20128109291E+03 -0.56590626790E+03  0.60216204710E+03  0.00000000000E+00 0.  1.
        -11    1    3    3    0    0  0.47950092089E+02 -0.34638422636E+02 -0.10316933640E+03  0.11892410869E+03  0.00000000000E+00 0. -1.
         22    1    1    2    0    0 -0.90788725984E+02  0.23591951555E+03  0.10842458826E+04  0.11133237375E+04  0.00000000000E+00 0.  1.
<mgrwt>
<rscale>  0 0.17868109E+04</rscale>
<asrwt>0</asrwt>
<pdfrwt beam="1">  1        2 0.10917228E+00 0.17868109E+04</pdfrwt>
<pdfrwt beam="2">  1       -2 0.17304463E+00 0.17868109E+04</pdfrwt>
<totfact> 0.77127336E+00</totfact>
</mgrwt>
</event>
<event>
 6    1  0.1585031E-006  0.7893066E+03  0.7818608E-02  0.9575626E-01
         -1   -1    0    0    0  501 -0.00000000000E+00  0.00000000000E+00  0.22594482138E+03  0.22594482138E+03  0.00000000000E+00 0.  1.
          1   -1    0    0  501    0  0.00000000000E+00 -0.00000000000E+00 -0.68933298362E+03  0.68933298362E+03  0.00000000000E+00 0. -1.
         23    2    1    2    0    0  0.22143625324E+02 -0.26614113024E+03  0.92818229225E+02  0.29827943284E+03  0.95047120059E+02 0.  0.
         13    1    3    3    0    0 -0.16157859946E+02 -0.26810953634E+02  0.38985158809E+02  0.49997462737E+02  0.00000000000E+00 0. -1.
        -13    1    3    3    0    0  0.38301485270E+02 -0.23933017661E+03  0.53833070417E+02  0.24828197010E+03  0.00000000000E+00 0.  1.
         22    1    1    2    0    0 -0.22143625324E+02  0.26614113024E+03 -0.55620639146E+03  0.61699837216E+03  0.00000000000E+00 0. -1.
<mgrwt>
<rscale>  0 0.78930658E+03</rscale>
<asrwt>0</asrwt>
<pdfrwt beam="1">  1        1 0.10605123E+00 0.78930658E+03</pdfrwt>
<pdfrwt beam="2">  1       -1 0.34760742E-01 0.78930658E+03</pdfrwt>
<totfact> 0.22135218E+02</totfact>
</mgrwt>
</event>
<event>
 6    1  0.1585031E-006  0.2530108E+04  0.7818608E-02  0.8392337E-01
         -1   -1    0    0    0  501 -0.00000000000E+00  0.00000000000E+00  0.12919206946E+04  0.12919206946E+04  0.00000000000E+00 0.  1.
          1   -1    0    0  501    0  0.00000000000E+00 -0.00000000000E+00 -0.12387457729E+04  0.12387457729E+04  0.00000000000E+00 0. -1.
         23    2    1    2    0    0 -0.55836232511E+03  0.17744068139E+03 -0.10931519594E+04  0.12432974452E+04  0.86911733120E+02 0.  0.
         11    1    3    3    0    0 -0.42305232825E+03  0.16237673394E+03 -0.78484050050E+03  0.90626380673E+03  0.00000000000E+00 0. -1.
        -11    1    3    3    0    0 -0.13530999686E+03  0.15063947456E+02 -0.30831145890E+03  0.33703363846E+03  0.00000000000E+00 0.  1.
         22    1    1    2    0    0  0.55836232511E+03 -0.17744068139E+03  0.11463268811E+04  0.12873690224E+04  0.00000000000E+00 0.  1.
<mgrwt>
<rscale>  0 0.25301077E+04</rscale>
<asrwt>0</asrwt>
<pdfrwt beam="1">  1        1 0.19057627E+00 0.25301077E+04</pdfrwt>
<pdfrwt beam="2">  1       -1 0.19875703E+00 0.25301077E+04</pdfrwt>
<totfact> 0.13620657E+00</totfact>
</mgrwt>
</event>
<event>
 6    1  0.1585031E-006  0.1221837E+04  0.7818608E-02  0.9093954E-01
         -1   -1    0    0    0  501 -0.00000000000E+00  0.00000000000E+00  0.83623743636E+03  0.83623743636E+03  0.00000000000E+00 0.  1.
          1   -1    0    0  501    0  0.00000000000E+00 -0.00000000000E+00 -0.44631038342E+03  0.44631038342E+03  0.00000000000E+00 0. -1.
         23    2    1    2    0    0 -0.60265860040E+02 -0.58922128728E+03  0.33780412573E+03  0.68796351221E+03  0.91479328258E+02 0.  0.
         13    1    3    3    0    0 -0.25923611622E+01 -0.77881603451E+02  0.82661582365E+02  0.11360106378E+03  0.00000000000E+00 0.  1.
        -13    1    3    3    0    0 -0.57673498878E+02 -0.51133968383E+03  0.25514254337E+03  0.57436244843E+03  0.00000000000E+00 0. -1.
         22    1    1    2    0    0  0.60265860040E+02  0.58922128728E+03  0.52122927208E+02  0.59458430757E+03  0.00000000000E+00 0.  1.
<mgrwt>
<rscale>  0 0.12218371E+04</rscale>
<asrwt>0</asrwt>
<pdfrwt beam="1">  1        1 0.68663136E-01 0.12218371E+04</pdfrwt>
<pdfrwt beam="2">  1       -1 0.12865191E+00 0.12218371E+04</pdfrwt>
<totfact> 0.26648821E+01</totfact>
</mgrwt>
</event>
<event>
 6    1  0.1585031E-006  0.4248858E+04  0.7818608E-02  0.7956143E-01
          2   -1    0    0  501    0  0.00000000000E+00  0.00000000000E+00  0.38475264125E+04  0.38475264125E+04  0.00000000000E+00 0.  1.
         -2   -1    0    0    0  501 -0.00000000000E+00 -0.00000000000E+00 -0.11730129622E+04  0.11730129622E+04  0.00000000000E+00 0. -1.
         23    2    1    2    0    0 -0.11098197267E+04 -0.35553174708E+03  0.34353521714E+04  0.36287857297E+04  0.91316383004E+02 0.  0.
         13    1    3    3    0    0 -0.71374356616E+03 -0.25637174249E+03  0.21235658817E+04  0.22549253651E+04  0.00000000000E+00 0.  1.
        -13    1    3    3    0    0 -0.39607616055E+03 -0.99160004594E+02  0.13117862897E+04  0.13738603646E+04  0.00000000000E+00 0. -1.
         22    1    1    2    0    0  0.11098197267E+04  0.35553174708E+03 -0.76083872102E+03  0.13917536450E+04  0.00000000000E+00 0. -1.
<mgrwt>
<rscale>  0 0.42488579E+04</rscale>
<asrwt>0</asrwt>
<pdfrwt beam="1">  1        2 0.59192714E+00 0.42488579E+04</pdfrwt>
<pdfrwt beam="2">  1       -2 0.18046353E+00 0.42488579E+04</pdfrwt>
<totfact> 0.62650444E-02</totfact>
</mgrwt>
</event>
<event>
 6    1  0.1585031E-006  0.1879357E+04  0.7818608E-02  0.8665200E-01
          2   -1    0    0  501    0  0.00000000000E+00  0.00000000000E+00  0.64189631290E+03  0.64189631290E+03  0.00000000000E+00 0. -1.
         -2   -1    0    0    0  501 -0.00000000000E+00 -0.00000000000E+00 -0.13756047921E+04  0.13756047921E+04  0.00000000000E+00 0.  1.
         23    2    1    2    0    0  0.63195278171E+02  0.72936697533E+03  0.26054915533E+03  0.78278734396E+03  0.94341590120E+02 0.  0.
         11    1    3    3    0    0  0.26500649087E+02  0.53697321978E+03  0.22914971168E+03  0.58442460038E+03  0.00000000000E+00 0.  1.
        -11    1    3    3    0    0  0.36694629083E+02  0.19239375555E+03  0.31399443654E+02  0.19836274358E+03  0.00000000000E+00 0. -1.
         22    1    1    2    0    0 -0.63195278171E+02 -0.72936697533E+03 -0.99425763454E+03  0.12347137610E+04  0.00000000000E+00 0.  1.
<mgrwt>
<rscale>  0 0.18793570E+04</rscale>
<asrwt>0</asrwt>
<pdfrwt beam="1">  1        2 0.98753278E-01 0.18793570E+04</pdfrwt>
<pdfrwt beam="2">  1       -2 0.21163151E+00 0.18793570E+04</pdfrwt>
<totfact> 0.47849881E+00</totfact>
</mgrwt>
</event>
<event>
 6    1  0.1919616E-006  0.3877005E+04  0.7818608E-02  0.8029829E-01
          1   -1    0    0  501    0  0.00000000000E+00  0.00000000000E+00  0.26013219723E+04  0.26013219723E+04  0.00000000000E+00 0. -1.
         -1   -1    0    0    0  501 -0.00000000000E+00 -0.00000000000E+00 -0.14445697592E+04  0.14445697592E+04  0.00000000000E+00 0.  1.
         23    2    1    2    0    0  0.76483408917E+03  0.16732011540E+03 -0.12706682908E+04  0.14953354182E+04  0.91994036301E+02 0.  0.
         13    1    3    3    0    0  0.46036358548E+03  0.55331623434E+02 -0.73021019149E+03  0.86498736588E+03  0.00000000000E+00 0. -1.
        -13    1    3    3    0    0  0.30447050369E+03  0.11198849196E+03 -0.54045809930E+03  0.63034805231E+03  0.00000000000E+00 0.  1.
         22    1    1    2    0    0 -0.76483408917E+03 -0.16732011540E+03  0.24274205039E+04  0.25505563134E+04  0.00000000000E+00 0. -1.
<mgrwt>
<rscale>  0 0.38770045E+04</rscale>
<asrwt>0</asrwt>
<pdfrwt beam="1">  1        1 0.40020338E+00 0.38770045E+04</pdfrwt>
<pdfrwt beam="2">  1       -1 0.22224150E+00 0.38770045E+04</pdfrwt>
<totfact> 0.96764556E-02</totfact>
</mgrwt>
</event>
<event>
 6    1  0.1585031E-006  0.1144956E+04  0.7818608E-02  0.9162449E-01
          1   -1    0    0  501    0  0.00000000000E+00  0.00000000000E+00  0.53566179088E+03  0.53566179088E+03  0.00000000000E+00 0. -1.
         -1   -1    0    0    0  501 -0.00000000000E+00 -0.00000000000E+00 -0.61182485266E+03  0.61182485266E+03  0.00000000000E+00 0.  1.
         23    2    1    2    0    0 -0.22452613293E+03  0.31954437234E+03 -0.45288349507E+03  0.60486442217E+03  0.90757472631E+02 0.  0.
         11    1    3    3    0    0 -0.37495607626E+02  0.90826752005E+02 -0.67296917307E+02  0.11909783604E+03  0.00000000000E+00 0. -1.
        -11    1    3    3    0    0 -0.18703052530E+03  0.22871762033E+03 -0.38558657777E+03  0.48576658613E+03  0.00000000000E+00 0.  1.
         22    1    1    2    0    0  0.22452613293E+03 -0.31954437234E+03  0.37672043330E+03  0.54262222137E+03  0.00000000000E+00 0. -1.
<mgrwt>
<rscale>  0 0.11449562E+04</rscale>
<asrwt>0</asrwt>
<pdfrwt beam="1">  1        1 0.82409506E-01 0.11449562E+04</pdfrwt>
<pdfrwt beam="2">  1       -1 0.94126900E-01 0.11449562E+04</pdfrwt>
<totfact> 0.43755506E+01</totfact>
</mgrwt>
</event>
<event>
 6    1  0.1585031E-006  0.1105984E+04  0.7818608E-02  0.9199379E-01
         -1   -1    0    0    0  501 -0.00000000000E+00  0.00000000000E+00  0.89094336577E+03  0.89094336577E+03  0.00000000000E+00 0.  1.
          1   -1    0    0  501    0  0.00000000000E+00 -0.00000000000E+00 -0.34323211413E+03  0.34323211413E+03  0.00000000000E+00 0. -1.
         23    2    1    2    0    0  0.70802868894E+02  0.39192345741E+03 -0.14636511923E+03  0.43395110430E+03  0.90960266524E+02 0.  0.
         11    1    3    3    0    0  0.81541586980E+02  0.33061966085E+03 -0.95755009594E+02  0.35373353306E+03  0.00000000000E+00 0.  1.
        -11    1    3    3    0    0 -0.10738718087E+02  0.61303796559E+02 -0.50610109637E+02  0.80217571243E+02  0.00000000000E+00 0. -1.
         22    1    1    2    0    0 -0.70802868894E+02 -0.39192345741E+03  0.69407637087E+03  0.80022437560E+03  0.00000000000E+00 0.  1.
<mgrwt>
<rscale>  0 0.11059844E+04</rscale>
<asrwt>0</asrwt>
<pdfrwt beam="1">  1        1 0.52804941E-01 0.11059844E+04</pdfrwt>
<pdfrwt beam="2">  1       -1 0.13706821E+00 0.11059844E+04</pdfrwt>
<totfact> 0.32428660E+01</totfact>
</mgrwt>
</event>
<event>
 6    1  0.1585031E-006  0.2918968E+04  0.7818608E-02  0.8267256E-01
          2   -1    0    0  501    0  0.00000000000E+00  0.00000000000E+00  0.32871367402E+04  0.32871367402E+04  0.00000000000E+00 0. -1.
         -2   -1    0    0    0  501 -0.00000000000E+00 -0.00000000000E+00 -0.64800892671E+03  0.64800892671E+03  0.00000000000E+00 0.  1.
         23    2    1    2    0    0  0.12118052260E+04 -0.21160535997E+03  0.26585172971E+03  0.12620036759E+04  0.93420563047E+02 0.  0.
         11    1    3    3    0    0  0.66418621733E+03 -0.15466008884E+03  0.11990469693E+03  0.69241621206E+03  0.00000000000E+00 0. -1.
        -11    1    3    3    0    0  0.54761900870E+03 -0.56945271124E+02  0.14594703278E+03  0.56958746385E+03  0.00000000000E+00 0.  1.
         22    1    1    2    0    0 -0.12118052260E+04  0.21160535997E+03  0.23732760838E+04  0.26731419910E+04  0.00000000000E+00 0. -1.
<mgrwt>
<rscale>  0 0.29189683E+04</rscale>
<asrwt>0</asrwt>
<pdfrwt beam="1">  1        2 0.50571334E+00 0.29189683E+04</pdfrwt>
<pdfrwt beam="2">  1       -2 0.99693683E-01 0.29189683E+04</pdfrwt>
<totfact> 0.81406150E-01</totfact>
</mgrwt>
</event>
<event>
 6    1  0.1585031E-006  0.1288822E+04  0.7818608E-02  0.9038477E-01
         -1   -1    0    0    0  501 -0.00000000000E+00  0.00000000000E+00  0.30885382710E+03  0.30885382710E+03  0.00000000000E+00 0. -1.
          1   -1    0    0  501    0  0.00000000000E+00 -0.00000000000E+00 -0.13445372440E+04  0.13445372440E+04  0.00000000000E+00 0.  1.
         23    2    1    2    0    0  0.62492353468E+03 -0.10143068075E+03 -0.38999871444E+03  0.74910884625E+03  0.90815522183E+02 0.  0.
         11    1    3    3    0    0  0.20204168842E+03 -0.47121238326E+02 -0.17600268726E+03  0.27206286200E+03  0.00000000000E+00 0.  1.
        -11    1    3    3    0    0  0.42288184626E+03 -0.54309442425E+02 -0.21399602719E+03  0.47704598425E+03  0.00000000000E+00 0. -1.
         22    1    1    2    0    0 -0.62492353468E+03  0.10143068075E+03 -0.64568470243E+03  0.90428222484E+03  0.00000000000E+00 0.  1.
<mgrwt>
<rscale>  0 0.12888219E+04</rscale>
<asrwt>0</asrwt>
<pdfrwt beam="1">  1        1 0.20685189E+00 0.12888219E+04</pdfrwt>
<pdfrwt beam="2">  1       -1 0.47515973E-01 0.12888219E+04</pdfrwt>
<totfact> 0.36548016E+01</totfact>
</mgrwt>
</event>
<event>
 6    1  0.1585031E-006  0.1066207E+04  0.7818608E-02  0.9238769E-01
         -4   -1    0    0    0  501 -0.00000000000E+00  0.00000000000E+00  0.67612499851E+03  0.67612499851E+03  0.00000000000E+00 0.  1.
          4   -1    0    0  501    0  0.00000000000E+00 -0.00000000000E+00 -0.42033564750E+03  0.42033564750E+03  0.00000000000E+00 0. -1.
         23    2    1    2    0    0  0.22091898703E+03  0.43333536634E+03  0.34342516556E+03  0.60222914707E+03  0.90301509921E+02 0.  0.
         13    1    3    3    0    0  0.15541993868E+03  0.28741691037E+03  0.17783622103E+03  0.37200747199E+03  0.00000000000E+00 0. -1.
        -13    1    3    3    0    0  0.65499048345E+02  0.14591845597E+03  0.16558894453E+03  0.23022167508E+03  0.00000000000E+00 0.  1.
         22    1    1    2    0    0 -0.22091898703E+03 -0.43333536634E+03 -0.87635814551E+02  0.49423149894E+03  0.00000000000E+00 0. -1.
<mgrwt>
<rscale>  0 0.10662072E+04</rscale>
<asrwt>0</asrwt>
<pdfrwt beam="1">  1        4 0.64667023E-01 0.10662072E+04</pdfrwt>
<pdfrwt beam="2">  1       -4 0.10401923E+00 0.10662072E+04</pdfrwt>
<totfact> 0.33136820E+00</totfact>
</mgrwt>
</event>
<event>
 6    1  0.1585031E-006  0.2867237E+04  0.7818608E-02  0.8282693E-01
         -2   -1    0    0    0  501 -0.00000000000E+00  0.00000000000E+00  0.87345609509E+03  0.87345609509E+03  0.00000000000E+00 0.  1.
          2   -1    0    0  501    0  0.00000000000E+00 -0.00000000000E+00 -0.23530220752E+04  0.23530220752E+04  0.00000000000E+00 0. -1.
         23    2    1    2    0    0  0.11515853132E+04 -0.60191815663E+03 -0.62738929377E+02  0.13040180036E+04  0.89847534792E+02 0.  0.
         11    1    3    3    0    0  0.80157905395E+03 -0.37165762439E+03 -0.43854754547E+02  0.88463642758E+03  0.00000000000E+00 0. -1.
        -11    1    3    3    0    0  0.35000625926E+03 -0.23026053224E+03 -0.18884174830E+02  0.41938157600E+03  0.00000000000E+00 0.  1.
         22    1    1    2    0    0 -0.11515853132E+04  0.60191815663E+03 -0.14168270507E+04  0.19224601667E+04  0.00000000000E+00 0. -1.
<mgrwt>
<rscale>  0 0.28672366E+04</rscale>
<asrwt>0</asrwt>
<pdfrwt beam="1">  1        2 0.36200339E+00 0.28672366E+04</pdfrwt>
<pdfrwt beam="2">  1       -2 0.13437786E+00 0.28672366E+04</pdfrwt>
<totfact> 0.14608518E+00</totfact>
</mgrwt>
</event>
<event>
 6    1  0.3522174E-006  0.4863287E+04  0.7818608E-02  0.7849950E-01
         -2   -1    0    0    0  501 -0.00000000000E+00  0.00000000000E+00  0.23390642780E+04  0.23390642780E+04  0.00000000000E+00 0.  1.
          2   -1    0    0  501    0  0.00000000000E+00 -0.00000000000E+00 -0.25278867830E+04  0.25278867830E+04  0.00000000000E+00 0. -1.
         23    2    1    2    0    0  0.27187455257E+03  0.38440701141E+03  0.22920891184E+04  0.23417566119E+04  0.92016192552E+02 0.  0.
         11    1    3    3    0    0  0.75153886180E+02  0.13975010103E+03  0.97092942393E+03  0.98381001397E+03  0.00000000000E+00 0. -1.
        -11    1    3    3    0    0  0.19672066639E+03  0.24465691038E+03  0.13211596945E+04  0.13579465979E+04  0.00000000000E+00 0.  1.
         22    1    1    2    0    0 -0.27187455257E+03 -0.38440701141E+03 -0.24809116235E+04  0.25251944492E+04  0.00000000000E+00 0. -1.
<mgrwt>
<rscale>  0 0.48632868E+04</rscale>
<asrwt>0</asrwt>
<pdfrwt beam="1">  1        2 0.38890566E+00 0.48632868E+04</pdfrwt>
<pdfrwt beam="2">  1       -2 0.35985604E+00 0.48632868E+04</pdfrwt>
<totfact> 0.33263861E-02</totfact>
</mgrwt>
</event>
<event>
 6    1  0.1585031E-006  0.1131165E+04  0.7818608E-02  0.9175337E-01
          2   -1    0    0  501    0  0.00000000000E+00  0.00000000000E+00  0.14453168361E+04  0.14453168361E+04  0.00000000000E+00 0. -1.
         -2   -1    0    0    0  501 -0.00000000000E+00 -0.00000000000E+00 -0.22132424654E+03  0.22132424654E+03  0.00000000000E+00 0.  1.
         23    2    1    2    0    0  0.10580340433E+03  0.42268978974E+03  0.93216218256E+02  0.45481757213E+03  0.91152300319E+02 0.  0.
         11    1    3    3    0    0  0.66602233141E+02  0.26806969330E+03  0.13635213610E+02  0.27655584784E+03  0.00000000000E+00 0. -1.
        -11    1    3    3    0    0  0.39201171190E+02  0.15462009644E+03  0.79581004645E+02  0.17826172429E+03  0.00000000000E+00 0.  1.
         22    1    1    2    0    0 -0.10580340433E+03 -0.42268978974E+03  0.11307763713E+04  0.12118235105E+04  0.00000000000E+00 0. -1.
<mgrwt>
<rscale>  0 0.11311652E+04</rscale>
<asrwt>0</asrwt>
<pdfrwt beam="1">  1        2 0.22235643E+00 0.11311652E+04</pdfrwt>
<pdfrwt beam="2">  1       -2 0.34049885E-01 0.11311652E+04</pdfrwt>
<totfact> 0.10900995E+02</totfact>
</mgrwt>
</event>
<event>
 6    1  0.1585031E-006  0.2750036E+04  0.7818608E-02  0.8318950E-01
          1   -1    0    0  501    0  0.00000000000E+00  0.00000000000E+00  0.99051369676E+03  0.99051369676E+03  0.00000000000E+00 0. -1.
         -1   -1    0    0    0  501 -0.00000000000E+00 -0.00000000000E+00 -0.19087818543E+04  0.19087818543E+04  0.00000000000E+00 0.  1.
         23    2    1    2    0    0  0.43716443377E+03  0.11994760124E+04 -0.99205771087E+03  0.16205069271E+04  0.10958445431E+03 0.  0.
         11    1    3    3    0    0  0.17618482785E+03  0.63702731130E+03 -0.53111927037E+03  0.84789891394E+03  0.00000000000E+00 0.  1.
        -11    1    3    3    0    0  0.26097960592E+03  0.56244870114E+03 -0.46093844051E+03  0.77260801320E+03  0.00000000000E+00 0. -1.
         22    1    1    2    0    0 -0.43716443377E+03 -0.11994760124E+04  0.73789553312E+02  0.12787886240E+04  0.00000000000E+00 0. -1.
<mgrwt>
<rscale>  0 0.27500361E+04</rscale>
<asrwt>0</asrwt>
<pdfrwt beam="1">  1        1 0.15238673E+00 0.27500361E+04</pdfrwt>
<pdfrwt beam="2">  1       -1 0.29365874E+00 0.27500361E+04</pdfrwt>
<totfact> 0.48581231E-01</totfact>
</mgrwt>
</event>
<event>
 6    1  0.1585031E-006  0.3093831E+04  0.7818608E-02  0.8217433E-01
         -1   -1    0    0    0  501 -0.00000000000E+00  0.00000000000E+00  0.14156976728E+04  0.14156976728E+04  0.00000000000E+00 0.  1.
          1   -1    0    0  501    0  0.00000000000E+00 -0.00000000000E+00 -0.16902954553E+04  0.16902954553E+04  0.00000000000E+00 0. -1.
         23    2    1    2    0    0  0.14368334259E+04 -0.44958115396E+02  0.43245732674E+03  0.15039823748E+04  0.91826566554E+02 0.  0.
         13    1    3    3    0    0  0.10032780433E+04  0.51895876351E+01  0.32326705187E+03  0.10540850776E+04  0.00000000000E+00 0.  1.
        -13    1    3    3    0    0  0.43355538266E+03 -0.50147703031E+02  0.10919027486E+03  0.44989729725E+03  0.00000000000E+00 0. -1.
         22    1    1    2    0    0 -0.14368334259E+04  0.44958115396E+02 -0.70705510926E+03  0.16020107533E+04  0.00000000000E+00 0. -1.
<mgrwt>
<rscale>  0 0.30938309E+04</rscale>
<asrwt>0</asrwt>
<pdfrwt beam="1">  1        1 0.26004545E+00 0.30938309E+04</pdfrwt>
<pdfrwt beam="2">  1       -1 0.21779964E+00 0.30938309E+04</pdfrwt>
<totfact> 0.46521507E-01</totfact>
</mgrwt>
</event>
<event>
 6    1  0.1585031E-006  0.2929073E+04  0.7818608E-02  0.8264280E-01
          3   -1    0    0  501    0  0.00000000000E+00  0.00000000000E+00  0.12039001868E+04  0.12039001868E+04  0.00000000000E+00 0. -1.
         -3   -1    0    0    0  501 -0.00000000000E+00 -0.00000000000E+00 -0.17815989856E+04  0.17815989856E+04  0.00000000000E+00 0.  1.
         23    2    1    2    0    0 -0.12428911906E+04 -0.25002914229E+03  0.45511528139E+03  0.13502627956E+04  0.93736941681E+02 0.  0.
         13    1    3    3    0    0 -0.10055891592E+04 -0.18034716561E+03  0.39808199117E+03  0.10964506049E+04  0.00000000000E+00 0. -1.
        -13    1    3    3    0    0 -0.23730203136E+03 -0.69681976671E+02  0.57033290223E+02  0.25381219071E+03  0.00000000000E+00 0.  1.
         22    1    1    2    0    0  0.12428911906E+04  0.25002914229E+03 -0.10328140802E+04  0.16352363768E+04  0.00000000000E+00 0.  1.
<mgrwt>
<rscale>  0 0.29290731E+04</rscale>
<asrwt>0</asrwt>
<pdfrwt beam="1">  1        3 0.18521541E+00 0.29290731E+04</pdfrwt>
<pdfrwt beam="2">  1       -3 0.27409215E+00 0.29290731E+04</pdfrwt>
<totfact> 0.21794613E-02</totfact>
</mgrwt>
</event>
<event>
 6    1  0.1585031E-006  0.2256114E+04  0.7818608E-02  0.8495429E-01
          2   -1    0    0  501    0  0.00000000000E+00  0.00000000000E+00  0.12103946789E+04  0.12103946789E+04  0.00000000000E+00 0. -1.
         -2   -1    0    0    0  501 -0.00000000000E+00 -0.00000000000E+00 -0.10513202310E+04  0.10513202310E+04  0.00000000000E+00 0.  1.
         23    2    1    2    0    0 -0.61650031071E+03 -0.49148708918E+03  0.88572934625E+03  0.11894931357E+04  0.93516057747E+02 0.  0.
         11    1    3    3    0    0 -0.34107461615E+03 -0.27840666982E+03  0.56301653933E+03  0.71472357673E+03  0.00000000000E+00 0.  1.
        -11    1    3    3    0    0 -0.27542569457E+03 -0.21308041936E+03  0.32271280692E+03  0.47476955894E+03  0.00000000000E+00 0. -1.
         22    1    1    2    0    0  0.61650031071E+03  0.49148708918E+03 -0.72665489835E+03  0.10722217743E+04  0.00000000000E+00 0.  1.
<mgrwt>
<rscale>  0 0.22561138E+04</rscale>
<asrwt>0</asrwt>
<pdfrwt beam="1">  1        2 0.18621457E+00 0.22561138E+04</pdfrwt>
<pdfrwt beam="2">  1       -2 0.16174157E+00 0.22561138E+04</pdfrwt>
<totfact> 0.41548926E+00</totfact>
</mgrwt>
</event>
<event>
 6    1  0.1585031E-006  0.3140476E+04  0.7818608E-02  0.8204717E-01
          1   -1    0    0  501    0  0.00000000000E+00  0.00000000000E+00  0.19292415324E+04  0.19292415324E+04  0.00000000000E+00 0. -1.
         -1   -1    0    0    0  501 -0.00000000000E+00 -0.00000000000E+00 -0.12780395330E+04  0.12780395330E+04  0.00000000000E+00 0.  1.
         23    2    1    2    0    0  0.32846863781E+03  0.44540727330E+03  0.18251671483E+04  0.19094083998E+04  0.91247095927E+02 0.  0.
         11    1    3    3    0    0  0.77543439069E+02  0.89526591977E+02  0.52738154465E+03  0.54051761234E+03  0.00000000000E+00 0. -1.
        -11    1    3    3    0    0  0.25092519874E+03  0.35588068132E+03  0.12977856037E+04  0.13688907874E+04  0.00000000000E+00 0.  1.
         22    1    1    2    0    0 -0.32846863781E+03 -0.44540727330E+03 -0.11739651490E+04  0.12978726656E+04  0.00000000000E+00 0.  1.
<mgrwt>
<rscale>  0 0.31404757E+04</rscale>
<asrwt>0</asrwt>
<pdfrwt beam="1">  1        1 0.29680639E+00 0.31404757E+04</pdfrwt>
<pdfrwt beam="2">  1       -1 0.19662147E+00 0.31404757E+04</pdfrwt>
<totfact> 0.44459432E-01</totfact>
</mgrwt>
</event>
<event>
 6    1  0.1585031E-006  0.1641924E+04  0.7818608E-02  0.8795198E-01
         -1   -1    0    0    0  501 -0.00000000000E+00  0.00000000000E+00  0.78766678201E+03  0.78766678201E+03  0.00000000000E+00 0.  1.
          1   -1    0    0  501    0  0.00000000000E+00 -0.00000000000E+00 -0.85566488013E+03  0.85566488013E+03  0.00000000000E+00 0. -1.
         23    2    1    2    0    0  0.38862749225E+03 -0.71983756989E+03 -0.56835346269E+02  0.82521060644E+03  0.92438269393E+02 0.  0.
         11    1    3    3    0    0  0.24094568244E+03 -0.49991511698E+03 -0.33632157902E+01  0.55496059076E+03  0.00000000000E+00 0.  1.
        -11    1    3    3    0    0  0.14768180981E+03 -0.21992245291E+03 -0.53472130479E+02  0.27025001569E+03  0.00000000000E+00 0. -1.
         22    1    1    2    0    0 -0.38862749225E+03  0.71983756989E+03 -0.11162751849E+02  0.81812105570E+03  0.00000000000E+00 0. -1.
<mgrwt>
<rscale>  0 0.16419242E+04</rscale>
<asrwt>0</asrwt>
<pdfrwt beam="1">  1        1 0.13164075E+00 0.16419242E+04</pdfrwt>
<pdfrwt beam="2">  1       -1 0.12117950E+00 0.16419242E+04</pdfrwt>
<totfact> 0.11450390E+01</totfact>
</mgrwt>
</event>
<event>
 6    1  0.1585031E-006  0.4207518E+04  0.7818608E-02  0.7963944E-01
          2   -1    0    0  501    0  0.00000000000E+00  0.00000000000E+00  0.16276766391E+04  0.16276766391E+04  0.00000000000E+00 0. -1.
         -2   -1    0    0    0  501 -0.00000000000E+00 -0.00000000000E+00 -0.27190918635E+04  0.27190918635E+04  0.00000000000E+00 0.  1.
         23    2    1    2    0    0 -0.19876094390E+04  0.57070314686E+03 -0.94043998228E+03  0.22733445499E+04  0.85876183323E+02 0.  0.
         11    1    3    3    0    0 -0.91807788326E+03  0.30660001918E+03 -0.45228619394E+03  0.10683788526E+04  0.00000000000E+00 0. -1.
        -11    1    3    3    0    0 -0.10695315557E+04  0.26410312768E+03 -0.48815378833E+03  0.12049656973E+04  0.00000000000E+00 0.  1.
         22    1    1    2    0    0  0.19876094390E+04 -0.57070314686E+03 -0.15097524221E+03  0.20734239527E+04  0.00000000000E+00 0. -1.
<mgrwt>
<rscale>  0 0.42075182E+04</rscale>
<asrwt>0</asrwt>
<pdfrwt beam="1">  1        2 0.25041179E+00 0.42075182E+04</pdfrwt>
<pdfrwt beam="2">  1       -2 0.41832182E+00 0.42075182E+04</pdfrwt>
<totfact> 0.46953674E-02</totfact>
</mgrwt>
</event>
<event>
 6    1  0.1585031E-006  0.4901917E+03  0.7818608E-02  0.1016371E+00
          1   -1    0    0  501    0  0.00000000000E+00  0.00000000000E+00  0.67657916066E+03  0.67657916066E+03  0.00000000000E+00 0. -1.
         -1   -1    0    0    0  501 -0.00000000000E+00 -0.00000000000E+00 -0.88787782618E+02  0.88787782618E+02  0.00000000000E+00 0.  1.
         23    2    1    2    0    0 -0.17306322087E+02 -0.22073258669E+03  0.43449420248E+03  0.49606709618E+03  0.90966852830E+02 0.  0.
         11    1    3    3    0    0  0.37271419412E+02 -0.10481305758E+03  0.20129999309E+03  0.22999265849E+03  0.00000000000E+00 0. -1.
        -11    1    3    3    0    0 -0.54577741499E+02 -0.11591952912E+03  0.23319420940E+03  0.26607443769E+03  0.00000000000E+00 0.  1.
         22    1    1    2    0    0  0.17306322087E+02  0.22073258669E+03  0.15329717556E+03  0.26929984710E+03  0.00000000000E+00 0.  1.
<mgrwt>
<rscale>  0 0.49019165E+03</rscale>
<asrwt>0</asrwt>
<pdfrwt beam="1">  1        1 0.10408910E+00 0.49019165E+03</pdfrwt>
<pdfrwt beam="2">  1       -1 0.13659659E-01 0.49019165E+03</pdfrwt>
<totfact> 0.11052859E+03</totfact>
</mgrwt>
</event>
<event>
 6    1  0.1585031E-006  0.9128622E+03  0.7818608E-02  0.9409644E-01
          1   -1    0    0  501    0  0.00000000000E+00  0.00000000000E+00  0.25512128291E+03  0.25512128291E+03  0.00000000000E+00 0. -1.
         -1   -1    0    0    0  501 -0.00000000000E+00 -0.00000000000E+00 -0.81658943943E+03  0.81658943943E+03  0.00000000000E+00 0.  1.
         23    2    1    2    0    0 -0.79876040611E+02 -0.16795896429E+02 -0.80532895945E+03  0.81455245355E+03  0.90987266442E+02 0.  0.
         13    1    3    3    0    0  0.10099381138E+02  0.16723246922E+02 -0.26808802032E+03  0.26879890462E+03  0.00000000000E+00 0.  1.
        -13    1    3    3    0    0 -0.89975421749E+02 -0.33519143351E+02 -0.53724093913E+03  0.54575354893E+03  0.00000000000E+00 0. -1.
         22    1    1    2    0    0  0.79876040611E+02  0.16795896429E+02  0.24386080293E+03  0.25715826879E+03  0.00000000000E+00 0. -1.
<mgrwt>
<rscale>  0 0.91286219E+03</rscale>
<asrwt>0</asrwt>
<pdfrwt beam="1">  1        1 0.39249429E-01 0.91286219E+03</pdfrwt>
<pdfrwt beam="2">  1       -1 0.12562914E+00 0.91286219E+03</pdfrwt>
<totfact> 0.60324790E+01</totfact>
</mgrwt>
</event>
<event>
 6    1  0.1585031E-006  0.3535822E+04  0.7818608E-02  0.8105353E-01
          1   -1    0    0  501    0  0.00000000000E+00  0.00000000000E+00  0.22854259084E+04  0.22854259084E+04  0.00000000000E+00 0. -1.
         -1   -1    0    0    0  501 -0.00000000000E+00 -0.00000000000E+00 -0.13675829367E+04  0.13675829367E+04  0.00000000000E+00 0.  1.
         23    2    1    2    0    0 -0.71650099156E+03  0.15841576914E+04  0.13466179031E+03  0.17460998214E+04  0.88326249557E+02 0.  0.
         13    1    3    3    0    0 -0.35505293057E+03  0.69086272024E+03  0.39486283657E+02  0.77776156264E+03  0.00000000000E+00 0. -1.
        -13    1    3    3    0    0 -0.36144806099E+03  0.89329497112E+03  0.95175506648E+02  0.96833825871E+03  0.00000000000E+00 0.  1.
         22    1    1    2    0    0  0.71650099156E+03 -0.15841576914E+04  0.78318118142E+03  0.19069090238E+04  0.00000000000E+00 0. -1.
<mgrwt>
<rscale>  0 0.35358221E+04</rscale>
<asrwt>0</asrwt>
<pdfrwt beam="1">  1        1 0.35160399E+00 0.35358221E+04</pdfrwt>
<pdfrwt beam="2">  1       -1 0.21039737E+00 0.35358221E+04</pdfrwt>
<totfact> 0.19791832E-01</totfact>
</mgrwt>
</event>
<event>
 6    1  0.1585031E-006  0.2114859E+04  0.7818608E-02  0.8554726E-01
         -2   -1    0    0    0  501 -0.00000000000E+00  0.00000000000E+00  0.63044400346E+03  0.63044400346E+03  0.00000000000E+00 0.  1.
          2   -1    0    0  501    0  0.00000000000E+00 -0.00000000000E+00 -0.17736018702E+04  0.17736018702E+04  0.00000000000E+00 0. -1.
         23    2    1    2    0    0  0.65463034645E+03 -0.80266683872E+03 -0.80205259483E+03  0.13135561896E+04  0.96574084769E+02 0.  0.
         13    1    3    3    0    0  0.34535514675E+03 -0.34744058916E+03 -0.38272011555E+03  0.62165893159E+03  0.00000000000E+00 0.  1.
        -13    1    3    3    0    0  0.30927519971E+03 -0.45522624956E+03 -0.41933247928E+03  0.69189725800E+03  0.00000000000E+00 0. -1.
         22    1    1    2    0    0 -0.65463034645E+03  0.80266683872E+03 -0.34110527187E+03  0.10904896840E+04  0.00000000000E+00 0.  1.
<mgrwt>
<rscale>  0 0.21148585E+04</rscale>
<asrwt>0</asrwt>
<pdfrwt beam="1">  1        2 0.27286183E+00 0.21148585E+04</pdfrwt>
<pdfrwt beam="2">  1       -2 0.96991384E-01 0.21148585E+04</pdfrwt>
<totfact> 0.72928316E+00</totfact>
</mgrwt>
</event>
<event>
 6    1  0.1585031E-006  0.2019558E+04  0.7818608E-02  0.8597531E-01
         -2   -1    0    0    0  501 -0.00000000000E+00  0.00000000000E+00  0.14903792879E+04  0.14903792879E+04  0.00000000000E+00 0.  1.
          2   -1    0    0  501    0  0.00000000000E+00 -0.00000000000E+00 -0.68415744121E+03  0.68415744121E+03  0.00000000000E+00 0. -1.
         23    2    1    2    0    0 -0.52511116829E+03  0.20105047154E+03 -0.49650028430E+03  0.75564702877E+03  0.91251677282E+02 0.  0.
         11    1    3    3    0    0 -0.27835810267E+03  0.13892956205E+03 -0.22781654035E+03  0.38559698208E+03  0.00000000000E+00 0. -1.
        -11    1    3    3    0    0 -0.24675306562E+03  0.62120909485E+02 -0.26868374395E+03  0.37005004669E+03  0.00000000000E+00 0.  1.
         22    1    1    2    0    0  0.52511116829E+03 -0.20105047154E+03  0.13027221310E+04  0.14188897004E+04  0.00000000000E+00 0.  1.
<mgrwt>
<rscale>  0 0.20195584E+04</rscale>
<asrwt>0</asrwt>
<pdfrwt beam="1">  1        2 0.10525499E+00 0.20195584E+04</pdfrwt>
<pdfrwt beam="2">  1       -2 0.22928912E+00 0.20195584E+04</pdfrwt>
<totfact> 0.33778214E+00</totfact>
</mgrwt>
</event>
<event>
 6    1  0.1585031E-006  0.2718851E+04  0.7818608E-02  0.8328914E-01
         -2   -1    0    0    0  501 -0.00000000000E+00  0.00000000000E+00  0.10362884199E+04  0.10362884199E+04  0.00000000000E+00 0.  1.
          2   -1    0    0  501    0  0.00000000000E+00 -0.00000000000E+00 -0.17833230760E+04  0.17833230760E+04  0.00000000000E+00 0. -1.
         23    2    1    2    0    0  0.79805109157E+03 -0.54426859437E+02  0.76360324457E+03  0.11102622938E+04  0.98714832729E+02 0.  0.
         13    1    3    3    0    0  0.13023086810E+03 -0.22320013385E+02  0.17654517946E+03  0.22051408662E+03  0.00000000000E+00 0. -1.
        -13    1    3    3    0    0  0.66782022347E+03 -0.32106846052E+02  0.58705806511E+03  0.88974820721E+03  0.00000000000E+00 0.  1.
         22    1    1    2    0    0 -0.79805109157E+03  0.54426859437E+02 -0.15106379006E+04  0.17093492020E+04  0.00000000000E+00 0. -1.
<mgrwt>
<rscale>  0 0.27188505E+04</rscale>
<asrwt>0</asrwt>
<pdfrwt beam="1">  1        2 0.27435739E+00 0.27188505E+04</pdfrwt>
<pdfrwt beam="2">  1       -2 0.15942899E+00 0.27188505E+04</pdfrwt>
<totfact> 0.19642519E+00</totfact>
</mgrwt>
</event>
<event>
 6    1  0.1585031E-006  0.1960899E+04  0.7818608E-02  0.8625123E-01
         -2   -1    0    0    0  501 -0.00000000000E+00  0.00000000000E+00  0.31763470557E+03  0.31763470557E+03  0.00000000000E+00 0.  1.
          2   -1    0    0  501    0  0.00000000000E+00 -0.00000000000E+00 -0.30263729181E+04  0.30263729181E+04  0.00000000000E+00 0. -1.
         23    2    1    2    0    0  0.95171759609E+03  0.11623293787E+03 -0.16901017549E+04  0.19451163801E+04  0.88075601588E+02 0.  0.
         13    1    3    3    0    0  0.47135241706E+03  0.35413046572E+02 -0.75535161363E+03  0.89105737478E+03  0.00000000000E+00 0.  1.
        -13    1    3    3    0    0  0.48036517903E+03  0.80819891303E+02 -0.93475014129E+03  0.10540590053E+04  0.00000000000E+00 0. -1.
         22    1    1    2    0    0 -0.95171759609E+03 -0.11623293787E+03 -0.10186364576E+04  0.13988912436E+04  0.00000000000E+00 0. -1.
<mgrwt>
<rscale>  0 0.19608988E+04</rscale>
<asrwt>0</asrwt>
<pdfrwt beam="1">  1        2 0.46559585E+00 0.19608988E+04</pdfrwt>
<pdfrwt beam="2">  1       -2 0.48866876E-01 0.19608988E+04</pdfrwt>
<totfact> 0.62108945E+00</totfact>
</mgrwt>
</event>
<event>
 6    1  0.1585031E-006  0.9826470E+03  0.7818608E-02  0.9327785E-01
          2   -1    0    0  501    0  0.00000000000E+00  0.00000000000E+00  0.11260883201E+04  0.11260883201E+04  0.00000000000E+00 0. -1.
         -2   -1    0    0    0  501 -0.00000000000E+00 -0.00000000000E+00 -0.21436931856E+03  0.21436931856E+03  0.00000000000E+00 0.  1.
         23    2    1    2    0    0 -0.35591129438E+03  0.32591248638E+03  0.55223343855E+03  0.73869217915E+03  0.88388724670E+02 0.  0.
         11    1    3    3    0    0 -0.30902186023E+03  0.24295233539E+03  0.47091496520E+03  0.61341768137E+03  0.00000000000E+00 0. -1.
        -11    1    3    3    0    0 -0.46889434147E+02  0.82960150985E+02  0.81318473348E+02  0.12527449778E+03  0.00000000000E+00 0.  1.
         22    1    1    2    0    0  0.35591129438E+03 -0.32591248638E+03  0.35948556297E+03  0.60176545948E+03  0.00000000000E+00 0. -1.
<mgrwt>
<rscale>  0 0.98264701E+03</rscale>
<asrwt>0</asrwt>
<pdfrwt beam="1">  1        2 0.17324435E+00 0.98264701E+03</pdfrwt>
<pdfrwt beam="2">  1       -2 0.32979896E-01 0.98264701E+03</pdfrwt>
<totfact> 0.17975298E+02</totfact>
</mgrwt>
</event>
<event>
 6    1  0.1585031E-006  0.9418388E+03  0.7818608E-02  0.9374741E-01
         -2   -1    0    0    0  501 -0.00000000000E+00  0.00000000000E+00  0.13009003364E+03  0.13009003364E+03  0.00000000000E+00 0.  1.
          2   -1    0    0  501    0  0.00000000000E+00 -0.00000000000E+00 -0.17047047348E+04  0.17047047348E+04  0.00000000000E+00 0. -1.
         23    2    1    2    0    0 -0.18563084164E+03 -0.22515341045E+03 -0.84026195285E+02  0.31591130962E+03  0.87101586927E+02 0.  0.
         13    1    3    3    0    0 -0.18323028223E+03 -0.18787406054E+03 -0.53872523982E+02  0.26790342997E+03  0.00000000000E+00 0. -1.
        -13    1    3    3    0    0 -0.24005594108E+01 -0.37279349917E+02 -0.30153671303E+02  0.48007879653E+02  0.00000000000E+00 0.  1.
         22    1    1    2    0    0  0.18563084164E+03  0.22515341045E+03 -0.14905885059E+04  0.15188834588E+04  0.00000000000E+00 0. -1.
<mgrwt>
<rscale>  0 0.94183883E+03</rscale>
<asrwt>0</asrwt>
<pdfrwt beam="1">  1        2 0.26226226E+00 0.94183883E+03</pdfrwt>
<pdfrwt beam="2">  1       -2 0.20013852E-01 0.94183883E+03</pdfrwt>
<totfact> 0.20859319E+02</totfact>
</mgrwt>
</event>
<event>
 6    1  0.1585031E-006  0.1920715E+04  0.7818608E-02  0.8644614E-01
         -1   -1    0    0    0  501 -0.00000000000E+00  0.00000000000E+00  0.48432130862E+03  0.48432130862E+03  0.00000000000E+00 0.  1.
          1   -1    0    0  501    0  0.00000000000E+00 -0.00000000000E+00 -0.19042856926E+04  0.19042856926E+04  0.00000000000E+00 0. -1.
         23    2    1    2    0    0  0.58732862697E+03  0.16385385431E+03  0.20763207316E+03  0.65054105629E+03  0.91047166305E+02 0.  0.
         13    1    3    3    0    0  0.37826905528E+03  0.12862894622E+03  0.17440284216E+03  0.43594636751E+03  0.00000000000E+00 0. -1.
        -13    1    3    3    0    0  0.20905957168E+03  0.35224908088E+02  0.33229231006E+02  0.21459468879E+03  0.00000000000E+00 0.  1.
         22    1    1    2    0    0 -0.58732862697E+03 -0.16385385431E+03 -0.16275964571E+04  0.17380659449E+04  0.00000000000E+00 0. -1.
<mgrwt>
<rscale>  0 0.19207146E+04</rscale>
<asrwt>0</asrwt>
<pdfrwt beam="1">  1        1 0.29296703E+00 0.19207146E+04</pdfrwt>
<pdfrwt beam="2">  1       -1 0.74510970E-01 0.19207146E+04</pdfrwt>
<totfact> 0.58583793E+00</totfact>
</mgrwt>
</event>
<event>
 6    1  0.1585031E-006  0.3283863E+04  0.7818608E-02  0.8167014E-01
          2   -1    0    0  501    0  0.00000000000E+00  0.00000000000E+00  0.20721297872E+04  0.20721297872E+04  0.00000000000E+00 0. -1.
         -2   -1    0    0    0  501 -0.00000000000E+00 -0.00000000000E+00 -0.13010473916E+04  0.13010473916E+04  0.00000000000E+00 0.  1.
         23    2    1    2    0    0  0.15492894161E+04 -0.96443082102E+02  0.93170901661E+03  0.18126004026E+04  0.88541316385E+02 0.  0.
         11    1    3    3    0    0  0.14004307657E+04 -0.10764234246E+03  0.82283681293E+03  0.16278371000E+04  0.00000000000E+00 0.  1.
        -11    1    3    3    0    0  0.14885865046E+03  0.11199260359E+02  0.10887220369E+03  0.18476330260E+03  0.00000000000E+00 0. -1.
         22    1    1    2    0    0 -0.15492894161E+04  0.96443082102E+02 -0.16062662104E+03  0.15605767762E+04  0.00000000000E+00 0.  1.
<mgrwt>
<rscale>  0 0.32838630E+04</rscale>
<asrwt>0</asrwt>
<pdfrwt beam="1">  1        2 0.31878920E+00 0.32838630E+04</pdfrwt>
<pdfrwt beam="2">  1       -2 0.20016114E+00 0.32838630E+04</pdfrwt>
<totfact> 0.67581504E-01</totfact>
</mgrwt>
</event>
<event>
 6    1  0.1585031E-006  0.5217417E+04  0.7818608E-02  0.7795817E-01
         -2   -1    0    0    0  501 -0.00000000000E+00  0.00000000000E+00  0.19726514814E+04  0.19726514814E+04  0.00000000000E+00 0.  1.
          2   -1    0    0  501    0  0.00000000000E+00 -0.00000000000E+00 -0.34498546410E+04  0.34498546410E+04  0.00000000000E+00 0. -1.
         23    2    1    2    0    0 -0.13114145196E+04  0.21907728329E+04 -0.12914368907E+04  0.28624665223E+04  0.81312366903E+02 0.  0.
         11    1    3    3    0    0 -0.37118768572E+03  0.56328158532E+03 -0.36452689350E+03  0.76677656360E+03  0.00000000000E+00 0.  1.
        -11    1    3    3    0    0 -0.94022683387E+03  0.16274912476E+04 -0.92690999722E+03  0.20956899587E+04  0.00000000000E+00 0. -1.
         22    1    1    2    0    0  0.13114145196E+04 -0.21907728329E+04 -0.18576626888E+03  0.25600396001E+04  0.00000000000E+00 0.  1.
<mgrwt>
<rscale>  0 0.52174173E+04</rscale>
<asrwt>0</asrwt>
<pdfrwt beam="1">  1        2 0.53074686E+00 0.52174173E+04</pdfrwt>
<pdfrwt beam="2">  1       -2 0.30348485E+00 0.52174173E+04</pdfrwt>
<totfact> 0.19042478E-02</totfact>
</mgrwt>
</event>
<event>
 6    1  0.1585031E-006  0.2144529E+04  0.7818608E-02  0.8541878E-01
         -2   -1    0    0    0  501 -0.00000000000E+00  0.00000000000E+00  0.92524668916E+03  0.92524668916E+03  0.00000000000E+00 0.  1.
          2   -1    0    0  501    0  0.00000000000E+00 -0.00000000000E+00 -0.12426422841E+04  0.12426422841E+04  0.00000000000E+00 0. -1.
         23    2    1    2    0    0  0.17328036137E+03 -0.83519834700E+03  0.49429721988E+03  0.99042237582E+03  0.94996728799E+02 0.  0.
         13    1    3    3    0    0  0.13583970823E+03 -0.57457889555E+03  0.38790411728E+03  0.70644386737E+03  0.00000000000E+00 0. -1.
        -13    1    3    3    0    0  0.37440653149E+02 -0.26061945145E+03  0.10639310260E+03  0.28397850845E+03  0.00000000000E+00 0.  1.
         22    1    1    2    0    0 -0.17328036137E+03  0.83519834700E+03 -0.81169281481E+03  0.11774665974E+04  0.00000000000E+00 0. -1.
<mgrwt>
<rscale>  0 0.21445285E+04</rscale>
<asrwt>0</asrwt>
<pdfrwt beam="1">  1        2 0.19117574E+00 0.21445285E+04</pdfrwt>
<pdfrwt beam="2">  1       -2 0.14234564E+00 0.21445285E+04</pdfrwt>
<totfact> 0.56427376E+00</totfact>
</mgrwt>
</event>
<event>
 6    1  0.1585031E-006  0.3482590E+04  0.7818608E-02  0.8117928E-01
          2   -1    0    0  501    0  0.00000000000E+00  0.00000000000E+00  0.30324265432E+04  0.30324265432E+04  0.00000000000E+00 0. -1.
         -2   -1    0    0    0  501 -0.00000000000E+00 -0.00000000000E+00 -0.99989522478E+03  0.99989522478E+03  0.00000000000E+00 0.  1.
         23    2    1    2    0    0 -0.25754058134E+03  0.68976819699E+03  0.28424463161E+04  0.29377581015E+04  0.93884428941E+02 0.  0.
         13    1    3    3    0    0 -0.21095150912E+03  0.50866375146E+03  0.22551321319E+04  0.23213918849E+04  0.00000000000E+00 0. -1.
        -13    1    3    3    0    0 -0.46589072221E+02  0.18110444553E+03  0.58731418427E+03  0.61636621654E+03  0.00000000000E+00 0.  1.
         22    1    1    2    0    0  0.25754058134E+03 -0.68976819699E+03 -0.80991499769E+03  0.10945636665E+04  0.00000000000E+00 0.  1.
<mgrwt>
<rscale>  0 0.34825903E+04</rscale>
<asrwt>0</asrwt>
<pdfrwt beam="1">  1        2 0.46652716E+00 0.34825903E+04</pdfrwt>
<pdfrwt beam="2">  1       -2 0.15383004E+00 0.34825903E+04</pdfrwt>
<totfact> 0.38267514E-01</totfact>
</mgrwt>
</event>
<event>
 6    1  0.1585031E-006  0.1172709E+04  0.7818608E-02  0.9137085E-01
          2   -1    0    0  501    0  0.00000000000E+00  0.00000000000E+00  0.18877843232E+04  0.18877843232E+04  0.00000000000E+00 0. -1.
         -2   -1    0    0    0  501 -0.00000000000E+00 -0.00000000000E+00 -0.18212448946E+03  0.18212448946E+03  0.00000000000E+00 0.  1.
         23    2    1    2    0    0 -0.41900750389E+02 -0.47021735279E+03  0.14616238535E+04  0.15384828146E+04  0.87892263789E+02 0.  0.
         11    1    3    3    0    0 -0.41521224374E+02 -0.26127435226E+03  0.68710820285E+03  0.73627846747E+03  0.00000000000E+00 0. -1.
        -11    1    3    3    0    0 -0.37952601531E+00 -0.20894300053E+03  0.77451565065E+03  0.80220434717E+03  0.00000000000E+00 0.  1.
         22    1    1    2    0    0  0.41900750389E+02  0.47021735279E+03  0.24403598028E+03  0.53142599807E+03  0.00000000000E+00 0.  1.
<mgrwt>
<rscale>  0 0.11727093E+04</rscale>
<asrwt>0</asrwt>
<pdfrwt beam="1">  1        2 0.29042834E+00 0.11727093E+04</pdfrwt>
<pdfrwt beam="2">  1       -2 0.28019154E-01 0.11727093E+04</pdfrwt>
<totfact> 0.88830349E+01</totfact>
</mgrwt>
</event>
<event>
 6    1  0.1585031E-006  0.3636338E+04  0.7818608E-02  0.8082218E-01
          1   -1    0    0  501    0  0.00000000000E+00  0.00000000000E+00  0.18320082365E+04  0.18320082365E+04  0.00000000000E+00 0. -1.
         -1   -1    0    0    0  501 -0.00000000000E+00 -0.00000000000E+00 -0.18044347595E+04  0.18044347595E+04  0.00000000000E+00 0.  1.
         23    2    1    2    0    0 -0.11480107271E+04  0.52953162919E+03 -0.12913624158E+04  0.18094442917E+04  0.90218512850E+02 0.  0.
         11    1    3    3    0    0 -0.77763473705E+03  0.40178996990E+03 -0.91240296027E+03  0.12643694579E+04  0.00000000000E+00 0. -1.
        -11    1    3    3    0    0 -0.37037599006E+03  0.12774165929E+03 -0.37895945554E+03  0.54507483383E+03  0.00000000000E+00 0.  1.
         22    1    1    2    0    0  0.11480107271E+04 -0.52953162919E+03  0.13189358928E+04  0.18269987042E+04  0.00000000000E+00 0. -1.
<mgrwt>
<rscale>  0 0.36363385E+04</rscale>
<asrwt>0</asrwt>
<pdfrwt beam="1">  1        1 0.28184742E+00 0.36363385E+04</pdfrwt>
<pdfrwt beam="2">  1       -1 0.27760535E+00 0.36363385E+04</pdfrwt>
<totfact> 0.14416464E-01</totfact>
</mgrwt>
</event>
<event>
 6    1  0.1585031E-006  0.1987332E+04  0.7818608E-02  0.8612567E-01
          2   -1    0    0  501    0  0.00000000000E+00  0.00000000000E+00  0.13903629427E+04  0.13903629427E+04  0.00000000000E+00 0. -1.
         -2   -1    0    0    0  501 -0.00000000000E+00 -0.00000000000E+00 -0.71015390856E+03  0.71015390856E+03  0.00000000000E+00 0.  1.
         23    2    1    2    0    0  0.25163826591E+03 -0.59217486786E+03 -0.45649928166E+03  0.79433972461E+03  0.92688256760E+02 0.  0.
         11    1    3    3    0    0  0.15762049812E+03 -0.46530286939E+03 -0.36286602335E+03  0.61075586988E+03  0.00000000000E+00 0. -1.
        -11    1    3    3    0    0  0.94017767785E+02 -0.12687199847E+03 -0.93633258304E+02  0.18358385472E+03  0.00000000000E+00 0.  1.
         22    1    1    2    0    0 -0.25163826591E+03  0.59217486786E+03  0.11367083158E+04  0.13061771266E+04  0.00000000000E+00 0. -1.
<mgrwt>
<rscale>  0 0.19873316E+04</rscale>
<asrwt>0</asrwt>
<pdfrwt beam="1">  1        2 0.21390199E+00 0.19873316E+04</pdfrwt>
<pdfrwt beam="2">  1       -2 0.10925445E+00 0.19873316E+04</pdfrwt>
<totfact> 0.91055670E+00</totfact>
</mgrwt>
</event>
<event>
 6    1  0.1585031E-006  0.8432948E+03  0.7818608E-02  0.9499381E-01
          1   -1    0    0  501    0  0.00000000000E+00  0.00000000000E+00  0.64742966954E+03  0.64742966954E+03  0.00000000000E+00 0. -1.
         -1   -1    0    0    0  501 -0.00000000000E+00 -0.00000000000E+00 -0.27460359651E+03  0.27460359651E+03  0.00000000000E+00 0.  1.
         23    2    1    2    0    0  0.19305539771E+03  0.13417372293E+03  0.56490100242E+03  0.61844513550E+03  0.89934801845E+02 0.  0.
         11    1    3    3    0    0  0.25015501499E+02  0.36722734329E+02  0.20195404138E+03  0.20678435473E+03  0.00000000000E+00 0.  1.
        -11    1    3    3    0    0  0.16803989621E+03  0.97450988599E+02  0.36294696104E+03  0.41166078077E+03  0.00000000000E+00 0. -1.
         22    1    1    2    0    0 -0.19305539771E+03 -0.13417372293E+03 -0.19207492939E+03  0.30358813055E+03  0.00000000000E+00 0.  1.
<mgrwt>
<rscale>  0 0.84329477E+03</rscale>
<asrwt>0</asrwt>
<pdfrwt beam="1">  1        1 0.99604564E-01 0.84329477E+03</pdfrwt>
<pdfrwt beam="2">  1       -1 0.42246707E-01 0.84329477E+03</pdfrwt>
<totfact> 0.17031132E+02</totfact>
</mgrwt>
</event>
<event>
 6    1  0.1585031E-006  0.2286190E+04  0.7818608E-02  0.8483386E-01
          2   -1    0    0  501    0  0.00000000000E+00  0.00000000000E+00  0.15396224545E+04  0.15396224545E+04  0.00000000000E+00 0. -1.
         -2   -1    0    0    0  501 -0.00000000000E+00 -0.00000000000E+00 -0.84869289065E+03  0.84869289065E+03  0.00000000000E+00 0.  1.
         23    2    1    2    0    0  0.51916629326E+03  0.91145487959E+03  0.81579865254E+03  0.13319650590E+04  0.91213153735E+02 0.  0.
         11    1    3    3    0    0  0.19570197742E+03  0.33109514186E+03  0.24483284541E+03  0.45592365492E+03  0.00000000000E+00 0.  1.
        -11    1    3    3    0    0  0.32346431584E+03  0.58035973773E+03  0.57096580713E+03  0.87604140411E+03  0.00000000000E+00 0. -1.
         22    1    1    2    0    0 -0.51916629326E+03 -0.91145487959E+03 -0.12486908873E+03  0.10563502861E+04  0.00000000000E+00 0.  1.
<mgrwt>
<rscale>  0 0.22861904E+04</rscale>
<asrwt>0</asrwt>
<pdfrwt beam="1">  1        2 0.23686499E+00 0.22861904E+04</pdfrwt>
<pdfrwt beam="2">  1       -2 0.13056814E+00 0.22861904E+04</pdfrwt>
<totfact> 0.47012967E+00</totfact>
</mgrwt>
</event>
<event>
 6    1  0.1585031E-006  0.1310169E+04  0.7818608E-02  0.9021540E-01
         -2   -1    0    0    0  501 -0.00000000000E+00  0.00000000000E+00  0.97414276275E+03  0.97414276275E+03  0.00000000000E+00 0.  1.
          2   -1    0    0  501    0  0.00000000000E+00 -0.00000000000E+00 -0.44052637800E+03  0.44052637800E+03  0.00000000000E+00 0. -1.
         23    2    1    2    0    0  0.26438716427E+03  0.34908170015E+03  0.78976018302E+03  0.90735439486E+03  0.88386906096E+02 0.  0.
         13    1    3    3    0    0  0.16383213705E+03  0.27618014612E+03  0.60077236495E+03  0.68120766050E+03  0.00000000000E+00 0. -1.
        -13    1    3    3    0    0  0.10055502722E+03  0.72901554035E+02  0.18898781807E+03  0.22614673436E+03  0.00000000000E+00 0.  1.
         22    1    1    2    0    0 -0.26438716427E+03 -0.34908170015E+03 -0.25614379827E+03  0.50731474590E+03  0.00000000000E+00 0. -1.
<mgrwt>
<rscale>  0 0.13101688E+04</rscale>
<asrwt>0</asrwt>
<pdfrwt beam="1">  1        2 0.67773289E-01 0.13101688E+04</pdfrwt>
<pdfrwt beam="2">  1       -2 0.14986812E+00 0.13101688E+04</pdfrwt>
<totfact> 0.20941760E+01</totfact>
</mgrwt>
</event>
<event>
 6    1  0.1585031E-006  0.4452680E+04  0.7818608E-02  0.7918974E-01
         -2   -1    0    0    0  501 -0.00000000000E+00  0.00000000000E+00  0.17099551489E+04  0.17099551489E+04  0.00000000000E+00 0.  1.
          2   -1    0    0  501    0  0.00000000000E+00 -0.00000000000E+00 -0.28986671012E+04  0.28986671012E+04  0.00000000000E+00 0. -1.
         23    2    1    2    0    0 -0.21523303856E+04  0.32675232626E+03 -0.11662338302E+03  0.21819646575E+04  0.89864239853E+02 0.  0.
         11    1    3    3    0    0 -0.76226838562E+03  0.14420804618E+03 -0.74147625798E+02  0.77932465809E+03  0.00000000000E+00 0. -1.
        -11    1    3    3    0    0 -0.13900619999E+04  0.18254428007E+03 -0.42475757222E+02  0.14026399994E+04  0.00000000000E+00 0.  1.
         22    1    1    2    0    0  0.21523303856E+04 -0.32675232626E+03 -0.10720885693E+04  0.24266575926E+04  0.00000000000E+00 0. -1.
<mgrwt>
<rscale>  0 0.44526804E+04</rscale>
<asrwt>0</asrwt>
<pdfrwt beam="1">  1        2 0.44594878E+00 0.44526804E+04</pdfrwt>
<pdfrwt beam="2">  1       -2 0.26307003E+00 0.44526804E+04</pdfrwt>
<totfact> 0.81774244E-02</totfact>
</mgrwt>
</event>
<event>
 6    1  0.1585031E-006  0.1498854E+04  0.7818608E-02  0.8885215E-01
         -2   -1    0    0    0  501 -0.00000000000E+00  0.00000000000E+00  0.24174248826E+03  0.24174248826E+03  0.00000000000E+00 0.  1.
          2   -1    0    0  501    0  0.00000000000E+00 -0.00000000000E+00 -0.23233023354E+04  0.23233023354E+04  0.00000000000E+00 0. -1.
         23    2    1    2    0    0 -0.58244369107E+03 -0.73927997876E+02 -0.25556461001E+03  0.64698210098E+03  0.92555750519E+02 0.  0.
         11    1    3    3    0    0 -0.24903642955E+03  0.13491170742E+02 -0.11725436471E+03  0.27558980564E+03  0.00000000000E+00 0. -1.
        -11    1    3    3    0    0 -0.33340726152E+03 -0.87419168618E+02 -0.13831024530E+03  0.37139229533E+03  0.00000000000E+00 0.  1.
         22    1    1    2    0    0  0.58244369107E+03  0.73927997876E+02 -0.18259952371E+04  0.19180627226E+04  0.00000000000E+00 0. -1.
<mgrwt>
<rscale>  0 0.14988541E+04</rscale>
<asrwt>0</asrwt>
<pdfrwt beam="1">  1        2 0.35743112E+00 0.14988541E+04</pdfrwt>
<pdfrwt beam="2">  1       -2 0.37191153E-01 0.14988541E+04</pdfrwt>
<totfact> 0.29009062E+01</totfact>
</mgrwt>
</event>
<event>
 6    1  0.1585031E-006  0.2277654E+04  0.7818608E-02  0.8486784E-01
          2   -1    0    0  501    0  0.00000000000E+00  0.00000000000E+00  0.15704722582E+04  0.15704722582E+04  0.00000000000E+00 0. -1.
         -2   -1    0    0    0  501 -0.00000000000E+00 -0.00000000000E+00 -0.82581954379E+03  0.82581954379E+03  0.00000000000E+00 0.  1.
         23    2    1    2    0    0  0.43979396670E+03 -0.93961961179E+03  0.85932804107E+03  0.13525225849E+04  0.12070175055E+03 0.  0.
         13    1    3    3    0    0  0.33834005812E+03 -0.59713635369E+03  0.53791465907E+03  0.87200802764E+03  0.00000000000E+00 0.  1.
        -13    1    3    3    0    0  0.10145390858E+03 -0.34248325810E+03  0.32141338200E+03  0.48051455730E+03  0.00000000000E+00 0. -1.
         22    1    1    2    0    0 -0.43979396670E+03  0.93961961179E+03 -0.11467532664E+03  0.10437692171E+04  0.00000000000E+00 0.  1.
<mgrwt>
<rscale>  0 0.22776538E+04</rscale>
<asrwt>0</asrwt>
<pdfrwt beam="1">  1        2 0.24161112E+00 0.22776538E+04</pdfrwt>
<pdfrwt beam="2">  1       -2 0.12704916E+00 0.22776538E+04</pdfrwt>
<totfact> 0.48437980E+00</totfact>
</mgrwt>
</event>
<event>
 6    1  0.1585031E-006  0.1690382E+04  0.7818608E-02  0.8766869E-01
         -2   -1    0    0    0  501 -0.00000000000E+00  0.00000000000E+00  0.41625595195E+03  0.41625595195E+03  0.00000000000E+00 0.  1.
          2   -1    0    0  501    0  0.00000000000E+00 -0.00000000000E+00 -0.17161269449E+04  0.17161269449E+04  0.00000000000E+00 0. -1.
         23    2    1    2    0    0 -0.20577786139E+03 -0.69833912595E+03 -0.11643678164E+03  0.74294466664E+03  0.91581605671E+02 0.  0.
         13    1    3    3    0    0 -0.49780601877E+02 -0.31171608703E+03 -0.29258010816E+02  0.31701901904E+03  0.00000000000E+00 0.  1.
        -13    1    3    3    0    0 -0.15599725952E+03 -0.38662303892E+03 -0.87178770819E+02  0.42592564760E+03  0.00000000000E+00 0. -1.
         22    1    1    2    0    0  0.20577786139E+03  0.69833912595E+03 -0.11834342113E+04  0.13894382302E+04  0.00000000000E+00 0. -1.
<mgrwt>
<rscale>  0 0.16903823E+04</rscale>
<asrwt>0</asrwt>
<pdfrwt beam="1">  1        2 0.26401953E+00 0.16903823E+04</pdfrwt>
<pdfrwt beam="2">  1       -2 0.64039378E-01 0.16903823E+04</pdfrwt>
<totfact> 0.20618042E+01</totfact>
</mgrwt>
</event>
<event>
 6    1  0.1585031E-006  0.5852332E+03  0.7818608E-02  0.9936525E-01
          1   -1    0    0  501    0  0.00000000000E+00  0.00000000000E+00  0.11886084975E+04  0.11886084975E+04  0.00000000000E+00 0. -1.
         -1   -1    0    0    0  501 -0.00000000000E+00 -0.00000000000E+00 -0.72037586976E+02  0.72037586976E+02  0.00000000000E+00 0.  1.
         23    2    1    2    0    0 -0.13983487134E+03  0.24739138837E+03  0.49068085169E+03  0.57326361741E+03  0.84304131290E+02 0.  0.
         13    1    3    3    0    0 -0.10529821356E+03  0.19507396004E+03  0.30331093674E+03  0.37568482536E+03  0.00000000000E+00 0.  1.
        -13    1    3    3    0    0 -0.34536657778E+02  0.52317428326E+02  0.18736991496E+03  0.19757879205E+03  0.00000000000E+00 0. -1.
         22    1    1    2    0    0  0.13983487134E+03 -0.24739138837E+03  0.62589005881E+03  0.68738246704E+03  0.00000000000E+00 0.  1.
<mgrwt>
<rscale>  0 0.58523325E+03</rscale>
<asrwt>0</asrwt>
<pdfrwt beam="1">  1        1 0.18286283E+00 0.58523325E+03</pdfrwt>
<pdfrwt beam="2">  1       -1 0.11082707E-01 0.58523325E+03</pdfrwt>
<totfact> 0.59477691E+02</totfact>
</mgrwt>
</event>
<event>
 6    1  0.1585031E-006  0.4087184E+04  0.7818608E-02  0.7987186E-01
         -2   -1    0    0    0  501 -0.00000000000E+00  0.00000000000E+00  0.10121939677E+04  0.10121939677E+04  0.00000000000E+00 0. -1.
          2   -1    0    0  501    0  0.00000000000E+00 -0.00000000000E+00 -0.41259567305E+04  0.41259567305E+04  0.00000000000E+00 0.  1.
         23    2    1    2    0    0  0.28335074634E+02 -0.12143657456E+04  0.50690446288E+03  0.13191563018E+04  0.87944150334E+02 0.  0.
         13    1    3    3    0    0  0.21906101819E+02 -0.69622736701E+03  0.24376786487E+03  0.73799403508E+03  0.00000000000E+00 0. -1.
        -13    1    3    3    0    0  0.64289728149E+01 -0.51813837857E+03  0.26313659800E+03  0.58116226671E+03  0.00000000000E+00 0.  1.
         22    1    1    2    0    0 -0.28335074634E+02  0.12143657456E+04 -0.36206672257E+04  0.38189943964E+04  0.00000000000E+00 0.  1.
<mgrwt>
<rscale>  0 0.40871841E+04</rscale>
<asrwt>0</asrwt>
<pdfrwt beam="1">  1        2 0.63476257E+00 0.40871841E+04</pdfrwt>
<pdfrwt beam="2">  1       -2 0.15572215E+00 0.40871841E+04</pdfrwt>
<totfact> 0.56895588E-02</totfact>
</mgrwt>
</event>
<event>
 6    1  0.1585031E-006  0.3766639E+04  0.7818608E-02  0.8053352E-01
         -2   -1    0    0    0  501 -0.00000000000E+00  0.00000000000E+00  0.14577335160E+04  0.14577335160E+04  0.00000000000E+00 0.  1.
          2   -1    0    0  501    0  0.00000000000E+00 -0.00000000000E+00 -0.24331560441E+04  0.24331560441E+04  0.00000000000E+00 0. -1.
         23    2    1    2    0    0 -0.78540708811E+03 -0.14870195770E+04  0.38515099325E+03  0.17277317242E+04  0.92866070209E+02 0.  0.
         11    1    3    3    0    0 -0.53378810526E+03 -0.10423598135E+04  0.22686084137E+03  0.11928577298E+04  0.00000000000E+00 0. -1.
        -11    1    3    3    0    0 -0.25161898285E+03 -0.44465976343E+03  0.15829015188E+03  0.53487399443E+03  0.00000000000E+00 0.  1.
         22    1    1    2    0    0  0.78540708811E+03  0.14870195770E+04 -0.13605735214E+04  0.21631578360E+04  0.00000000000E+00 0.  1.
<mgrwt>
<rscale>  0 0.37666394E+04</rscale>
<asrwt>0</asrwt>
<pdfrwt beam="1">  1        2 0.37433170E+00 0.37666394E+04</pdfrwt>
<pdfrwt beam="2">  1       -2 0.22426669E+00 0.37666394E+04</pdfrwt>
<totfact> 0.28415092E-01</totfact>
</mgrwt>
</event>
<event>
 6    1  0.1585031E-006  0.2805933E+04  0.7818608E-02  0.8301429E-01
         -2   -1    0    0    0  501 -0.00000000000E+00  0.00000000000E+00  0.62681321892E+03  0.62681321892E+03  0.00000000000E+00 0.  1.
          2   -1    0    0  501    0  0.00000000000E+00 -0.00000000000E+00 -0.31401944903E+04  0.31401944903E+04  0.00000000000E+00 0. -1.
         23    2    1    2    0    0  0.49563294490E+02 -0.13905040320E+04 -0.14834697916E+04  0.20359168279E+04  0.91196075955E+02 0.  0.
         13    1    3    3    0    0 -0.23740290049E+02 -0.30669842004E+03 -0.30562795011E+03  0.43363114062E+03  0.00000000000E+00 0.  1.
        -13    1    3    3    0    0  0.73303584539E+02 -0.10838056120E+04 -0.11778418415E+04  0.16022856873E+04  0.00000000000E+00 0. -1.
         22    1    1    2    0    0 -0.49563294490E+02  0.13905040320E+04 -0.10299114798E+04  0.17310908813E+04  0.00000000000E+00 0. -1.
<mgrwt>
<rscale>  0 0.28059333E+04</rscale>
<asrwt>0</asrwt>
<pdfrwt beam="1">  1        2 0.48310684E+00 0.28059333E+04</pdfrwt>
<pdfrwt beam="2">  1       -2 0.96432803E-01 0.28059333E+04</pdfrwt>
<totfact> 0.11093570E+00</totfact>
</mgrwt>
</event>
<event>
 6    1  0.1585031E-006  0.7068341E+03  0.7818608E-02  0.9705616E-01
         -4   -1    0    0    0  501 -0.00000000000E+00  0.00000000000E+00  0.40819123971E+03  0.40819123971E+03  0.00000000000E+00 0.  1.
          4   -1    0    0  501    0  0.00000000000E+00 -0.00000000000E+00 -0.30599283783E+03  0.30599283783E+03  0.00000000000E+00 0. -1.
         23    2    1    2    0    0 -0.52297211074E+01 -0.32662868331E+03  0.17250596021E+03  0.38003321415E+03  0.89181224503E+02 0.  0.
         13    1    3    3    0    0 -0.22589507840E+02 -0.16390530400E+03  0.41953096633E+02  0.17069064667E+03  0.00000000000E+00 0.  1.
        -13    1    3    3    0    0  0.17359786733E+02 -0.16272337931E+03  0.13055286358E+03  0.20934256748E+03  0.00000000000E+00 0. -1.
         22    1    1    2    0    0  0.52297211074E+01  0.32662868331E+03 -0.70307558337E+02  0.33415086339E+03  0.00000000000E+00 0. -1.
<mgrwt>
<rscale>  0 0.70683406E+03</rscale>
<asrwt>0</asrwt>
<pdfrwt beam="1">  1        4 0.47075821E-01 0.70683406E+03</pdfrwt>
<pdfrwt beam="2">  1       -4 0.62798652E-01 0.70683406E+03</pdfrwt>
<totfact> 0.20613593E+01</totfact>
</mgrwt>
</event>
<event>
 6    1  0.1585031E-006  0.7655530E+03  0.7818608E-02  0.9611261E-01
         -2   -1    0    0    0  501 -0.00000000000E+00  0.00000000000E+00  0.15545004812E+03  0.15545004812E+03  0.00000000000E+00 0.  1.
          2   -1    0    0  501    0  0.00000000000E+00 -0.00000000000E+00 -0.94253973816E+03  0.94253973816E+03  0.00000000000E+00 0. -1.
         23    2    1    2    0    0  0.94111470518E+02  0.88383441557E+02 -0.90769384801E+03  0.92131504405E+03  0.90800259054E+02 0.  0.
         13    1    3    3    0    0  0.12751050262E+02  0.65042974753E+02 -0.53731788982E+03  0.54139051761E+03  0.00000000000E+00 0. -1.
        -13    1    3    3    0    0  0.81360420256E+02  0.23340466804E+02 -0.37037595819E+03  0.37992452643E+03  0.00000000000E+00 0.  1.
         22    1    1    2    0    0 -0.94111470518E+02 -0.88383441557E+02  0.12060415797E+03  0.17667474223E+03  0.00000000000E+00 0.  1.
<mgrwt>
<rscale>  0 0.76555300E+03</rscale>
<asrwt>0</asrwt>
<pdfrwt beam="1">  1        2 0.14500612E+00 0.76555300E+03</pdfrwt>
<pdfrwt beam="2">  1       -2 0.23915391E-01 0.76555300E+03</pdfrwt>
<totfact> 0.42871884E+02</totfact>
</mgrwt>
</event>
<event>
 6    1  0.1585031E-006  0.8144711E+03  0.7818608E-02  0.9539304E-01
         -2   -1    0    0    0  501 -0.00000000000E+00  0.00000000000E+00  0.56553291514E+03  0.56553291514E+03  0.00000000000E+00 0.  1.
          2   -1    0    0  501    0  0.00000000000E+00 -0.00000000000E+00 -0.29324690988E+03  0.29324690988E+03  0.00000000000E+00 0. -1.
         23    2    1    2    0    0  0.10232751353E+03  0.34198032575E+03 -0.57071726979E+02  0.37308652774E+03  0.92276280449E+02 0.  0.
         11    1    3    3    0    0  0.54013679371E+02  0.52907919427E+02 -0.10965634396E+02  0.76400069601E+02  0.00000000000E+00 0. -1.
        -11    1    3    3    0    0  0.48313834162E+02  0.28907240633E+03 -0.46106092583E+02  0.29668645814E+03  0.00000000000E+00 0.  1.
         22    1    1    2    0    0 -0.10232751353E+03 -0.34198032575E+03  0.32935773224E+03  0.48569329727E+03  0.00000000000E+00 0.  1.
<mgrwt>
<rscale>  0 0.81447107E+03</rscale>
<asrwt>0</asrwt>
<pdfrwt beam="1">  1        2 0.45114909E-01 0.81447107E+03</pdfrwt>
<pdfrwt beam="2">  1       -2 0.87005064E-01 0.81447107E+03</pdfrwt>
<totfact> 0.12954945E+02</totfact>
</mgrwt>
</event>
<event>
 6    1  0.1585031E-006  0.3812106E+04  0.7818608E-02  0.8043562E-01
          1   -1    0    0  501    0  0.00000000000E+00  0.00000000000E+00  0.13500913593E+04  0.13500913593E+04  0.00000000000E+00 0. -1.
         -1   -1    0    0    0  501 -0.00000000000E+00 -0.00000000000E+00 -0.26909572734E+04  0.26909572734E+04  0.00000000000E+00 0.  1.
         23    2    1    2    0    0 -0.15812840536E+04 -0.10049175451E+04 -0.30586887538E+03  0.19005960168E+04  0.91601961771E+02 0.  0.
         13    1    3    3    0    0 -0.69224483784E+03 -0.39132259965E+03 -0.14909691930E+03  0.80905264591E+03  0.00000000000E+00 0.  1.
        -13    1    3    3    0    0 -0.88903921576E+03 -0.61359494546E+03 -0.15677195608E+03  0.10915433709E+04  0.00000000000E+00 0. -1.
         22    1    1    2    0    0  0.15812840536E+04  0.10049175451E+04 -0.10349970388E+04  0.21404526159E+04  0.00000000000E+00 0.  1.
<mgrwt>
<rscale>  0 0.38121061E+04</rscale>
<asrwt>0</asrwt>
<pdfrwt beam="1">  1        1 0.20770637E+00 0.38121061E+04</pdfrwt>
<pdfrwt beam="2">  1       -1 0.41399342E+00 0.38121061E+04</pdfrwt>
<totfact> 0.37953627E-02</totfact>
</mgrwt>
</event>
<event>
 6    1  0.1585031E-006  0.1072859E+04  0.7818608E-02  0.9232057E-01
         -2   -1    0    0    0  501 -0.00000000000E+00  0.00000000000E+00  0.25500684052E+03  0.25500684052E+03  0.00000000000E+00 0.  1.
          2   -1    0    0  501    0  0.00000000000E+00 -0.00000000000E+00 -0.11284267379E+04  0.11284267379E+04  0.00000000000E+00 0. -1.
         23    2    1    2    0    0  0.43377632395E+03 -0.27212374938E+03 -0.25164742556E+03  0.57794351584E+03  0.92081738200E+02 0.  0.
         13    1    3    3    0    0  0.10626885198E+02  0.18220776549E+01  0.54494294862E+01  0.12080850041E+02  0.00000000000E+00 0.  1.
        -13    1    3    3    0    0  0.42314943876E+03 -0.27394582704E+03 -0.25709685505E+03  0.56586266580E+03  0.00000000000E+00 0. -1.
         22    1    1    2    0    0 -0.43377632395E+03  0.27212374938E+03 -0.62177247185E+03  0.80549006260E+03  0.00000000000E+00 0. -1.
<mgrwt>
<rscale>  0 0.10728589E+04</rscale>
<asrwt>0</asrwt>
<pdfrwt beam="1">  1        2 0.17360411E+00 0.10728589E+04</pdfrwt>
<pdfrwt beam="2">  1       -2 0.39231822E-01 0.10728589E+04</pdfrwt>
<totfact> 0.12772597E+02</totfact>
</mgrwt>
</event>
<event>
 6    1  0.1585031E-006  0.4072347E+04  0.7818608E-02  0.7990109E-01
         -1   -1    0    0    0  501 -0.00000000000E+00  0.00000000000E+00  0.23705267877E+04  0.23705267877E+04  0.00000000000E+00 0.  1.
          1   -1    0    0  501    0  0.00000000000E+00 -0.00000000000E+00 -0.17489790449E+04  0.17489790449E+04  0.00000000000E+00 0. -1.
         23    2    1    2    0    0  0.40603370982E+03 -0.19904900782E+04  0.19067249085E+03  0.20428335890E+04  0.99493460763E+02 0.  0.
         11    1    3    3    0    0  0.26735172629E+03 -0.10984791918E+04  0.13153150823E+03  0.11381713483E+04  0.00000000000E+00 0. -1.
        -11    1    3    3    0    0  0.13868198353E+03 -0.89201088635E+03  0.59140982629E+02  0.90466224070E+03  0.00000000000E+00 0.  1.
         22    1    1    2    0    0 -0.40603370982E+03  0.19904900782E+04  0.43087525199E+03  0.20766722437E+04  0.00000000000E+00 0.  1.
<mgrwt>
<rscale>  0 0.40723466E+04</rscale>
<asrwt>0</asrwt>
<pdfrwt beam="1">  1        1 0.26907370E+00 0.40723466E+04</pdfrwt>
<pdfrwt beam="2">  1       -1 0.36469643E+00 0.40723466E+04</pdfrwt>
<totfact> 0.42561751E-02</totfact>
</mgrwt>
</event>
<event>
 6    1  0.1585031E-006  0.1493494E+04  0.7818608E-02  0.8888791E-01
          2   -1    0    0  501    0  0.00000000000E+00  0.00000000000E+00  0.14889674572E+04  0.14889674572E+04  0.00000000000E+00 0.  1.
         -2   -1    0    0    0  501 -0.00000000000E+00 -0.00000000000E+00 -0.37450835198E+03  0.37450835198E+03  0.00000000000E+00 0. -1.
         23    2    1    2    0    0 -0.46968990216E+03 -0.35343694734E+03 -0.98995421287E+01  0.59473286917E+03  0.89904976516E+02 0.  0.
         11    1    3    3    0    0 -0.25219155743E+02 -0.30443185967E+02  0.20355680944E+02  0.44465122680E+02  0.00000000000E+00 0.  1.
        -11    1    3    3    0    0 -0.44447074641E+03 -0.32299376137E+03 -0.30255223072E+02  0.55026774649E+03  0.00000000000E+00 0. -1.
         22    1    1    2    0    0  0.46968990216E+03  0.35343694734E+03  0.11243586473E+04  0.12687429400E+04  0.00000000000E+00 0.  1.
<mgrwt>
<rscale>  0 0.14934936E+04</rscale>
<asrwt>0</asrwt>
<pdfrwt beam="1">  1        2 0.22907191E+00 0.14934936E+04</pdfrwt>
<pdfrwt beam="2">  1       -2 0.57616670E-01 0.14934936E+04</pdfrwt>
<totfact> 0.35111490E+01</totfact>
</mgrwt>
</event>
<event>
 6    1  0.1585031E-006  0.2632158E+04  0.7818608E-02  0.8357359E-01
          1   -1    0    0  501    0  0.00000000000E+00  0.00000000000E+00  0.11291345129E+04  0.11291345129E+04  0.00000000000E+00 0. -1.
         -1   -1    0    0    0  501 -0.00000000000E+00 -0.00000000000E+00 -0.15339746824E+04  0.15339746824E+04  0.00000000000E+00 0.  1.
         23    2    1    2    0    0 -0.96340287204E+03 -0.20008846735E+03 -0.10845058541E+04  0.14672304675E+04  0.91824879359E+02 0.  0.
         13    1    3    3    0    0 -0.15166948056E+03 -0.25598934725E+02 -0.22157240507E+03  0.26972813624E+03  0.00000000000E+00 0. -1.
        -13    1    3    3    0    0 -0.81173339147E+03 -0.17448953262E+03 -0.86293344906E+03  0.11975023312E+04  0.00000000000E+00 0.  1.
         22    1    1    2    0    0  0.96340287204E+03  0.20008846735E+03  0.67966568467E+03  0.11958787278E+04  0.00000000000E+00 0. -1.
<mgrwt>
<rscale>  0 0.26321579E+04</rscale>
<asrwt>0</asrwt>
<pdfrwt beam="1">  1        1 0.17371300E+00 0.26321579E+04</pdfrwt>
<pdfrwt beam="2">  1       -1 0.23599610E+00 0.26321579E+04</pdfrwt>
<totfact> 0.91219412E-01</totfact>
</mgrwt>
</event>
<event>
 6    1  0.1585031E-006  0.6740297E+04  0.7818608E-02  0.7604828E-01
          2   -1    0    0  501    0  0.00000000000E+00  0.00000000000E+00  0.39283634678E+04  0.39283634678E+04  0.00000000000E+00 0. -1.
         -2   -1    0    0    0  501 -0.00000000000E+00 -0.00000000000E+00 -0.28912547183E+04  0.28912547183E+04  0.00000000000E+00 0.  1.
         23    2    1    2    0    0  0.12402476944E+04  0.25537610557E+04 -0.13175881429E+04  0.31311893434E+04  0.91642329695E+02 0.  0.
         11    1    3    3    0    0  0.32047740009E+03  0.58026631833E+03 -0.28873864530E+03  0.72303856706E+03  0.00000000000E+00 0. -1.
        -11    1    3    3    0    0  0.91977029435E+03  0.19734947373E+04 -0.10288494976E+04  0.24081507763E+04  0.00000000000E+00 0.  1.
         22    1    1    2    0    0 -0.12402476944E+04 -0.25537610557E+04  0.23546968923E+04  0.36884288427E+04  0.00000000000E+00 0.  1.
<mgrwt>
<rscale>  0 0.67402966E+04</rscale>
<asrwt>0</asrwt>
<pdfrwt beam="1">  1        2 0.60436361E+00 0.67402966E+04</pdfrwt>
<pdfrwt beam="2">  1       -2 0.44480842E+00 0.67402966E+04</pdfrwt>
<totfact> 0.93286372E-04</totfact>
</mgrwt>
</event>
<event>
 6    1  0.1585031E-006  0.1336395E+04  0.7818608E-02  0.9001191E-01
          3   -1    0    0  501    0  0.00000000000E+00  0.00000000000E+00  0.43509943181E+03  0.43509943181E+03  0.00000000000E+00 0. -1.
         -3   -1    0    0    0  501 -0.00000000000E+00 -0.00000000000E+00 -0.10261747359E+04  0.10261747359E+04  0.00000000000E+00 0.  1.
         23    2    1    2    0    0  0.13901565313E+02 -0.43079304850E+03 -0.85071451331E+03  0.95809584631E+03  0.91959574882E+02 0.  0.
         11    1    3    3    0    0  0.27891447479E+02 -0.30022063980E+03 -0.66989356294E+03  0.73462082129E+03  0.00000000000E+00 0.  1.
        -11    1    3    3    0    0 -0.13989882166E+02 -0.13057240870E+03 -0.18082095037E+03  0.22347502503E+03  0.00000000000E+00 0. -1.
         22    1    1    2    0    0 -0.13901565313E+02  0.43079304850E+03  0.25963920922E+03  0.50317832139E+03  0.00000000000E+00 0. -1.
<mgrwt>
<rscale>  0 0.13363952E+04</rscale>
<asrwt>0</asrwt>
<pdfrwt beam="1">  1        3 0.66938374E-01 0.13363952E+04</pdfrwt>
<pdfrwt beam="2">  1       -3 0.15787304E+00 0.13363952E+04</pdfrwt>
<totfact> 0.15537922E+00</totfact>
</mgrwt>
</event>
<event>
 6    1  0.1585031E-006  0.8369458E+03  0.7818608E-02  0.9508027E-01
          2   -1    0    0  501    0  0.00000000000E+00  0.00000000000E+00  0.10804450794E+04  0.10804450794E+04  0.00000000000E+00 0. -1.
         -2   -1    0    0    0  501 -0.00000000000E+00 -0.00000000000E+00 -0.16208095710E+03  0.16208095710E+03  0.00000000000E+00 0.  1.
         23    2    1    2    0    0  0.29861133124E+03 -0.16694967435E+03  0.80938977827E+03  0.88347683577E+03  0.91534612356E+02 0.  0.
         11    1    3    3    0    0  0.10063695655E+03 -0.19801125563E+02  0.30925558259E+03  0.32582034461E+03  0.00000000000E+00 0. -1.
        -11    1    3    3    0    0  0.19797437469E+03 -0.14714854879E+03  0.50013419568E+03  0.55765649116E+03  0.00000000000E+00 0.  1.
         22    1    1    2    0    0 -0.29861133124E+03  0.16694967435E+03  0.10897434406E+03  0.35904920077E+03  0.00000000000E+00 0.  1.
<mgrwt>
<rscale>  0 0.83694581E+03</rscale>
<asrwt>0</asrwt>
<pdfrwt beam="1">  1        2 0.16622232E+00 0.83694581E+03</pdfrwt>
<pdfrwt beam="2">  1       -2 0.24935533E-01 0.83694581E+03</pdfrwt>
<totfact> 0.32385979E+02</totfact>
</mgrwt>
</event>
<event>
 6    1  0.1585031E-006  0.1602102E+04  0.7818608E-02  0.8819258E-01
         -1   -1    0    0    0  501 -0.00000000000E+00  0.00000000000E+00  0.42812687570E+03  0.42812687570E+03  0.00000000000E+00 0.  1.
          1   -1    0    0  501    0  0.00000000000E+00 -0.00000000000E+00 -0.14988147483E+04  0.14988147483E+04  0.00000000000E+00 0. -1.
         23    2    1    2    0    0 -0.25766413284E+03 -0.64348166087E+03 -0.10104556698E+04  0.12311777477E+04  0.11966007151E+03 0.  0.
         13    1    3    3    0    0 -0.18924963696E+03 -0.45703483558E+03 -0.80926268059E+03  0.94847369611E+03  0.00000000000E+00 0.  1.
        -13    1    3    3    0    0 -0.68414495889E+02 -0.18644682529E+03 -0.20119298919E+03  0.28270405162E+03  0.00000000000E+00 0. -1.
         22    1    1    2    0    0  0.25766413284E+03  0.64348166087E+03 -0.60232202798E+02  0.69576387624E+03  0.00000000000E+00 0.  1.
<mgrwt>
<rscale>  0 0.16021022E+04</rscale>
<asrwt>0</asrwt>
<pdfrwt beam="1">  1        1 0.23058688E+00 0.16021022E+04</pdfrwt>
<pdfrwt beam="2">  1       -1 0.65865674E-01 0.16021022E+04</pdfrwt>
<totfact> 0.14689429E+01</totfact>
</mgrwt>
</event>
<event>
 6    1  0.2763481E-006  0.3211308E+04  0.7818608E-02  0.8185837E-01
         -1   -1    0    0    0  501 -0.00000000000E+00  0.00000000000E+00  0.10571276079E+04  0.10571276079E+04  0.00000000000E+00 0.  1.
          1   -1    0    0  501    0  0.00000000000E+00 -0.00000000000E+00 -0.24388013498E+04  0.24388013498E+04  0.00000000000E+00 0. -1.
         23    2    1    2    0    0 -0.37439234287E+03  0.15564751676E+03  0.99814592911E+03  0.10818168141E+04  0.98165918200E+02 0.  0.
         11    1    3    3    0    0 -0.58413238118E+02  0.65603936672E+00  0.22281658710E+03  0.23034706046E+03  0.00000000000E+00 0.  1.
        -11    1    3    3    0    0 -0.31597910476E+03  0.15499147740E+03  0.77532934201E+03  0.85146975360E+03  0.00000000000E+00 0. -1.
         22    1    1    2    0    0  0.37439234287E+03 -0.15564751676E+03 -0.23798196709E+04  0.24141121436E+04  0.00000000000E+00 0. -1.
<mgrwt>
<rscale>  0 0.32113077E+04</rscale>
<asrwt>0</asrwt>
<pdfrwt beam="1">  1        1 0.37520021E+00 0.32113077E+04</pdfrwt>
<pdfrwt beam="2">  1       -1 0.16263502E+00 0.32113077E+04</pdfrwt>
<totfact> 0.34842039E-01</totfact>
</mgrwt>
</event>
<event>
 6    1  0.1615566E-006  0.2751673E+04  0.7818608E-02  0.8318431E-01
         -2   -1    0    0    0  501 -0.00000000000E+00  0.00000000000E+00  0.10962276155E+04  0.10962276155E+04  0.00000000000E+00 0.  1.
          2   -1    0    0  501    0  0.00000000000E+00 -0.00000000000E+00 -0.17267634819E+04  0.17267634819E+04  0.00000000000E+00 0. -1.
         23    2    1    2    0    0  0.32026766411E+03  0.66066352785E+03  0.87623707700E+03  0.11468609184E+04  0.91928653905E+02 0.  0.
         11    1    3    3    0    0  0.18996486909E+03  0.41136436839E+03  0.60711801239E+03  0.75756159885E+03  0.00000000000E+00 0.  1.
        -11    1    3    3    0    0  0.13030279501E+03  0.24929915945E+03  0.26911906461E+03  0.38929931958E+03  0.00000000000E+00 0. -1.
         22    1    1    2    0    0 -0.32026766411E+03 -0.66066352785E+03 -0.15067729435E+04  0.16761301790E+04  0.00000000000E+00 0. -1.
<mgrwt>
<rscale>  0 0.27516728E+04</rscale>
<asrwt>0</asrwt>
<pdfrwt beam="1">  1        2 0.26565592E+00 0.27516728E+04</pdfrwt>
<pdfrwt beam="2">  1       -2 0.16865040E+00 0.27516728E+04</pdfrwt>
<totfact> 0.18042894E+00</totfact>
</mgrwt>
</event>
<event>
 6    1  0.1585031E-006  0.1201051E+04  0.7818608E-02  0.9111937E-01
          2   -1    0    0  501    0  0.00000000000E+00  0.00000000000E+00  0.69173253926E+03  0.69173253926E+03  0.00000000000E+00 0. -1.
         -2   -1    0    0    0  501 -0.00000000000E+00 -0.00000000000E+00 -0.52134406598E+03  0.52134406598E+03  0.00000000000E+00 0.  1.
         23    2    1    2    0    0  0.30737708635E+03  0.16459112196E+03  0.57475472538E+03  0.67914498370E+03  0.96560881853E+02 0.  0.
         13    1    3    3    0    0  0.22019206813E+03  0.65760439828E+02  0.37609344361E+03  0.44074398537E+03  0.00000000000E+00 0. -1.
        -13    1    3    3    0    0  0.87185018221E+02  0.98830682129E+02  0.19866128177E+03  0.23840099833E+03  0.00000000000E+00 0.  1.
         22    1    1    2    0    0 -0.30737708635E+03 -0.16459112196E+03 -0.40436625209E+03  0.53393162153E+03  0.00000000000E+00 0.  1.
<mgrwt>
<rscale>  0 0.12010506E+04</rscale>
<asrwt>0</asrwt>
<pdfrwt beam="1">  1        2 0.10642039E+00 0.12010506E+04</pdfrwt>
<pdfrwt beam="2">  1       -2 0.80206780E-01 0.12010506E+04</pdfrwt>
<totfact> 0.56429505E+01</totfact>
</mgrwt>
</event>
<event>
 6    1  0.1585031E-006  0.1311046E+04  0.7818608E-02  0.9020852E-01
          1   -1    0    0  501    0  0.00000000000E+00  0.00000000000E+00  0.62799939655E+03  0.62799939655E+03  0.00000000000E+00 0. -1.
         -1   -1    0    0    0  501 -0.00000000000E+00 -0.00000000000E+00 -0.68425239254E+03  0.68425239254E+03  0.00000000000E+00 0.  1.
         23    2    1    2    0    0  0.13085118403E+03 -0.34040135921E+03  0.51287841965E+03  0.63630379849E+03  0.94037933368E+02 0.  0.
         13    1    3    3    0    0  0.10989538260E+03 -0.17723662979E+03  0.32952551178E+03  0.38997035909E+03  0.00000000000E+00 0. -1.
        -13    1    3    3    0    0  0.20955801432E+02 -0.16316472942E+03  0.18335290788E+03  0.24633343940E+03  0.00000000000E+00 0.  1.
         22    1    1    2    0    0 -0.13085118403E+03  0.34040135921E+03 -0.56913141565E+03  0.67594799060E+03  0.00000000000E+00 0.  1.
<mgrwt>
<rscale>  0 0.13110455E+04</rscale>
<asrwt>0</asrwt>
<pdfrwt beam="1">  1        1 0.96615292E-01 0.13110455E+04</pdfrwt>
<pdfrwt beam="2">  1       -1 0.10526960E+00 0.13110455E+04</pdfrwt>
<totfact> 0.26636172E+01</totfact>
</mgrwt>
</event>
<event>
 6    1  0.1585031E-006  0.2768997E+04  0.7818608E-02  0.8312959E-01
          2   -1    0    0  501    0  0.00000000000E+00  0.00000000000E+00  0.27201582665E+04  0.27201582665E+04  0.00000000000E+00 0. -1.
         -2   -1    0    0    0  501 -0.00000000000E+00 -0.00000000000E+00 -0.70467812275E+03  0.70467812275E+03  0.00000000000E+00 0.  1.
         23    2    1    2    0    0 -0.61236927447E+03  0.86366526157E+03 -0.91689425050E+02  0.10666427153E+04  0.91683799074E+02 0.  0.
         11    1    3    3    0    0 -0.55530403527E+03  0.79153207551E+03 -0.57797395466E+02  0.96862073954E+03  0.00000000000E+00 0.  1.
        -11    1    3    3    0    0 -0.57065239197E+02  0.72133186062E+02 -0.33892029584E+02  0.98021975726E+02  0.00000000000E+00 0. -1.
         22    1    1    2    0    0  0.61236927447E+03 -0.86366526157E+03  0.21071695688E+04  0.23581936740E+04  0.00000000000E+00 0. -1.
<mgrwt>
<rscale>  0 0.27689969E+04</rscale>
<asrwt>0</asrwt>
<pdfrwt beam="1">  1        2 0.41848588E+00 0.27689969E+04</pdfrwt>
<pdfrwt beam="2">  1       -2 0.10841202E+00 0.27689969E+04</pdfrwt>
<totfact> 0.15329468E+00</totfact>
</mgrwt>
</event>
<event>
 6    1  0.1585031E-006  0.7670365E+03  0.7818608E-02  0.9608996E-01
          1   -1    0    0  501    0  0.00000000000E+00  0.00000000000E+00  0.66320654627E+03  0.66320654627E+03  0.00000000000E+00 0.  1.
         -1   -1    0    0    0  501 -0.00000000000E+00 -0.00000000000E+00 -0.22178043363E+03  0.22178043363E+03  0.00000000000E+00 0. -1.
         23    2    1    2    0    0  0.26049999365E+03  0.90302053812E+02  0.52236820193E+03  0.59764340606E+03  0.91073568093E+02 0.  0.
         13    1    3    3    0    0  0.14782114335E+03  0.97957292883E+02  0.32632228175E+03  0.37139325952E+03  0.00000000000E+00 0.  1.
        -13    1    3    3    0    0  0.11267885030E+03 -0.76552390705E+01  0.19604592018E+03  0.22625014654E+03  0.00000000000E+00 0. -1.
         22    1    1    2    0    0 -0.26049999365E+03 -0.90302053812E+02 -0.80942089290E+02  0.28734357385E+03  0.00000000000E+00 0. -1.
<mgrwt>
<rscale>  0 0.76703647E+03</rscale>
<asrwt>0</asrwt>
<pdfrwt beam="1">  1        1 0.10203178E+00 0.76703647E+03</pdfrwt>
<pdfrwt beam="2">  1       -1 0.34120067E-01 0.76703647E+03</pdfrwt>
<totfact> 0.24267393E+02</totfact>
</mgrwt>
</event>
<event>
 6    1  0.1585031E-006  0.2540068E+04  0.7818608E-02  0.8388849E-01
         -2   -1    0    0    0  501 -0.00000000000E+00  0.00000000000E+00  0.88900634213E+03  0.88900634213E+03  0.00000000000E+00 0.  1.
          2   -1    0    0  501    0  0.00000000000E+00 -0.00000000000E+00 -0.18143698674E+04  0.18143698674E+04  0.00000000000E+00 0. -1.
         23    2    1    2    0    0  0.72144061531E+03  0.10047732108E+04 -0.76182577841E+03  0.14556621553E+04  0.92347317476E+02 0.  0.
         11    1    3    3    0    0  0.57666069369E+03  0.76581977551E+03 -0.62655453388E+03  0.11452458549E+04  0.00000000000E+00 0. -1.
        -11    1    3    3    0    0  0.14477992162E+03  0.23895343528E+03 -0.13527124453E+03  0.31041630036E+03  0.00000000000E+00 0.  1.
         22    1    1    2    0    0 -0.72144061531E+03 -0.10047732108E+04 -0.16353774683E+03  0.12477140543E+04  0.00000000000E+00 0.  1.
<mgrwt>
<rscale>  0 0.25400680E+04</rscale>
<asrwt>0</asrwt>
<pdfrwt beam="1">  1        2 0.27913382E+00 0.25400680E+04</pdfrwt>
<pdfrwt beam="2">  1       -2 0.13677021E+00 0.25400680E+04</pdfrwt>
<totfact> 0.28738366E+00</totfact>
</mgrwt>
</event>
<event>
 6    1  0.1585031E-006  0.3194947E+04  0.7818608E-02  0.8190153E-01
          1   -1    0    0  501    0  0.00000000000E+00  0.00000000000E+00  0.23844466189E+04  0.23844466189E+04  0.00000000000E+00 0. -1.
         -1   -1    0    0    0  501 -0.00000000000E+00 -0.00000000000E+00 -0.10702366611E+04  0.10702366611E+04  0.00000000000E+00 0.  1.
         23    2    1    2    0    0  0.57040514719E+03 -0.10066044349E+04  0.18466322772E+04  0.21810710759E+04  0.91682881642E+02 0.  0.
         11    1    3    3    0    0  0.18463832330E+03 -0.41575917709E+03  0.73534876020E+03  0.86468769096E+03  0.00000000000E+00 0. -1.
        -11    1    3    3    0    0  0.38576682389E+03 -0.59084525778E+03  0.11112835170E+04  0.13163833849E+04  0.00000000000E+00 0.  1.
         22    1    1    2    0    0 -0.57040514719E+03  0.10066044349E+04 -0.53242231937E+03  0.12736122041E+04  0.00000000000E+00 0.  1.
<mgrwt>
<rscale>  0 0.31949474E+04</rscale>
<asrwt>0</asrwt>
<pdfrwt beam="1">  1        1 0.36683794E+00 0.31949474E+04</pdfrwt>
<pdfrwt beam="2">  1       -1 0.16465179E+00 0.31949474E+04</pdfrwt>
<totfact> 0.36737604E-01</totfact>
</mgrwt>
</event>
<event>
 6    1  0.1585031E-006  0.5320799E+04  0.7818608E-02  0.7780840E-01
         -2   -1    0    0    0  501 -0.00000000000E+00  0.00000000000E+00  0.23367451080E+04  0.23367451080E+04  0.00000000000E+00 0.  1.
          2   -1    0    0  501    0  0.00000000000E+00 -0.00000000000E+00 -0.30288816388E+04  0.30288816388E+04  0.00000000000E+00 0. -1.
         23    2    1    2    0    0  0.13976274743E+04  0.19568771822E+04 -0.14918881244E+04  0.28313944223E+04  0.91287108676E+02 0.  0.
         13    1    3    3    0    0  0.67142899107E+03  0.10174531696E+04 -0.76498550943E+03  0.14391770815E+04  0.00000000000E+00 0.  1.
        -13    1    3    3    0    0  0.72619848319E+03  0.93942401261E+03 -0.72690261493E+03  0.13922173408E+04  0.00000000000E+00 0. -1.
         22    1    1    2    0    0 -0.13976274743E+04 -0.19568771822E+04  0.79975159358E+03  0.25342323245E+04  0.00000000000E+00 0.  1.
<mgrwt>
<rscale>  0 0.53207986E+04</rscale>
<asrwt>0</asrwt>
<pdfrwt beam="1">  1        2 0.46598179E+00 0.53207986E+04</pdfrwt>
<pdfrwt beam="2">  1       -2 0.35949925E+00 0.53207986E+04</pdfrwt>
<totfact> 0.16049778E-02</totfact>
</mgrwt>
</event>
<event>
 6    1  0.1585031E-006  0.1866439E+04  0.7818608E-02  0.8671744E-01
          1   -1    0    0  501    0  0.00000000000E+00  0.00000000000E+00  0.37144207298E+04  0.37144207298E+04  0.00000000000E+00 0. -1.
         -1   -1    0    0    0  501 -0.00000000000E+00 -0.00000000000E+00 -0.23446423143E+03  0.23446423143E+03  0.00000000000E+00 0.  1.
         23    2    1    2    0    0 -0.48536367276E+03 -0.33490547639E+03  0.21921513299E+03  0.63525042723E+03  0.88024188792E+02 0.  0.
         11    1    3    3    0    0 -0.63364257915E+02 -0.82471357049E+02  0.48137878041E+02  0.11460283250E+03  0.00000000000E+00 0.  1.
        -11    1    3    3    0    0 -0.42199941485E+03 -0.25243411934E+03  0.17107725495E+03  0.52064759473E+03  0.00000000000E+00 0. -1.
         22    1    1    2    0    0  0.48536367276E+03  0.33490547639E+03  0.32607413654E+04  0.33136345340E+04  0.00000000000E+00 0. -1.
<mgrwt>
<rscale>  0 0.18664392E+04</rscale>
<asrwt>0</asrwt>
<pdfrwt beam="1">  1        1 0.57144930E+00 0.18664392E+04</pdfrwt>
<pdfrwt beam="2">  1       -1 0.36071423E-01 0.18664392E+04</pdfrwt>
<totfact> 0.11665543E+00</totfact>
</mgrwt>
</event>
<event>
 6    1  0.1585031E-006  0.2465089E+04  0.7818608E-02  0.8415529E-01
          2   -1    0    0  501    0  0.00000000000E+00  0.00000000000E+00  0.68634017091E+03  0.68634017091E+03  0.00000000000E+00 0. -1.
         -2   -1    0    0    0  501 -0.00000000000E+00 -0.00000000000E+00 -0.22134302492E+04  0.22134302492E+04  0.00000000000E+00 0.  1.
         23    2    1    2    0    0 -0.42921577302E+02 -0.22573169209E+03 -0.21871150295E+04  0.22008927522E+04  0.87519689739E+02 0.  0.
         11    1    3    3    0    0 -0.57695319376E+02 -0.76215986526E+02 -0.87100847225E+03  0.87623820118E+03  0.00000000000E+00 0. -1.
        -11    1    3    3    0    0  0.14773742074E+02 -0.14951570556E+03 -0.13161065572E+04  0.13246545510E+04  0.00000000000E+00 0.  1.
         22    1    1    2    0    0  0.42921577302E+02  0.22573169209E+03  0.66002495113E+03  0.69887766792E+03  0.00000000000E+00 0. -1.
<mgrwt>
<rscale>  0 0.24650891E+04</rscale>
<asrwt>0</asrwt>
<pdfrwt beam="1">  1        2 0.10559080E+00 0.24650891E+04</pdfrwt>
<pdfrwt beam="2">  1       -2 0.34052773E+00 0.24650891E+04</pdfrwt>
<totfact> 0.67082679E-01</totfact>
</mgrwt>
</event>
<event>
 6    1  0.1585031E-006  0.3032845E+04  0.7818608E-02  0.8234413E-01
          1   -1    0    0  501    0  0.00000000000E+00  0.00000000000E+00  0.26929869812E+04  0.26929869812E+04  0.00000000000E+00 0. -1.
         -1   -1    0    0    0  501 -0.00000000000E+00 -0.00000000000E+00 -0.85389855556E+03  0.85389855556E+03  0.00000000000E+00 0.  1.
         23    2    1    2    0    0  0.65988186500E+03  0.94296545297E+03 -0.23178033046E+03  0.11776820153E+04  0.92654661192E+02 0.  0.
         11    1    3    3    0    0  0.61763795118E+03  0.83453730925E+03 -0.21164444347E+03  0.10595860181E+04  0.00000000000E+00 0.  1.
        -11    1    3    3    0    0  0.42243913820E+02  0.10842814372E+03 -0.20135886990E+02  0.11809599718E+03  0.00000000000E+00 0. -1.
         22    1    1    2    0    0 -0.65988186500E+03 -0.94296545297E+03  0.20708687561E+04  0.23692035215E+04  0.00000000000E+00 0. -1.
<mgrwt>
<rscale>  0 0.30328453E+04</rscale>
<asrwt>0</asrwt>
<pdfrwt beam="1">  1        1 0.41430568E+00 0.30328453E+04</pdfrwt>
<pdfrwt beam="2">  1       -1 0.13136901E+00 0.30328453E+04</pdfrwt>
<totfact> 0.41580726E-01</totfact>
</mgrwt>
</event>
<event>
 6    1  0.1680647E-006  0.1480882E+04  0.7818608E-02  0.8897267E-01
         -1   -1    0    0    0  501 -0.00000000000E+00  0.00000000000E+00  0.37841083857E+03  0.37841083857E+03  0.00000000000E+00 0.  1.
          1   -1    0    0  501    0  0.00000000000E+00 -0.00000000000E+00 -0.14488290333E+04  0.14488290333E+04  0.00000000000E+00 0. -1.
         23    2    1    2    0    0  0.35129620993E+03  0.64825859191E+03 -0.58873471683E+03  0.94652016505E+03  0.75124077023E+02 0.  0.
         13    1    3    3    0    0  0.10976052113E+03  0.24805066533E+03 -0.17964996428E+03  0.32534691367E+03  0.00000000000E+00 0. -1.
        -13    1    3    3    0    0  0.24153568879E+03  0.40020792659E+03 -0.40908475254E+03  0.62117325138E+03  0.00000000000E+00 0.  1.
         22    1    1    2    0    0 -0.35129620993E+03 -0.64825859191E+03 -0.48168347790E+03  0.88071970682E+03  0.00000000000E+00 0. -1.
<mgrwt>
<rscale>  0 0.14808816E+04</rscale>
<asrwt>0</asrwt>
<pdfrwt beam="1">  1        1 0.22289678E+00 0.14808816E+04</pdfrwt>
<pdfrwt beam="2">  1       -1 0.58217051E-01 0.14808816E+04</pdfrwt>
<totfact> 0.20565153E+01</totfact>
</mgrwt>
</event>
<event>
 6    1  0.1585031E-006  0.1979239E+04  0.7818608E-02  0.8616389E-01
          2   -1    0    0  501    0  0.00000000000E+00  0.00000000000E+00  0.14663443603E+04  0.14663443603E+04  0.00000000000E+00 0. -1.
         -2   -1    0    0    0  501 -0.00000000000E+00 -0.00000000000E+00 -0.66788343362E+03  0.66788343362E+03  0.00000000000E+00 0.  1.
         23    2    1    2    0    0 -0.14918327901E+03 -0.86599725128E+03 -0.85046923672E+02  0.88811663853E+03  0.96495048785E+02 0.  0.
         11    1    3    3    0    0 -0.15460288357E+03 -0.80744467605E+03 -0.97913108176E+02  0.82792266139E+03  0.00000000000E+00 0.  1.
        -11    1    3    3    0    0  0.54196045644E+01 -0.58552575231E+02  0.12866184505E+02  0.60193977137E+02  0.00000000000E+00 0. -1.
         22    1    1    2    0    0  0.14918327901E+03  0.86599725128E+03  0.88350785034E+03  0.12461111554E+04  0.00000000000E+00 0.  1.
<mgrwt>
<rscale>  0 0.19792394E+04</rscale>
<asrwt>0</asrwt>
<pdfrwt beam="1">  1        2 0.22559144E+00 0.19792394E+04</pdfrwt>
<pdfrwt beam="2">  1       -2 0.10275130E+00 0.19792394E+04</pdfrwt>
<totfact> 0.95578585E+00</totfact>
</mgrwt>
</event>
<event>
 6    1  0.1585031E-006  0.1241003E+04  0.7818608E-02  0.9077705E-01
          1   -1    0    0  501    0  0.00000000000E+00  0.00000000000E+00  0.13705962949E+04  0.13705962949E+04  0.00000000000E+00 0. -1.
         -1   -1    0    0    0  501 -0.00000000000E+00 -0.00000000000E+00 -0.28091580875E+03  0.28091580875E+03  0.00000000000E+00 0.  1.
         23    2    1    2    0    0 -0.15328264878E+03  0.57478883825E+03  0.76667577955E+03  0.97460013041E+03  0.90420596386E+02 0.  0.
         13    1    3    3    0    0 -0.70342433958E+02  0.25637046281E+03  0.27077487311E+03  0.37946396947E+03  0.00000000000E+00 0.  1.
        -13    1    3    3    0    0 -0.82940214822E+02  0.31841837544E+03  0.49590090643E+03  0.59513616093E+03  0.00000000000E+00 0. -1.
         22    1    1    2    0    0  0.15328264878E+03 -0.57478883825E+03  0.32300470656E+03  0.67691197319E+03  0.00000000000E+00 0. -1.
<mgrwt>
<rscale>  0 0.12410031E+04</rscale>
<asrwt>0</asrwt>
<pdfrwt beam="1">  1        1 0.21086096E+00 0.12410031E+04</pdfrwt>
<pdfrwt beam="2">  1       -1 0.43217818E-01 0.12410031E+04</pdfrwt>
<totfact> 0.41977725E+01</totfact>
</mgrwt>
</event>
<event>
 6    1  0.2861409E-006  0.2923170E+04  0.7818608E-02  0.8266017E-01
          1   -1    0    0  501    0  0.00000000000E+00  0.00000000000E+00  0.14935880188E+04  0.14935880188E+04  0.00000000000E+00 0. -1.
         -1   -1    0    0    0  501 -0.00000000000E+00 -0.00000000000E+00 -0.14302678406E+04  0.14302678406E+04  0.00000000000E+00 0.  1.
         23    2    1    2    0    0  0.14254470886E+04 -0.23016177464E+03 -0.18621825839E+03  0.14585424880E+04  0.88289889884E+02 0.  0.
         11    1    3    3    0    0  0.58003509633E+03 -0.62816884035E+02 -0.10627730973E+03  0.59302743651E+03  0.00000000000E+00 0. -1.
        -11    1    3    3    0    0  0.84541199228E+03 -0.16734489061E+03 -0.79940948654E+02  0.86551505150E+03  0.00000000000E+00 0.  1.
         22    1    1    2    0    0 -0.14254470886E+04  0.23016177464E+03  0.24953843656E+03  0.14653133713E+04  0.00000000000E+00 0.  1.
<mgrwt>
<rscale>  0 0.29231701E+04</rscale>
<asrwt>0</asrwt>
<pdfrwt beam="1">  1        1 0.22978277E+00 0.29231701E+04</pdfrwt>
<pdfrwt beam="2">  1       -1 0.22004121E+00 0.29231701E+04</pdfrwt>
<totfact> 0.62270251E-01</totfact>
</mgrwt>
</event>
<event>
 6    1  0.1585031E-006  0.5035018E+04  0.7818608E-02  0.7823128E-01
          1   -1    0    0  501    0  0.00000000000E+00  0.00000000000E+00  0.28766462402E+04  0.28766462402E+04  0.00000000000E+00 0.  1.
         -1   -1    0    0    0  501 -0.00000000000E+00 -0.00000000000E+00 -0.22032088030E+04  0.22032088030E+04  0.00000000000E+00 0. -1.
         23    2    1    2    0    0  0.14967331569E+04  0.13423099328E+04  0.18640934770E+04  0.27432618172E+04  0.92923668283E+02 0.  0.
         13    1    3    3    0    0  0.62824989290E+03  0.60535425656E+03  0.85482067547E+03  0.12214213405E+04  0.00000000000E+00 0.  1.
        -13    1    3    3    0    0  0.86848326405E+03  0.73695567619E+03  0.10092728015E+04  0.15218404767E+04  0.00000000000E+00 0. -1.
         22    1    1    2    0    0 -0.14967331569E+04 -0.13423099328E+04 -0.11906560397E+04  0.23365932260E+04  0.00000000000E+00 0. -1.
<mgrwt>
<rscale>  0 0.50350183E+04</rscale>
<asrwt>0</asrwt>
<pdfrwt beam="1">  1        1 0.44256096E+00 0.50350183E+04</pdfrwt>
<pdfrwt beam="2">  1       -1 0.33895520E+00 0.50350183E+04</pdfrwt>
<totfact> 0.97202912E-03</totfact>
</mgrwt>
</event>
<event>
 6    1  0.1585031E-006  0.1760103E+04  0.7818608E-02  0.8727809E-01
         -1   -1    0    0    0  501 -0.00000000000E+00  0.00000000000E+00  0.50685269420E+03  0.50685269420E+03  0.00000000000E+00 0.  1.
          1   -1    0    0  501    0  0.00000000000E+00 -0.00000000000E+00 -0.15280394260E+04  0.15280394260E+04  0.00000000000E+00 0. -1.
         23    2    1    2    0    0 -0.77155800603E+03  0.14182994611E+03 -0.96710711005E+03  0.12485448078E+04  0.90280033914E+02 0.  0.
         11    1    3    3    0    0 -0.43186807135E+03  0.34378014434E+02 -0.51858407560E+03  0.67573761357E+03  0.00000000000E+00 0. -1.
        -11    1    3    3    0    0 -0.33968993469E+03  0.10745193167E+03 -0.44852303444E+03  0.57280719424E+03  0.00000000000E+00 0.  1.
         22    1    1    2    0    0  0.77155800603E+03 -0.14182994611E+03 -0.54079621803E+02  0.78634731244E+03  0.00000000000E+00 0.  1.
<mgrwt>
<rscale>  0 0.17601033E+04</rscale>
<asrwt>0</asrwt>
<pdfrwt beam="1">  1        1 0.23508299E+00 0.17601033E+04</pdfrwt>
<pdfrwt beam="2">  1       -1 0.77977338E-01 0.17601033E+04</pdfrwt>
<totfact> 0.97551576E+00</totfact>
</mgrwt>
</event>
<event>
 6    1  0.1585031E-006  0.3829545E+04  0.7818608E-02  0.8039844E-01
          2   -1    0    0  501    0  0.00000000000E+00  0.00000000000E+00  0.51879161445E+04  0.51879161445E+04  0.00000000000E+00 0. -1.
         -2   -1    0    0    0  501 -0.00000000000E+00 -0.00000000000E+00 -0.70671028077E+03  0.70671028077E+03  0.00000000000E+00 0.  1.
         23    2    1    2    0    0  0.16340232515E+04 -0.43133934698E+03  0.85969535379E+03  0.18982000225E+04  0.89451693903E+02 0.  0.
         13    1    3    3    0    0  0.65766147565E+03 -0.18843792809E+03  0.39471282883E+03  0.78982636481E+03  0.00000000000E+00 0. -1.
        -13    1    3    3    0    0  0.97636177586E+03 -0.24290141889E+03  0.46498252495E+03  0.11083736577E+04  0.00000000000E+00 0.  1.
         22    1    1    2    0    0 -0.16340232515E+04  0.43133934698E+03  0.36215105099E+04  0.39964264027E+04  0.00000000000E+00 0. -1.
<mgrwt>
<rscale>  0 0.38295450E+04</rscale>
<asrwt>0</asrwt>
<pdfrwt beam="1">  1        2 0.79814092E+00 0.38295450E+04</pdfrwt>
<pdfrwt beam="2">  1       -2 0.10872466E+00 0.38295450E+04</pdfrwt>
<totfact> 0.10244887E-02</totfact>
</mgrwt>
</event>
<event>
 6    1  0.1585031E-006  0.4791571E+04  0.7818608E-02  0.7861489E-01
          2   -1    0    0  501    0  0.00000000000E+00  0.00000000000E+00  0.47838938871E+04  0.47838938871E+04  0.00000000000E+00 0. -1.
         -2   -1    0    0    0  501 -0.00000000000E+00 -0.00000000000E+00 -0.11998150681E+04  0.11998150681E+04  0.00000000000E+00 0.  1.
         23    2    1    2    0    0 -0.92626625346E+03  0.64523163802E+03 -0.84536960694E+03  0.14126799247E+04  0.81986329702E+02 0.  0.
         13    1    3    3    0    0 -0.78258954158E+03  0.51005433278E+03 -0.71231264027E+03  0.11747302288E+04  0.00000000000E+00 0. -1.
        -13    1    3    3    0    0 -0.14367671188E+03  0.13517730524E+03 -0.13305696668E+03  0.23794969588E+03  0.00000000000E+00 0.  1.
         22    1    1    2    0    0  0.92626625346E+03 -0.64523163802E+03  0.44294484260E+04  0.45710290305E+04  0.00000000000E+00 0. -1.
<mgrwt>
<rscale>  0 0.47915709E+04</rscale>
<asrwt>0</asrwt>
<pdfrwt beam="1">  1        2 0.73598366E+00 0.47915709E+04</pdfrwt>
<pdfrwt beam="2">  1       -2 0.18458694E+00 0.47915709E+04</pdfrwt>
<totfact> 0.76465707E-03</totfact>
</mgrwt>
</event>
<event>
 6    1  0.1585031E-006  0.1433132E+04  0.7818608E-02  0.8930179E-01
          2   -1    0    0  501    0  0.00000000000E+00  0.00000000000E+00  0.10597552149E+04  0.10597552149E+04  0.00000000000E+00 0. -1.
         -2   -1    0    0    0  501 -0.00000000000E+00 -0.00000000000E+00 -0.48451431406E+03  0.48451431406E+03  0.00000000000E+00 0.  1.
         23    2    1    2    0    0  0.53093611829E+03  0.24169405046E+03 -0.15666370947E+03  0.60832426649E+03  0.72150672961E+02 0.  0.
         11    1    3    3    0    0  0.19787868543E+03  0.60827580683E+02 -0.78162539057E+02  0.22128115878E+03  0.00000000000E+00 0.  1.
        -11    1    3    3    0    0  0.33305743286E+03  0.18086646978E+03 -0.78501170410E+02  0.38704310771E+03  0.00000000000E+00 0. -1.
         22    1    1    2    0    0 -0.53093611829E+03 -0.24169405046E+03  0.73190461030E+03  0.93594526246E+03  0.00000000000E+00 0. -1.
<mgrwt>
<rscale>  0 0.14331316E+04</rscale>
<asrwt>0</asrwt>
<pdfrwt beam="1">  1        2 0.16303926E+00 0.14331316E+04</pdfrwt>
<pdfrwt beam="2">  1       -2 0.74540664E-01 0.14331316E+04</pdfrwt>
<totfact> 0.36283302E+01</totfact>
</mgrwt>
</event>
<event>
 6    1  0.1585031E-006  0.3409090E+04  0.7818608E-02  0.8135679E-01
          1   -1    0    0  501    0  0.00000000000E+00  0.00000000000E+00  0.24581077593E+04  0.24581077593E+04  0.00000000000E+00 0. -1.
         -1   -1    0    0    0  501 -0.00000000000E+00 -0.00000000000E+00 -0.11819960819E+04  0.11819960819E+04  0.00000000000E+00 0.  1.
         23    2    1    2    0    0 -0.41868037548E+03 -0.15881921559E+04  0.15664282333E+03  0.16524272840E+04  0.91276359685E+02 0.  0.
         11    1    3    3    0    0 -0.74344755476E+02 -0.16957578951E+03  0.14990367601E+02  0.18576275778E+03  0.00000000000E+00 0. -1.
        -11    1    3    3    0    0 -0.34433562000E+03 -0.14186163664E+04  0.14165245573E+03  0.14666645262E+04  0.00000000000E+00 0.  1.
         22    1    1    2    0    0  0.41868037548E+03  0.15881921559E+04  0.11194688540E+04  0.19876765572E+04  0.00000000000E+00 0.  1.
<mgrwt>
<rscale>  0 0.34090900E+04</rscale>
<asrwt>0</asrwt>
<pdfrwt beam="1">  1        1 0.37817042E+00 0.34090900E+04</pdfrwt>
<pdfrwt beam="2">  1       -1 0.18184555E+00 0.34090900E+04</pdfrwt>
<totfact> 0.24031768E-01</totfact>
</mgrwt>
</event>
<event>
 6    1  0.1585031E-006  0.5102779E+04  0.7818608E-02  0.7812845E-01
         -1   -1    0    0    0  501 -0.00000000000E+00  0.00000000000E+00  0.20922757471E+04  0.20922757471E+04  0.00000000000E+00 0.  1.
          1   -1    0    0  501    0  0.00000000000E+00 -0.00000000000E+00 -0.31112476442E+04  0.31112476442E+04  0.00000000000E+00 0. -1.
         23    2    1    2    0    0 -0.55060284100E+03  0.11189398788E+03 -0.30466758562E+04  0.30994161937E+04  0.91995739258E+02 0.  0.
         13    1    3    3    0    0 -0.37530975827E+03  0.11929542331E+03 -0.21309991600E+04  0.21670824240E+04  0.00000000000E+00 0. -1.
        -13    1    3    3    0    0 -0.17529308273E+03 -0.74014354226E+01 -0.91567669623E+03  0.93233376970E+03  0.00000000000E+00 0.  1.
         22    1    1    2    0    0  0.55060284100E+03 -0.11189398788E+03  0.20277039591E+04  0.21041071976E+04  0.00000000000E+00 0.  1.
<mgrwt>
<rscale>  0 0.51027788E+04</rscale>
<asrwt>0</asrwt>
<pdfrwt beam="1">  1        1 0.47865348E+00 0.51027788E+04</pdfrwt>
<pdfrwt beam="2">  1       -1 0.32188858E+00 0.51027788E+04</pdfrwt>
<totfact> 0.84325275E-03</totfact>
</mgrwt>
</event>
<event>
 6    1  0.1585031E-006  0.5724122E+03  0.7818608E-02  0.9964355E-01
         -2   -1    0    0    0  501 -0.00000000000E+00  0.00000000000E+00  0.29262845836E+03  0.29262845836E+03  0.00000000000E+00 0.  1.
          2   -1    0    0  501    0  0.00000000000E+00 -0.00000000000E+00 -0.27992471086E+03  0.27992471086E+03  0.00000000000E+00 0. -1.
         23    2    1    2    0    0  0.17047613753E+03  0.66183438389E+02 -0.20365147741E+03  0.28926542798E+03  0.93585269070E+02 0.  0.
         11    1    3    3    0    0  0.44602504348E+02  0.40746552459E+02 -0.12458194962E+03  0.13845695036E+03  0.00000000000E+00 0.  1.
        -11    1    3    3    0    0  0.12587363319E+03  0.25436885930E+02 -0.79069527791E+02  0.15080847762E+03  0.00000000000E+00 0. -1.
         22    1    1    2    0    0 -0.17047613753E+03 -0.66183438389E+02  0.21635522491E+03  0.28328774123E+03  0.00000000000E+00 0.  1.
<mgrwt>
<rscale>  0 0.57241222E+03</rscale>
<asrwt>0</asrwt>
<pdfrwt beam="1">  1        2 0.43065340E-01 0.57241222E+03</pdfrwt>
<pdfrwt beam="2">  1       -2 0.45019763E-01 0.57241222E+03</pdfrwt>
<totfact> 0.55921110E+02</totfact>
</mgrwt>
</event>
<event>
 6    1  0.1585031E-006  0.2499026E+04  0.7818608E-02  0.8403333E-01
          2   -1    0    0  501    0  0.00000000000E+00  0.00000000000E+00  0.36014443933E+04  0.36014443933E+04  0.00000000000E+00 0. -1.
         -2   -1    0    0    0  501 -0.00000000000E+00 -0.00000000000E+00 -0.43351571118E+03  0.43351571118E+03  0.00000000000E+00 0.  1.
         23    2    1    2    0    0  0.61685021141E+03  0.10469263170E+04  0.11282626935E+04  0.16607662957E+04  0.92785164913E+02 0.  0.
         11    1    3    3    0    0  0.31465522921E+03  0.58175770933E+03  0.55978148305E+03  0.86649019290E+03  0.00000000000E+00 0.  1.
        -11    1    3    3    0    0  0.30219498220E+03  0.46516860767E+03  0.56848121046E+03  0.79427610280E+03  0.00000000000E+00 0. -1.
         22    1    1    2    0    0 -0.61685021141E+03 -0.10469263170E+04  0.20396659886E+04  0.23741938088E+04  0.00000000000E+00 0.  1.
<mgrwt>
<rscale>  0 0.24990260E+04</rscale>
<asrwt>0</asrwt>
<pdfrwt beam="1">  1        2 0.55406835E+00 0.24990260E+04</pdfrwt>
<pdfrwt beam="2">  1       -2 0.66694727E-01 0.24990260E+04</pdfrwt>
<totfact> 0.12708067E+00</totfact>
</mgrwt>
</event>
<event>
 6    1  0.1585031E-006  0.1891877E+04  0.7818608E-02  0.8658910E-01
          2   -1    0    0  501    0  0.00000000000E+00  0.00000000000E+00  0.26184423748E+04  0.26184423748E+04  0.00000000000E+00 0. -1.
         -2   -1    0    0    0  501 -0.00000000000E+00 -0.00000000000E+00 -0.34172986456E+03  0.34172986456E+03  0.00000000000E+00 0.  1.
         23    2    1    2    0    0 -0.37543948653E+03  0.85305099844E+03  0.91991835957E+03  0.13141038382E+04  0.10939970438E+03 0.  0.
         11    1    3    3    0    0 -0.10986464230E+03  0.26507218329E+03  0.21529221441E+03  0.35872585573E+03  0.00000000000E+00 0.  1.
        -11    1    3    3    0    0 -0.26557484424E+03  0.58797881515E+03  0.70462614516E+03  0.95537798247E+03  0.00000000000E+00 0. -1.
         22    1    1    2    0    0  0.37543948653E+03 -0.85305099844E+03  0.13567941507E+04  0.16460684011E+04  0.00000000000E+00 0. -1.
<mgrwt>
<rscale>  0 0.18918773E+04</rscale>
<asrwt>0</asrwt>
<pdfrwt beam="1">  1        2 0.40283728E+00 0.18918773E+04</pdfrwt>
<pdfrwt beam="2">  1       -2 0.52573827E-01 0.18918773E+04</pdfrwt>
<totfact> 0.95076657E+00</totfact>
</mgrwt>
</event>
<event>
 6    1  0.1585031E-006  0.1988202E+04  0.7818608E-02  0.8612157E-01
          2   -1    0    0  501    0  0.00000000000E+00  0.00000000000E+00  0.14344186145E+04  0.14344186145E+04  0.00000000000E+00 0.  1.
         -2   -1    0    0    0  501 -0.00000000000E+00 -0.00000000000E+00 -0.68894590037E+03  0.68894590037E+03  0.00000000000E+00 0. -1.
         23    2    1    2    0    0  0.11481273069E+03 -0.59743526569E+03 -0.46334270099E+03  0.77009234430E+03  0.90801433747E+02 0.  0.
         13    1    3    3    0    0  0.56461060905E+02 -0.20091188622E+03 -0.20930474907E+03  0.29557049143E+03  0.00000000000E+00 0. -1.
        -13    1    3    3    0    0  0.58351669786E+02 -0.39652337947E+03 -0.25403795192E+03  0.47452185286E+03  0.00000000000E+00 0.  1.
         22    1    1    2    0    0 -0.11481273069E+03  0.59743526569E+03  0.12088154151E+04  0.13532721706E+04  0.00000000000E+00 0.  1.
<mgrwt>
<rscale>  0 0.19882020E+04</rscale>
<asrwt>0</asrwt>
<pdfrwt beam="1">  1        2 0.22067979E+00 0.19882020E+04</pdfrwt>
<pdfrwt beam="2">  1       -2 0.10599168E+00 0.19882020E+04</pdfrwt>
<totfact> 0.92439290E+00</totfact>
</mgrwt>
</event>
<event>
 6    1  0.1585031E-006  0.1887009E+04  0.7818608E-02  0.8661350E-01
         -2   -1    0    0    0  501 -0.00000000000E+00  0.00000000000E+00  0.32409415753E+03  0.32409415753E+03  0.00000000000E+00 0.  1.
          2   -1    0    0  501    0  0.00000000000E+00 -0.00000000000E+00 -0.27467363790E+04  0.27467363790E+04  0.00000000000E+00 0. -1.
         23    2    1    2    0    0  0.28511109982E+03  0.49923135796E+03 -0.24270095964E+04  0.24959050092E+04  0.92983579046E+02 0.  0.
         13    1    3    3    0    0  0.19158373954E+03  0.38421394010E+03 -0.16542614486E+04  0.17090657160E+04  0.00000000000E+00 0.  1.
        -13    1    3    3    0    0  0.93527360279E+02  0.11501741786E+03 -0.77274814773E+03  0.78683929322E+03  0.00000000000E+00 0. -1.
         22    1    1    2    0    0 -0.28511109982E+03 -0.49923135796E+03  0.43673749158E+01  0.57492552733E+03  0.00000000000E+00 0.  1.
<mgrwt>
<rscale>  0 0.18870095E+04</rscale>
<asrwt>0</asrwt>
<pdfrwt beam="1">  1        2 0.42257483E+00 0.18870095E+04</pdfrwt>
<pdfrwt beam="2">  1       -2 0.49860639E-01 0.18870095E+04</pdfrwt>
<totfact> 0.89006025E+00</totfact>
</mgrwt>
</event>
<event>
 6    1  0.1585031E-006  0.4969586E+04  0.7818608E-02  0.7833216E-01
          2   -1    0    0  501    0  0.00000000000E+00  0.00000000000E+00  0.28772889258E+04  0.28772889258E+04  0.00000000000E+00 0. -1.
         -2   -1    0    0    0  501 -0.00000000000E+00 -0.00000000000E+00 -0.21458381781E+04  0.21458381781E+04  0.00000000000E+00 0.  1.
         23    2    1    2    0    0 -0.15988026304E+04  0.19008492861E+04  0.39149779516E+03  0.25161436837E+04  0.91162790272E+02 0.  0.
         11    1    3    3    0    0 -0.41281604139E+03  0.46786129095E+03  0.13558307379E+03  0.63850923368E+03  0.00000000000E+00 0.  1.
        -11    1    3    3    0    0 -0.11859865890E+04  0.14329879951E+04  0.25591472138E+03  0.18776344500E+04  0.00000000000E+00 0. -1.
         22    1    1    2    0    0  0.15988026304E+04 -0.19008492861E+04  0.33995295255E+03  0.25069834202E+04  0.00000000000E+00 0.  1.
<mgrwt>
<rscale>  0 0.49695861E+04</rscale>
<asrwt>0</asrwt>
<pdfrwt beam="1">  1        2 0.44265984E+00 0.49695861E+04</pdfrwt>
<pdfrwt beam="2">  1       -2 0.33012895E+00 0.49695861E+04</pdfrwt>
<totfact> 0.31363870E-02</totfact>
</mgrwt>
</event>
<event>
 6    1  0.1585031E-006  0.1566077E+04  0.7818608E-02  0.8841664E-01
         -1   -1    0    0    0  501 -0.00000000000E+00  0.00000000000E+00  0.29309697031E+03  0.29309697031E+03  0.00000000000E+00 0.  1.
          1   -1    0    0  501    0  0.00000000000E+00 -0.00000000000E+00 -0.20919660273E+04  0.20919660273E+04  0.00000000000E+00 0. -1.
         23    2    1    2    0    0 -0.33858678647E+03 -0.49067419342E+03 -0.16694873460E+04  0.17750287336E+04  0.90204383605E+02 0.  0.
         13    1    3    3    0    0 -0.26554122982E+03 -0.33066244093E+03 -0.10966324807E+04  0.11757774417E+04  0.00000000000E+00 0. -1.
        -13    1    3    3    0    0 -0.73045556655E+02 -0.16001175249E+03 -0.57285486522E+03  0.59925129193E+03  0.00000000000E+00 0.  1.
         22    1    1    2    0    0  0.33858678647E+03  0.49067419342E+03 -0.12938171100E+03  0.61003426396E+03  0.00000000000E+00 0.  1.
<mgrwt>
<rscale>  0 0.15660765E+04</rscale>
<asrwt>0</asrwt>
<pdfrwt beam="1">  1        1 0.32184092E+00 0.15660765E+04</pdfrwt>
<pdfrwt beam="2">  1       -1 0.45091842E-01 0.15660765E+04</pdfrwt>
<totfact> 0.12123325E+01</totfact>
</mgrwt>
</event>
<event>
 6    1  0.1585031E-006  0.3545027E+04  0.7818608E-02  0.8103201E-01
         -1   -1    0    0    0  501 -0.00000000000E+00  0.00000000000E+00  0.17453244214E+04  0.17453244214E+04  0.00000000000E+00 0.  1.
          1   -1    0    0  501    0  0.00000000000E+00 -0.00000000000E+00 -0.18001262581E+04  0.18001262581E+04  0.00000000000E+00 0. -1.
         23    2    1    2    0    0  0.41538790775E+03 -0.80532131889E+03 -0.15496144180E+04  0.17974363221E+04  0.91558433782E+02 0.  0.
         13    1    3    3    0    0  0.19587381040E+03 -0.29560372910E+03 -0.56018347482E+03  0.66298841597E+03  0.00000000000E+00 0. -1.
        -13    1    3    3    0    0  0.21951409735E+03 -0.50971758980E+03 -0.98943094321E+03  0.11344479061E+04  0.00000000000E+00 0.  1.
         22    1    1    2    0    0 -0.41538790775E+03  0.80532131889E+03  0.14948125813E+04  0.17480143574E+04  0.00000000000E+00 0.  1.
<mgrwt>
<rscale>  0 0.35450271E+04</rscale>
<asrwt>0</asrwt>
<pdfrwt beam="1">  1        1 0.27694250E+00 0.35450271E+04</pdfrwt>
<pdfrwt beam="2">  1       -1 0.26851145E+00 0.35450271E+04</pdfrwt>
<totfact> 0.17490554E-01</totfact>
</mgrwt>
</event>
<event>
 6    1  0.1585031E-006  0.2195025E+04  0.7818608E-02  0.8520502E-01
         -2   -1    0    0    0  501 -0.00000000000E+00  0.00000000000E+00  0.62159715902E+03  0.62159715902E+03  0.00000000000E+00 0.  1.
          2   -1    0    0  501    0  0.00000000000E+00 -0.00000000000E+00 -0.19378046793E+04  0.19378046793E+04  0.00000000000E+00 0. -1.
         23    2    1    2    0    0 -0.54657012470E+03 -0.91748710364E+03 -0.37369082771E+03  0.11350215512E+04  0.90042214828E+02 0.  0.
         11    1    3    3    0    0 -0.31905738112E+03 -0.61356550223E+03 -0.22408537410E+03  0.72696251131E+03  0.00000000000E+00 0.  1.
        -11    1    3    3    0    0 -0.22751274358E+03 -0.30392160142E+03 -0.14960545361E+03  0.40805903991E+03  0.00000000000E+00 0. -1.
         22    1    1    2    0    0  0.54657012470E+03  0.91748710364E+03 -0.94251669260E+03  0.14243802871E+04  0.00000000000E+00 0.  1.
<mgrwt>
<rscale>  0 0.21950252E+04</rscale>
<asrwt>0</asrwt>
<pdfrwt beam="1">  1        2 0.29812379E+00 0.21950252E+04</pdfrwt>
<pdfrwt beam="2">  1       -2 0.95630334E-01 0.21950252E+04</pdfrwt>
<totfact> 0.60709233E+00</totfact>
</mgrwt>
</event>
<event>
 6    1  0.1608435E-006  0.2095779E+04  0.7818608E-02  0.8563105E-01
         -1   -1    0    0    0  501 -0.00000000000E+00  0.00000000000E+00  0.64908701918E+03  0.64908701918E+03  0.00000000000E+00 0.  1.
          1   -1    0    0  501    0  0.00000000000E+00 -0.00000000000E+00 -0.16917184286E+04  0.16917184286E+04  0.00000000000E+00 0. -1.
         23    2    1    2    0    0  0.10294977564E+04 -0.12455859973E+03 -0.67458290358E+03  0.12404236150E+04  0.90598983735E+02 0.  0.
         11    1    3    3    0    0  0.55471567995E+03 -0.21595932617E+02 -0.36081395465E+03  0.66208955569E+03  0.00000000000E+00 0. -1.
        -11    1    3    3    0    0  0.47478207640E+03 -0.10296266711E+03 -0.31376894893E+03  0.57833405935E+03  0.00000000000E+00 0.  1.
         22    1    1    2    0    0 -0.10294977564E+04  0.12455859973E+03 -0.36804850580E+03  0.11003818327E+04  0.00000000000E+00 0. -1.
<mgrwt>
<rscale>  0 0.20957791E+04</rscale>
<asrwt>0</asrwt>
<pdfrwt beam="1">  1        1 0.26026437E+00 0.20957791E+04</pdfrwt>
<pdfrwt beam="2">  1       -1 0.99859542E-01 0.20957791E+04</pdfrwt>
<totfact> 0.42472797E+00</totfact>
</mgrwt>
</event>
<event>
 6    1  0.1585031E-006  0.1651877E+04  0.7818608E-02  0.8789297E-01
         -2   -1    0    0    0  501 -0.00000000000E+00  0.00000000000E+00  0.45882319625E+03  0.45882319625E+03  0.00000000000E+00 0.  1.
          2   -1    0    0  501    0  0.00000000000E+00 -0.00000000000E+00 -0.14867921078E+04  0.14867921078E+04  0.00000000000E+00 0. -1.
         23    2    1    2    0    0  0.26696747667E+03 -0.42537710106E+03  0.25302051219E+03  0.56969698691E+03  0.91202881540E+02 0.  0.
         13    1    3    3    0    0  0.21544721045E+03 -0.32097254763E+03  0.23357003976E+03  0.45165898673E+03  0.00000000000E+00 0. -1.
        -13    1    3    3    0    0  0.51520266222E+02 -0.10440455343E+03  0.19450472429E+02  0.11803800018E+03  0.00000000000E+00 0.  1.
         22    1    1    2    0    0 -0.26696747667E+03  0.42537710106E+03 -0.12809894237E+04  0.13759183171E+04  0.00000000000E+00 0. -1.
<mgrwt>
<rscale>  0 0.16518774E+04</rscale>
<asrwt>0</asrwt>
<pdfrwt beam="1">  1        2 0.22873725E+00 0.16518774E+04</pdfrwt>
<pdfrwt beam="2">  1       -2 0.70588184E-01 0.16518774E+04</pdfrwt>
<totfact> 0.22511394E+01</totfact>
</mgrwt>
</event>
<event>
 6    1  0.1585031E-006  0.1899604E+04  0.7818608E-02  0.8655053E-01
         -2   -1    0    0    0  501 -0.00000000000E+00  0.00000000000E+00  0.40677117527E+03  0.40677117527E+03  0.00000000000E+00 0.  1.
          2   -1    0    0  501    0  0.00000000000E+00 -0.00000000000E+00 -0.22177685041E+04  0.22177685041E+04  0.00000000000E+00 0. -1.
         23    2    1    2    0    0 -0.31998960932E+02 -0.55916485424E+03  0.14980472700E+03  0.58531581479E+03  0.80398253050E+02 0.  0.
         11    1    3    3    0    0 -0.19251162038E+02 -0.40814067520E+02 -0.16014465690E+01  0.45154844462E+02  0.00000000000E+00 0. -1.
        -11    1    3    3    0    0 -0.12747798894E+02 -0.51835078672E+03  0.15140617357E+03  0.54016097033E+03  0.00000000000E+00 0.  1.
         22    1    1    2    0    0  0.31998960932E+02  0.55916485424E+03 -0.19608020558E+04  0.20392238646E+04  0.00000000000E+00 0. -1.
<mgrwt>
<rscale>  0 0.18996045E+04</rscale>
<asrwt>0</asrwt>
<pdfrwt beam="1">  1        2 0.34119515E+00 0.18996045E+04</pdfrwt>
<pdfrwt beam="2">  1       -2 0.62580181E-01 0.18996045E+04</pdfrwt>
<totfact> 0.11194181E+01</totfact>
</mgrwt>
</event>
<event>
 6    1  0.1585031E-006  0.4974223E+03  0.7818608E-02  0.1014454E+00
          2   -1    0    0  501    0  0.00000000000E+00  0.00000000000E+00  0.59183629390E+03  0.59183629390E+03  0.00000000000E+00 0.  1.
         -2   -1    0    0    0  501 -0.00000000000E+00 -0.00000000000E+00 -0.10451747355E+03  0.10451747355E+03  0.00000000000E+00 0. -1.
         23    2    1    2    0    0 -0.49061997851E+02  0.17839368346E+03  0.36762758175E+02  0.20928893492E+03  0.90658545973E+02 0.  0.
         11    1    3    3    0    0 -0.35570814227E+02  0.60776894847E+02 -0.26276198856E+02  0.75163504431E+02  0.00000000000E+00 0. -1.
        -11    1    3    3    0    0 -0.13491183623E+02  0.11761678861E+03  0.63038957030E+02  0.13412543048E+03  0.00000000000E+00 0.  1.
         22    1    1    2    0    0  0.49061997851E+02 -0.17839368346E+03  0.45055606218E+03  0.48706483254E+03  0.00000000000E+00 0.  1.
<mgrwt>
<rscale>  0 0.49742229E+03</rscale>
<asrwt>0</asrwt>
<pdfrwt beam="1">  1        2 0.91051735E-01 0.49742229E+03</pdfrwt>
<pdfrwt beam="2">  1       -2 0.16079612E-01 0.49742229E+03</pdfrwt>
<totfact> 0.15691117E+03</totfact>
</mgrwt>
</event>
<event>
 6    1  0.1585031E-006  0.2884428E+04  0.7818608E-02  0.8277526E-01
          1   -1    0    0  501    0  0.00000000000E+00  0.00000000000E+00  0.34175867388E+04  0.34175867388E+04  0.00000000000E+00 0. -1.
         -1   -1    0    0    0  501 -0.00000000000E+00 -0.00000000000E+00 -0.60861111387E+03  0.60861111387E+03  0.00000000000E+00 0.  1.
         23    2    1    2    0    0  0.43756396783E+03 -0.41711643567E+03 -0.41978853086E+03  0.74132855229E+03  0.88866557016E+02 0.  0.
         13    1    3    3    0    0  0.20709121132E+03 -0.24581837935E+03 -0.18860219215E+03  0.37267174875E+03  0.00000000000E+00 0.  1.
        -13    1    3    3    0    0  0.23047275651E+03 -0.17129805631E+03 -0.23118633871E+03  0.36865680354E+03  0.00000000000E+00 0. -1.
         22    1    1    2    0    0 -0.43756396783E+03  0.41711643567E+03  0.32287641558E+04  0.32848693004E+04  0.00000000000E+00 0. -1.
<mgrwt>
<rscale>  0 0.28844280E+04</rscale>
<asrwt>0</asrwt>
<pdfrwt beam="1">  1        1 0.52578256E+00 0.28844280E+04</pdfrwt>
<pdfrwt beam="2">  1       -1 0.93632481E-01 0.28844280E+04</pdfrwt>
<totfact> 0.27549033E-01</totfact>
</mgrwt>
</event>
<event>
 6    1  0.1585031E-006  0.1849575E+04  0.7818608E-02  0.8680372E-01
          1   -1    0    0  501    0  0.00000000000E+00  0.00000000000E+00  0.10971057693E+04  0.10971057693E+04  0.00000000000E+00 0. -1.
         -1   -1    0    0    0  501 -0.00000000000E+00 -0.00000000000E+00 -0.77953432827E+03  0.77953432827E+03  0.00000000000E+00 0.  1.
         23    2    1    2    0    0  0.10415620213E+03 -0.41275934789E+03  0.98962388420E+03  0.10811067670E+04  0.90651066362E+02 0.  0.
         13    1    3    3    0    0  0.73096155157E+02 -0.17304049518E+03  0.34802727755E+03  0.39548583639E+03  0.00000000000E+00 0. -1.
        -13    1    3    3    0    0  0.31060046977E+02 -0.23971885270E+03  0.64159660665E+03  0.68562093064E+03  0.00000000000E+00 0.  1.
         22    1    1    2    0    0 -0.10415620213E+03  0.41275934789E+03 -0.67205244314E+03  0.79553333056E+03  0.00000000000E+00 0.  1.
<mgrwt>
<rscale>  0 0.18495747E+04</rscale>
<asrwt>0</asrwt>
<pdfrwt beam="1">  1        1 0.16878550E+00 0.18495747E+04</pdfrwt>
<pdfrwt beam="2">  1       -1 0.11992836E+00 0.18495747E+04</pdfrwt>
<totfact> 0.74243929E+00</totfact>
</mgrwt>
</event>
<event>
 6    1  0.1585031E-006  0.2503448E+04  0.7818608E-02  0.8401758E-01
          2   -1    0    0  501    0  0.00000000000E+00  0.00000000000E+00  0.66366690954E+03  0.66366690954E+03  0.00000000000E+00 0. -1.
         -2   -1    0    0    0  501 -0.00000000000E+00 -0.00000000000E+00 -0.23608426368E+04  0.23608426368E+04  0.00000000000E+00 0.  1.
         23    2    1    2    0    0  0.40847329298E+03 -0.27806427668E+03 -0.22369150490E+04  0.22927386064E+04  0.93226647820E+02 0.  0.
         13    1    3    3    0    0  0.18881613802E+03 -0.15921218400E+03 -0.12906989895E+04  0.13141171694E+04  0.00000000000E+00 0. -1.
        -13    1    3    3    0    0  0.21965715497E+03 -0.11885209268E+03 -0.94621605951E+03  0.97862143699E+03  0.00000000000E+00 0.  1.
         22    1    1    2    0    0 -0.40847329298E+03  0.27806427668E+03  0.53973932175E+03  0.73177093991E+03  0.00000000000E+00 0. -1.
<mgrwt>
<rscale>  0 0.25034481E+04</rscale>
<asrwt>0</asrwt>
<pdfrwt beam="1">  1        2 0.10210260E+00 0.25034481E+04</pdfrwt>
<pdfrwt beam="2">  1       -2 0.36320655E+00 0.25034481E+04</pdfrwt>
<totfact> 0.50147709E-01</totfact>
</mgrwt>
</event>
<event>
 6    1  0.1585031E-006  0.2449326E+04  0.7818608E-02  0.8421264E-01
         -2   -1    0    0    0  501 -0.00000000000E+00  0.00000000000E+00  0.12113551598E+04  0.12113551598E+04  0.00000000000E+00 0. -1.
          2   -1    0    0  501    0  0.00000000000E+00 -0.00000000000E+00 -0.12381174420E+04  0.12381174420E+04  0.00000000000E+00 0.  1.
         23    2    1    2    0    0 -0.47372972197E+03 -0.74035279241E+03  0.83698317879E+03  0.12171583853E+04  0.91605603002E+02 0.  0.
         11    1    3    3    0    0 -0.45872964338E+03 -0.68391542743E+03  0.76068784449E+03  0.11210794773E+04  0.00000000000E+00 0. -1.
        -11    1    3    3    0    0 -0.15000078591E+02 -0.56437364981E+02  0.76295334301E+02  0.96078907986E+02  0.00000000000E+00 0.  1.
         22    1    1    2    0    0  0.47372972197E+03  0.74035279241E+03 -0.86374546099E+03  0.12323142165E+04  0.00000000000E+00 0.  1.
<mgrwt>
<rscale>  0 0.24493264E+04</rscale>
<asrwt>0</asrwt>
<pdfrwt beam="1">  1        2 0.19047961E+00 0.24493264E+04</pdfrwt>
<pdfrwt beam="2">  1       -2 0.18636233E+00 0.24493264E+04</pdfrwt>
<totfact> 0.26406506E+00</totfact>
</mgrwt>
</event>
<event>
 6    1  0.1585031E-006  0.2153348E+04  0.7818608E-02  0.8538101E-01
          2   -1    0    0  501    0  0.00000000000E+00  0.00000000000E+00  0.24267375742E+04  0.24267375742E+04  0.00000000000E+00 0.  1.
         -2   -1    0    0    0  501 -0.00000000000E+00 -0.00000000000E+00 -0.47768943614E+03  0.47768943614E+03  0.00000000000E+00 0. -1.
         23    2    1    2    0    0 -0.17880613278E+03 -0.92804353721E+03  0.16663626563E+04  0.19179446122E+04  0.92252877315E+02 0.  0.
         11    1    3    3    0    0 -0.30160603964E+02 -0.28732768321E+03  0.44081104295E+03  0.52704955665E+03  0.00000000000E+00 0.  1.
        -11    1    3    3    0    0 -0.14864552882E+03 -0.64071585399E+03  0.12255516133E+04  0.13908950556E+04  0.00000000000E+00 0. -1.
         22    1    1    2    0    0  0.17880613278E+03  0.92804353721E+03  0.28268548176E+03  0.98648239805E+03  0.00000000000E+00 0. -1.
<mgrwt>
<rscale>  0 0.21533480E+04</rscale>
<asrwt>0</asrwt>
<pdfrwt beam="1">  1        2 0.37334424E+00 0.21533480E+04</pdfrwt>
<pdfrwt beam="2">  1       -2 0.73490684E-01 0.21533480E+04</pdfrwt>
<totfact> 0.58817344E+00</totfact>
</mgrwt>
</event>
<event>
 6    1  0.1585031E-006  0.1619020E+04  0.7818608E-02  0.8808948E-01
         -1   -1    0    0    0  501 -0.00000000000E+00  0.00000000000E+00  0.40189462129E+03  0.40189462129E+03  0.00000000000E+00 0.  1.
          1   -1    0    0  501    0  0.00000000000E+00 -0.00000000000E+00 -0.16305435740E+04  0.16305435740E+04  0.00000000000E+00 0. -1.
         23    2    1    2    0    0  0.45688136833E+03  0.56649746575E+03 -0.17844101474E+03  0.75470712952E+03  0.89898232383E+02 0.  0.
         11    1    3    3    0    0  0.20508610909E+03  0.18498257667E+03 -0.68810215387E+02  0.28462907714E+03  0.00000000000E+00 0. -1.
        -11    1    3    3    0    0  0.25179525925E+03  0.38151488908E+03 -0.10963079935E+03  0.47007805239E+03  0.00000000000E+00 0.  1.
         22    1    1    2    0    0 -0.45688136833E+03 -0.56649746575E+03 -0.10502079380E+04  0.12777310658E+04  0.00000000000E+00 0. -1.
<mgrwt>
<rscale>  0 0.16190203E+04</rscale>
<asrwt>0</asrwt>
<pdfrwt beam="1">  1        1 0.25085286E+00 0.16190203E+04</pdfrwt>
<pdfrwt beam="2">  1       -1 0.61829941E-01 0.16190203E+04</pdfrwt>
<totfact> 0.13514568E+01</totfact>
</mgrwt>
</event>
<event>
 6    1  0.1585031E-006  0.1082190E+04  0.7818608E-02  0.9222727E-01
          1   -1    0    0  501    0  0.00000000000E+00  0.00000000000E+00  0.25152239916E+03  0.25152239916E+03  0.00000000000E+00 0. -1.
         -1   -1    0    0    0  501 -0.00000000000E+00 -0.00000000000E+00 -0.11640465549E+04  0.11640465549E+04  0.00000000000E+00 0.  1.
         23    2    1    2    0    0  0.61961210281E+02  0.41679927584E+03 -0.89529403937E+03  0.99383716155E+03  0.92736502146E+02 0.  0.
         11    1    3    3    0    0 -0.24212672822E+02  0.11499058546E+03 -0.25256261417E+03  0.27856231322E+03  0.00000000000E+00 0.  1.
        -11    1    3    3    0    0  0.86173883103E+02  0.30180869039E+03 -0.64273142519E+03  0.71527484833E+03  0.00000000000E+00 0. -1.
         22    1    1    2    0    0 -0.61961210281E+02 -0.41679927584E+03 -0.17230116391E+02  0.42173179254E+03  0.00000000000E+00 0. -1.
<mgrwt>
<rscale>  0 0.10821900E+04</rscale>
<asrwt>0</asrwt>
<pdfrwt beam="1">  1        1 0.38695754E-01 0.10821900E+04</pdfrwt>
<pdfrwt beam="2">  1       -1 0.17908409E+00 0.10821900E+04</pdfrwt>
<totfact> 0.23266001E+01</totfact>
</mgrwt>
</event>
<event>
 6    1  0.1585031E-006  0.1503353E+04  0.7818608E-02  0.8882226E-01
          1   -1    0    0  501    0  0.00000000000E+00  0.00000000000E+00  0.70683340410E+03  0.70683340410E+03  0.00000000000E+00 0. -1.
         -1   -1    0    0    0  501 -0.00000000000E+00 -0.00000000000E+00 -0.79936465614E+03  0.79936465614E+03  0.00000000000E+00 0.  1.
         23    2    1    2    0    0  0.12126032121E+03  0.25002159141E+03 -0.74320894774E+03  0.79866973899E+03  0.91098574665E+02 0.  0.
         11    1    3    3    0    0  0.10535910844E+03  0.15314238180E+03 -0.38939626966E+03  0.43148880131E+03  0.00000000000E+00 0. -1.
        -11    1    3    3    0    0  0.15901212769E+02  0.96879209618E+02 -0.35381267808E+03  0.36718093768E+03  0.00000000000E+00 0.  1.
         22    1    1    2    0    0 -0.12126032121E+03 -0.25002159141E+03  0.65067769571E+03  0.70752832125E+03  0.00000000000E+00 0. -1.
<mgrwt>
<rscale>  0 0.15033531E+04</rscale>
<asrwt>0</asrwt>
<pdfrwt beam="1">  1        1 0.10874360E+00 0.15033531E+04</pdfrwt>
<pdfrwt beam="2">  1       -1 0.12297918E+00 0.15033531E+04</pdfrwt>
<totfact> 0.15132728E+01</totfact>
</mgrwt>
</event>
<event>
 6    1  0.1656165E-006  0.3727282E+04  0.7818608E-02  0.8061943E-01
         -1   -1    0    0    0  501 -0.00000000000E+00  0.00000000000E+00  0.13594873269E+04  0.13594873269E+04  0.00000000000E+00 0.  1.
          1   -1    0    0  501    0  0.00000000000E+00 -0.00000000000E+00 -0.25547555675E+04  0.25547555675E+04  0.00000000000E+00 0. -1.
         23    2    1    2    0    0 -0.12228096783E+04 -0.13538776730E+04 -0.20318776066E+03  0.18375936844E+04  0.84953045886E+02 0.  0.
         11    1    3    3    0    0 -0.82310631817E+03 -0.96959851139E+03 -0.14150960168E+03  0.12797070960E+04  0.00000000000E+00 0. -1.
        -11    1    3    3    0    0 -0.39970336017E+03 -0.38427916158E+03 -0.61678158977E+02  0.55788658834E+03  0.00000000000E+00 0.  1.
         22    1    1    2    0    0  0.12228096783E+04  0.13538776730E+04 -0.99208047990E+03  0.20766492100E+04  0.00000000000E+00 0.  1.
<mgrwt>
<rscale>  0 0.37272820E+04</rscale>
<asrwt>0</asrwt>
<pdfrwt beam="1">  1        1 0.39303932E+00 0.37272820E+04</pdfrwt>
<pdfrwt beam="2">  1       -1 0.20915190E+00 0.37272820E+04</pdfrwt>
<totfact> 0.12940220E-01</totfact>
</mgrwt>
</event>
<event>
 6    1  0.1585031E-006  0.1038980E+04  0.7818608E-02  0.9266796E-01
          1   -1    0    0  501    0  0.00000000000E+00  0.00000000000E+00  0.46171438028E+03  0.46171438028E+03  0.00000000000E+00 0. -1.
         -1   -1    0    0    0  501 -0.00000000000E+00 -0.00000000000E+00 -0.58449559598E+03  0.58449559598E+03  0.00000000000E+00 0.  1.
         23    2    1    2    0    0 -0.46955863934E+03 -0.35360195365E+01 -0.27615625295E+03  0.55222442862E+03  0.90508144989E+02 0.  0.
         11    1    3    3    0    0 -0.30252793202E+03 -0.31811951979E+01 -0.22660371192E+03  0.37799803163E+03  0.00000000000E+00 0.  1.
        -11    1    3    3    0    0 -0.16703070732E+03 -0.35482433864E+00 -0.49552541030E+02  0.17422639700E+03  0.00000000000E+00 0. -1.
         22    1    1    2    0    0  0.46955863934E+03  0.35360195365E+01  0.15337503725E+03  0.49398554763E+03  0.00000000000E+00 0. -1.
<mgrwt>
<rscale>  0 0.10389803E+04</rscale>
<asrwt>0</asrwt>
<pdfrwt beam="1">  1        1 0.71032982E-01 0.10389803E+04</pdfrwt>
<pdfrwt beam="2">  1       -1 0.89922399E-01 0.10389803E+04</pdfrwt>
<totfact> 0.59896884E+01</totfact>
</mgrwt>
</event>
<event>
 6    1  0.1585031E-006  0.3389150E+04  0.7818608E-02  0.8140574E-01
          2   -1    0    0  501    0  0.00000000000E+00  0.00000000000E+00  0.24692161176E+04  0.24692161176E+04  0.00000000000E+00 0. -1.
         -2   -1    0    0    0  501 -0.00000000000E+00 -0.00000000000E+00 -0.11629539173E+04  0.11629539173E+04  0.00000000000E+00 0.  1.
         23    2    1    2    0    0 -0.42643481488E+03 -0.16312104940E+04  0.48462929208E+03  0.17565967990E+04  0.89846737896E+02 0.  0.
         13    1    3    3    0    0 -0.20277112077E+02 -0.17586253443E+03  0.38727764011E+02  0.18121432613E+03  0.00000000000E+00 0.  1.
        -13    1    3    3    0    0 -0.40615770280E+03 -0.14553479596E+04  0.44590152807E+03  0.15753824729E+04  0.00000000000E+00 0. -1.
         22    1    1    2    0    0  0.42643481488E+03  0.16312104940E+04  0.82163290821E+03  0.18755732359E+04  0.00000000000E+00 0. -1.
<mgrwt>
<rscale>  0 0.33891501E+04</rscale>
<asrwt>0</asrwt>
<pdfrwt beam="1">  1        2 0.37987940E+00 0.33891501E+04</pdfrwt>
<pdfrwt beam="2">  1       -2 0.17891599E+00 0.33891501E+04</pdfrwt>
<totfact> 0.55476304E-01</totfact>
</mgrwt>
</event>
<event>
 6    1  0.1585031E-006  0.1325092E+04  0.7818608E-02  0.9009900E-01
          1   -1    0    0  501    0  0.00000000000E+00  0.00000000000E+00  0.55796755696E+03  0.55796755696E+03  0.00000000000E+00 0. -1.
         -1   -1    0    0    0  501 -0.00000000000E+00 -0.00000000000E+00 -0.78672581198E+03  0.78672581198E+03  0.00000000000E+00 0.  1.
         23    2    1    2    0    0  0.65372936163E+03 -0.25140174607E+02 -0.31290218423E+02  0.66132836244E+03  0.91553364610E+02 0.  0.
         11    1    3    3    0    0  0.24537680335E+03  0.32194707817E+02 -0.26997257775E+02  0.24894804029E+03  0.00000000000E+00 0. -1.
        -11    1    3    3    0    0  0.40835255827E+03 -0.57334882425E+02 -0.42929606483E+01  0.41238032216E+03  0.00000000000E+00 0.  1.
         22    1    1    2    0    0 -0.65372936163E+03  0.25140174607E+02 -0.19746803660E+03  0.68336500650E+03  0.00000000000E+00 0.  1.
<mgrwt>
<rscale>  0 0.13250924E+04</rscale>
<asrwt>0</asrwt>
<pdfrwt beam="1">  1        1 0.85841163E-01 0.13250924E+04</pdfrwt>
<pdfrwt beam="2">  1       -1 0.12103474E+00 0.13250924E+04</pdfrwt>
<totfact> 0.22601846E+01</totfact>
</mgrwt>
</event>
<event>
 6    1  0.1765245E-006  0.1898354E+04  0.7818608E-02  0.8655676E-01
         -1   -1    0    0    0  501 -0.00000000000E+00  0.00000000000E+00  0.49502680639E+03  0.49502680639E+03  0.00000000000E+00 0.  1.
          1   -1    0    0  501    0  0.00000000000E+00 -0.00000000000E+00 -0.18199761221E+04  0.18199761221E+04  0.00000000000E+00 0. -1.
         23    2    1    2    0    0 -0.29876603219E+03  0.20908502631E+01  0.43189650865E+03  0.53293313070E+03  0.90651056070E+02 0.  0.
         11    1    3    3    0    0 -0.20725380172E+03  0.42303248871E+02  0.27582897470E+03  0.34759937640E+03  0.00000000000E+00 0.  1.
        -11    1    3    3    0    0 -0.91512230464E+02 -0.40212398608E+02  0.15606753395E+03  0.18533375429E+03  0.00000000000E+00 0. -1.
         22    1    1    2    0    0  0.29876603219E+03 -0.20908502631E+01 -0.17568458243E+04  0.17820697978E+04  0.00000000000E+00 0. -1.
<mgrwt>
<rscale>  0 0.18983540E+04</rscale>
<asrwt>0</asrwt>
<pdfrwt beam="1">  1        1 0.27999633E+00 0.18983540E+04</pdfrwt>
<pdfrwt beam="2">  1       -1 0.76157970E-01 0.18983540E+04</pdfrwt>
<totfact> 0.63964702E+00</totfact>
</mgrwt>
</event>
<event>
 6    1  0.1585031E-006  0.2883259E+04  0.7818608E-02  0.8277876E-01
         -2   -1    0    0    0  501 -0.00000000000E+00  0.00000000000E+00  0.66645903018E+03  0.66645903018E+03  0.00000000000E+00 0.  1.
          2   -1    0    0  501    0  0.00000000000E+00 -0.00000000000E+00 -0.31184144521E+04  0.31184144521E+04  0.00000000000E+00 0. -1.
         23    2    1    2    0    0  0.76898942114E+03  0.39305569796E+03 -0.27401171022E+04  0.28744479414E+04  0.91497116264E+02 0.  0.
         13    1    3    3    0    0  0.60480581944E+03  0.26976159991E+03 -0.20348529494E+04  0.21399037188E+04  0.00000000000E+00 0.  1.
        -13    1    3    3    0    0  0.16418360170E+03  0.12329409805E+03 -0.70526415282E+03  0.73454422258E+03  0.00000000000E+00 0. -1.
         22    1    1    2    0    0 -0.76898942114E+03 -0.39305569796E+03  0.28816168030E+03  0.91042554090E+03  0.00000000000E+00 0.  1.
<mgrwt>
<rscale>  0 0.28832589E+04</rscale>
<asrwt>0</asrwt>
<pdfrwt beam="1">  1        2 0.47975606E+00 0.28832589E+04</pdfrwt>
<pdfrwt beam="2">  1       -2 0.10253216E+00 0.28832589E+04</pdfrwt>
<totfact> 0.98445312E-01</totfact>
</mgrwt>
</event>
<event>
 6    1  0.1585031E-006  0.3785647E+04  0.7818608E-02  0.8049242E-01
          2   -1    0    0  501    0  0.00000000000E+00  0.00000000000E+00  0.34079485638E+04  0.34079485638E+04  0.00000000000E+00 0. -1.
         -2   -1    0    0    0  501 -0.00000000000E+00 -0.00000000000E+00 -0.10513014405E+04  0.10513014405E+04  0.00000000000E+00 0.  1.
         23    2    1    2    0    0 -0.37021917162E+03 -0.17755611056E+04  0.18123506809E+04  0.25655926720E+04  0.89282099044E+02 0.  0.
         11    1    3    3    0    0 -0.30092590636E+02 -0.16386854355E+03  0.13214300368E+03  0.21265050434E+03  0.00000000000E+00 0.  1.
        -11    1    3    3    0    0 -0.34012658099E+03 -0.16116925621E+04  0.16802076772E+04  0.23529421677E+04  0.00000000000E+00 0. -1.
         22    1    1    2    0    0  0.37021917162E+03  0.17755611056E+04  0.54429644235E+03  0.18936573323E+04  0.00000000000E+00 0. -1.
<mgrwt>
<rscale>  0 0.37856472E+04</rscale>
<asrwt>0</asrwt>
<pdfrwt beam="1">  1        2 0.52429977E+00 0.37856472E+04</pdfrwt>
<pdfrwt beam="2">  1       -2 0.16173869E+00 0.37856472E+04</pdfrwt>
<totfact> 0.18456581E-01</totfact>
</mgrwt>
</event>
<event>
 6    1  0.1585031E-006  0.1187454E+04  0.7818608E-02  0.9123910E-01
         -2   -1    0    0    0  501 -0.00000000000E+00  0.00000000000E+00  0.15164586353E+04  0.15164586353E+04  0.00000000000E+00 0.  1.
          2   -1    0    0  501    0  0.00000000000E+00 -0.00000000000E+00 -0.23245705442E+03  0.23245705442E+03  0.00000000000E+00 0. -1.
         23    2    1    2    0    0  0.46724701413E+03  0.18090991838E+03  0.11053765137E+04  0.12169804630E+04  0.90199997603E+02 0.  0.
         13    1    3    3    0    0  0.19439663449E+03  0.35909227048E+02  0.49037595746E+03  0.52872308796E+03  0.00000000000E+00 0.  1.
        -13    1    3    3    0    0  0.27285037964E+03  0.14500069133E+03  0.61500055623E+03  0.68825737506E+03  0.00000000000E+00 0. -1.
         22    1    1    2    0    0 -0.46724701413E+03 -0.18090991838E+03  0.17862506720E+03  0.53193522671E+03  0.00000000000E+00 0. -1.
<mgrwt>
<rscale>  0 0.11874536E+04</rscale>
<asrwt>0</asrwt>
<pdfrwt beam="1">  1        2 0.35762625E-01 0.11874536E+04</pdfrwt>
<pdfrwt beam="2">  1       -2 0.23330132E+00 0.11874536E+04</pdfrwt>
<totfact> 0.11776314E+01</totfact>
</mgrwt>
</event>
<event>
 6    1  0.1585031E-006  0.1568137E+04  0.7818608E-02  0.8840366E-01
          1   -1    0    0  501    0  0.00000000000E+00  0.00000000000E+00  0.22643496703E+04  0.22643496703E+04  0.00000000000E+00 0. -1.
         -1   -1    0    0    0  501 -0.00000000000E+00 -0.00000000000E+00 -0.27149655677E+03  0.27149655677E+03  0.00000000000E+00 0.  1.
         23    2    1    2    0    0 -0.57121265274E+03  0.21054091323E+03  0.17916326853E+04  0.18946746186E+04  0.96087775291E+02 0.  0.
         11    1    3    3    0    0 -0.39200185442E+03  0.15271672186E+03  0.13643022102E+04  0.14276933746E+04  0.00000000000E+00 0. -1.
        -11    1    3    3    0    0 -0.17921079832E+03  0.57824191365E+02  0.42733047511E+03  0.46698124406E+03  0.00000000000E+00 0.  1.
         22    1    1    2    0    0  0.57121265274E+03 -0.21054091323E+03  0.20122042827E+03  0.64117160850E+03  0.00000000000E+00 0.  1.
<mgrwt>
<rscale>  0 0.15681367E+04</rscale>
<asrwt>0</asrwt>
<pdfrwt beam="1">  1        1 0.34836147E+00 0.15681367E+04</pdfrwt>
<pdfrwt beam="2">  1       -1 0.41768703E-01 0.15681367E+04</pdfrwt>
<totfact> 0.10666668E+01</totfact>
</mgrwt>
</event>
<event>
 6    1  0.1585031E-006  0.8828233E+03  0.7818608E-02  0.9447312E-01
         -1   -1    0    0    0  501 -0.00000000000E+00  0.00000000000E+00  0.96658406937E+02  0.96658406937E+02  0.00000000000E+00 0.  1.
          1   -1    0    0  501    0  0.00000000000E+00 -0.00000000000E+00 -0.20158023453E+04  0.20158023453E+04  0.00000000000E+00 0. -1.
         23    2    1    2    0    0  0.17252458911E+03  0.24573479471E+03 -0.17281291074E+04  0.17565998401E+04  0.95196969219E+02 0.  0.
         11    1    3    3    0    0  0.11384360948E+03  0.20193013227E+03 -0.10962042683E+04  0.11204463145E+04  0.00000000000E+00 0. -1.
        -11    1    3    3    0    0  0.58680979627E+02  0.43804662448E+02 -0.63192483910E+03  0.63615352557E+03  0.00000000000E+00 0.  1.
         22    1    1    2    0    0 -0.17252458911E+03 -0.24573479471E+03 -0.19101483092E+03  0.35586091217E+03  0.00000000000E+00 0.  1.
<mgrwt>
<rscale>  0 0.88282330E+03</rscale>
<asrwt>0</asrwt>
<pdfrwt beam="1">  1        1 0.31012343E+00 0.88282330E+03</pdfrwt>
<pdfrwt beam="2">  1       -1 0.14870525E-01 0.88282330E+03</pdfrwt>
<totfact> 0.98742266E+01</totfact>
</mgrwt>
</event>
<event>
 6    1  0.1585031E-006  0.2137955E+04  0.7818608E-02  0.8544706E-01
         -1   -1    0    0    0  501 -0.00000000000E+00  0.00000000000E+00  0.12366849464E+04  0.12366849464E+04  0.00000000000E+00 0.  1.
          1   -1    0    0  501    0  0.00000000000E+00 -0.00000000000E+00 -0.92401266570E+03  0.92401266570E+03  0.00000000000E+00 0. -1.
         23    2    1    2    0    0 -0.98077729005E+03 -0.92761015485E+02  0.57109033301E+03  0.11422141373E+04  0.89332347342E+02 0.  0.
         13    1    3    3    0    0 -0.79166645069E+03 -0.39447905413E+02  0.45238497900E+03  0.91265769904E+03  0.00000000000E+00 0.  1.
        -13    1    3    3    0    0 -0.18911083936E+03 -0.53313110073E+02  0.11870535402E+03  0.22955643825E+03  0.00000000000E+00 0. -1.
         22    1    1    2    0    0  0.98077729005E+03  0.92761015485E+02 -0.25841805232E+03  0.10184834748E+04  0.00000000000E+00 0. -1.
<mgrwt>
<rscale>  0 0.21379547E+04</rscale>
<asrwt>0</asrwt>
<pdfrwt beam="1">  1        1 0.14215579E+00 0.21379547E+04</pdfrwt>
<pdfrwt beam="2">  1       -1 0.19025922E+00 0.21379547E+04</pdfrwt>
<totfact> 0.28053945E+00</totfact>
</mgrwt>
</event>
<event>
 6    1  0.1585031E-006  0.8292704E+03  0.7818608E-02  0.9518590E-01
          2   -1    0    0  501    0  0.00000000000E+00  0.00000000000E+00  0.10081806055E+04  0.10081806055E+04  0.00000000000E+00 0. -1.
         -2   -1    0    0    0  501 -0.00000000000E+00 -0.00000000000E+00 -0.17052734885E+03  0.17052734885E+03  0.00000000000E+00 0.  1.
         23    2    1    2    0    0 -0.31417945501E+03  0.24277303072E+03  0.56713625883E+03  0.69826345129E+03  0.90999103991E+02 0.  0.
         11    1    3    3    0    0 -0.39466132277E+02  0.89541078307E+01  0.26688925100E+02  0.48477318067E+02  0.00000000000E+00 0.  1.
        -11    1    3    3    0    0 -0.27471332273E+03  0.23381892289E+03  0.54044733373E+03  0.64978613322E+03  0.00000000000E+00 0. -1.
         22    1    1    2    0    0  0.31417945501E+03 -0.24277303072E+03  0.27051699778E+03  0.48044450303E+03  0.00000000000E+00 0.  1.
<mgrwt>
<rscale>  0 0.82927044E+03</rscale>
<asrwt>0</asrwt>
<pdfrwt beam="1">  1        2 0.15510470E+00 0.82927044E+03</pdfrwt>
<pdfrwt beam="2">  1       -2 0.26234977E-01 0.82927044E+03</pdfrwt>
<totfact> 0.32800563E+02</totfact>
</mgrwt>
</event>
<event>
 6    1  0.1585031E-006  0.1703372E+04  0.7818608E-02  0.8759443E-01
          2   -1    0    0  501    0  0.00000000000E+00  0.00000000000E+00  0.10321151678E+04  0.10321151678E+04  0.00000000000E+00 0. -1.
         -2   -1    0    0    0  501 -0.00000000000E+00 -0.00000000000E+00 -0.70279860838E+03  0.70279860838E+03  0.00000000000E+00 0.  1.
         23    2    1    2    0    0 -0.65569121014E+03 -0.50020343783E+03  0.37144097637E+03  0.90913601623E+03  0.91790276261E+02 0.  0.
         13    1    3    3    0    0 -0.43448016700E+03 -0.33161870699E+03  0.19785498977E+03  0.58128356188E+03  0.00000000000E+00 0. -1.
        -13    1    3    3    0    0 -0.22121104314E+03 -0.16858473084E+03  0.17358598659E+03  0.32785245435E+03  0.00000000000E+00 0.  1.
         22    1    1    2    0    0  0.65569121014E+03  0.50020343783E+03 -0.42124416988E+02  0.82577775992E+03  0.00000000000E+00 0.  1.
<mgrwt>
<rscale>  0 0.17033721E+04</rscale>
<asrwt>0</asrwt>
<pdfrwt beam="1">  1        2 0.15878695E+00 0.17033721E+04</pdfrwt>
<pdfrwt beam="2">  1       -2 0.10812286E+00 0.17033721E+04</pdfrwt>
<totfact> 0.15657757E+01</totfact>
</mgrwt>
</event>
<event>
 6    1  0.1585031E-006  0.1336063E+04  0.7818608E-02  0.9001446E-01
          2   -1    0    0  501    0  0.00000000000E+00  0.00000000000E+00  0.11898216092E+04  0.11898216092E+04  0.00000000000E+00 0. -1.
         -2   -1    0    0    0  501 -0.00000000000E+00 -0.00000000000E+00 -0.37506968614E+03  0.37506968614E+03  0.00000000000E+00 0.  1.
         23    2    1    2    0    0  0.33236368863E+03 -0.56847809503E+03  0.30082159605E+03  0.72957258548E+03  0.90274906713E+02 0.  0.
         11    1    3    3    0    0  0.31054870204E+03 -0.47928767128E+03  0.27689225293E+03  0.63468613338E+03  0.00000000000E+00 0.  1.
        -11    1    3    3    0    0  0.21814986594E+02 -0.89190423750E+02  0.23929343121E+02  0.94886452094E+02  0.00000000000E+00 0. -1.
         22    1    1    2    0    0 -0.33236368863E+03  0.56847809503E+03  0.51393032704E+03  0.83531870990E+03  0.00000000000E+00 0. -1.
<mgrwt>
<rscale>  0 0.13360629E+04</rscale>
<asrwt>0</asrwt>
<pdfrwt beam="1">  1        2 0.18304948E+00 0.13360629E+04</pdfrwt>
<pdfrwt beam="2">  1       -2 0.57703029E-01 0.13360629E+04</pdfrwt>
<totfact> 0.52812735E+01</totfact>
</mgrwt>
</event>
<event>
 6    1  0.1585031E-006  0.1451015E+04  0.7818608E-02  0.8917697E-01
         -1   -1    0    0    0  501 -0.00000000000E+00  0.00000000000E+00  0.77476754194E+03  0.77476754194E+03  0.00000000000E+00 0.  1.
          1   -1    0    0  501    0  0.00000000000E+00 -0.00000000000E+00 -0.67937900343E+03  0.67937900343E+03  0.00000000000E+00 0. -1.
         23    2    1    2    0    0  0.51973811442E+03  0.16549736398E+03  0.52305812053E+03  0.76102436535E+03  0.89728491220E+02 0.  0.
         13    1    3    3    0    0  0.38985755604E+03  0.16384473029E+03  0.40130356031E+03  0.58299104381E+03  0.00000000000E+00 0.  1.
        -13    1    3    3    0    0  0.12988055839E+03  0.16526336859E+01  0.12175456022E+03  0.17803332154E+03  0.00000000000E+00 0. -1.
         22    1    1    2    0    0 -0.51973811442E+03 -0.16549736398E+03 -0.42766958202E+03  0.69312218003E+03  0.00000000000E+00 0. -1.
<mgrwt>
<rscale>  0 0.14510145E+04</rscale>
<asrwt>0</asrwt>
<pdfrwt beam="1">  1        1 0.10451985E+00 0.14510145E+04</pdfrwt>
<pdfrwt beam="2">  1       -1 0.11919501E+00 0.14510145E+04</pdfrwt>
<totfact> 0.17430142E+01</totfact>
</mgrwt>
</event>
<event>
 6    1  0.1585031E-006  0.3695825E+04  0.7818608E-02  0.8068888E-01
         -1   -1    0    0    0  501 -0.00000000000E+00  0.00000000000E+00  0.77682433072E+03  0.77682433072E+03  0.00000000000E+00 0.  1.
          1   -1    0    0  501    0  0.00000000000E+00 -0.00000000000E+00 -0.43958218739E+04  0.43958218739E+04  0.00000000000E+00 0. -1.
         23    2    1    2    0    0  0.31754278583E+03  0.17737578446E+04 -0.23764568890E+04  0.29838205858E+04  0.92669471688E+02 0.  0.
         11    1    3    3    0    0  0.12373334604E+03  0.48668461659E+03 -0.62781011411E+03  0.80393867697E+03  0.00000000000E+00 0. -1.
        -11    1    3    3    0    0  0.19380943979E+03  0.12870732280E+04 -0.17486467749E+04  0.21798819088E+04  0.00000000000E+00 0.  1.
         22    1    1    2    0    0 -0.31754278583E+03 -0.17737578446E+04 -0.12425406542E+04  0.21888256188E+04  0.00000000000E+00 0. -1.
<mgrwt>
<rscale>  0 0.36958254E+04</rscale>
<asrwt>0</asrwt>
<pdfrwt beam="1">  1        1 0.67628029E+00 0.36958254E+04</pdfrwt>
<pdfrwt beam="2">  1       -1 0.11951144E+00 0.36958254E+04</pdfrwt>
<totfact> 0.20504084E-02</totfact>
</mgrwt>
</event>
<event>
 6    1  0.1585031E-006  0.6751191E+03  0.7818608E-02  0.9760754E-01
         -1   -1    0    0    0  501 -0.00000000000E+00  0.00000000000E+00  0.14312575122E+03  0.14312575122E+03  0.00000000000E+00 0.  1.
          1   -1    0    0  501    0  0.00000000000E+00 -0.00000000000E+00 -0.79612814205E+03  0.79612814205E+03  0.00000000000E+00 0. -1.
         23    2    1    2    0    0 -0.30906258793E+03  0.31950523911E+02 -0.49257559736E+03  0.58957221618E+03  0.91783221475E+02 0.  0.
         11    1    3    3    0    0 -0.15415404748E+03  0.46836721091E+02 -0.31236478701E+03  0.35146679638E+03  0.00000000000E+00 0.  1.
        -11    1    3    3    0    0 -0.15490854045E+03 -0.14886197180E+02 -0.18021081035E+03  0.23810541980E+03  0.00000000000E+00 0. -1.
         22    1    1    2    0    0  0.30906258793E+03 -0.31950523911E+02 -0.16042679347E+03  0.34968167710E+03  0.00000000000E+00 0.  1.
<mgrwt>
<rscale>  0 0.67511907E+03</rscale>
<asrwt>0</asrwt>
<pdfrwt beam="1">  1        1 0.12248125E+00 0.67511907E+03</pdfrwt>
<pdfrwt beam="2">  1       -1 0.22019346E-01 0.67511907E+03</pdfrwt>
<totfact> 0.39191396E+02</totfact>
</mgrwt>
</event>
<event>
 6    1  0.1585031E-006  0.2471659E+04  0.7818608E-02  0.8413152E-01
         -2   -1    0    0    0  501 -0.00000000000E+00  0.00000000000E+00  0.73027638907E+03  0.73027638907E+03  0.00000000000E+00 0.  1.
          2   -1    0    0  501    0  0.00000000000E+00 -0.00000000000E+00 -0.20913656678E+04  0.20913656678E+04  0.00000000000E+00 0. -1.
         23    2    1    2    0    0  0.93851561131E+03  0.24285293724E+03 -0.15533921320E+04  0.18333255644E+04  0.90919787072E+02 0.  0.
         13    1    3    3    0    0  0.43730922060E+03  0.14396317477E+03 -0.80098568628E+03  0.92387381159E+03  0.00000000000E+00 0. -1.
        -13    1    3    3    0    0  0.50120639071E+03  0.98889762473E+02 -0.75240644570E+03  0.90945175284E+03  0.00000000000E+00 0.  1.
         22    1    1    2    0    0 -0.93851561131E+03 -0.24285293724E+03  0.19230285327E+03  0.98831649242E+03  0.00000000000E+00 0.  1.
<mgrwt>
<rscale>  0 0.24716593E+04</rscale>
<asrwt>0</asrwt>
<pdfrwt beam="1">  1        2 0.32174857E+00 0.24716593E+04</pdfrwt>
<pdfrwt beam="2">  1       -2 0.11235021E+00 0.24716593E+04</pdfrwt>
<totfact> 0.33148895E+00</totfact>
</mgrwt>
</event>
<event>
 6    1  0.1585031E-006  0.6845158E+03  0.7818608E-02  0.9744085E-01
          2   -1    0    0  501    0  0.00000000000E+00  0.00000000000E+00  0.64585135946E+03  0.64585135946E+03  0.00000000000E+00 0. -1.
         -2   -1    0    0    0  501 -0.00000000000E+00 -0.00000000000E+00 -0.18137370734E+03  0.18137370734E+03  0.00000000000E+00 0.  1.
         23    2    1    2    0    0  0.55177916879E+02  0.12707446821E+03  0.60659785924E+03  0.62875422196E+03  0.90434428266E+02 0.  0.
         13    1    3    3    0    0  0.45196121514E+02  0.71862744845E+02  0.51022056280E+03  0.51723492361E+03  0.00000000000E+00 0.  1.
        -13    1    3    3    0    0  0.99817953648E+01  0.55211723365E+02  0.96377296439E+02  0.11151929835E+03  0.00000000000E+00 0. -1.
         22    1    1    2    0    0 -0.55177916879E+02 -0.12707446821E+03 -0.14212020712E+03  0.19847084484E+03  0.00000000000E+00 0.  1.
<mgrwt>
<rscale>  0 0.68451576E+03</rscale>
<asrwt>0</asrwt>
<pdfrwt beam="1">  1        2 0.99361746E-01 0.68451576E+03</pdfrwt>
<pdfrwt beam="2">  1       -2 0.27903648E-01 0.68451576E+03</pdfrwt>
<totfact> 0.53464736E+02</totfact>
</mgrwt>
</event>
<event>
 6    1  0.1585031E-006  0.3472509E+04  0.7818608E-02  0.8120336E-01
         -1   -1    0    0    0  501 -0.00000000000E+00  0.00000000000E+00  0.17037503758E+04  0.17037503758E+04  0.00000000000E+00 0.  1.
          1   -1    0    0  501    0  0.00000000000E+00 -0.00000000000E+00 -0.17693791714E+04  0.17693791714E+04  0.00000000000E+00 0. -1.
         23    2    1    2    0    0  0.13305340563E+04  0.10158323082E+03 -0.11419281424E+04  0.17587607678E+04  0.92733640535E+02 0.  0.
         11    1    3    3    0    0  0.96428255131E+03  0.55137821398E+02 -0.77628134586E+03  0.12391504130E+04  0.00000000000E+00 0.  1.
        -11    1    3    3    0    0  0.36625150498E+03  0.46445409420E+02 -0.36564679654E+03  0.51961035476E+03  0.00000000000E+00 0. -1.
         22    1    1    2    0    0 -0.13305340563E+04 -0.10158323082E+03  0.10762993468E+04  0.17143687794E+04  0.00000000000E+00 0.  1.
<mgrwt>
<rscale>  0 0.34725094E+04</rscale>
<asrwt>0</asrwt>
<pdfrwt beam="1">  1        1 0.27221218E+00 0.34725094E+04</pdfrwt>
<pdfrwt beam="2">  1       -1 0.26211544E+00 0.34725094E+04</pdfrwt>
<totfact> 0.20318227E-01</totfact>
</mgrwt>
</event>
<event>
 6    1  0.1585031E-006  0.4575432E+04  0.7818608E-02  0.7897562E-01
         -1   -1    0    0    0  501 -0.00000000000E+00  0.00000000000E+00  0.12528445432E+04  0.12528445432E+04  0.00000000000E+00 0.  1.
          1   -1    0    0  501    0  0.00000000000E+00 -0.00000000000E+00 -0.41774100299E+04  0.41774100299E+04  0.00000000000E+00 0. -1.
         23    2    1    2    0    0  0.17000190219E+04  0.61520885303E+03  0.19922173386E+03  0.18210173674E+04  0.88703694598E+02 0.  0.
         11    1    3    3    0    0  0.45380563705E+03  0.15998294003E+03  0.13886292733E+02  0.48138023063E+03  0.00000000000E+00 0.  1.
        -11    1    3    3    0    0  0.12462133848E+04  0.45522591299E+03  0.18533544113E+03  0.13396371367E+04  0.00000000000E+00 0. -1.
         22    1    1    2    0    0 -0.17000190219E+04 -0.61520885303E+03 -0.31237872206E+04  0.36092372058E+04  0.00000000000E+00 0. -1.
<mgrwt>
<rscale>  0 0.45754324E+04</rscale>
<asrwt>0</asrwt>
<pdfrwt beam="1">  1        1 0.64267847E+00 0.45754324E+04</pdfrwt>
<pdfrwt beam="2">  1       -1 0.19274531E+00 0.45754324E+04</pdfrwt>
<totfact> 0.83413093E-03</totfact>
</mgrwt>
</event>
<event>
 6    1  0.1585031E-006  0.1919176E+04  0.7818608E-02  0.8645370E-01
         -1   -1    0    0    0  501 -0.00000000000E+00  0.00000000000E+00  0.85804440953E+03  0.85804440953E+03  0.00000000000E+00 0.  1.
          1   -1    0    0  501    0  0.00000000000E+00 -0.00000000000E+00 -0.10731481205E+04  0.10731481205E+04  0.00000000000E+00 0. -1.
         23    2    1    2    0    0 -0.23642536080E+03 -0.10033121411E+03 -0.10359820444E+04  0.10710736184E+04  0.89311790882E+02 0.  0.
         13    1    3    3    0    0 -0.59494691600E+02 -0.48545785349E+02 -0.45831071867E+03  0.46469885566E+03  0.00000000000E+00 0.  1.
        -13    1    3    3    0    0 -0.17693066920E+03 -0.51785428765E+02 -0.57767132573E+03  0.60637476276E+03  0.00000000000E+00 0. -1.
         22    1    1    2    0    0  0.23642536080E+03  0.10033121411E+03  0.82087833345E+03  0.86011891160E+03  0.00000000000E+00 0.  1.
<mgrwt>
<rscale>  0 0.19191756E+04</rscale>
<asrwt>0</asrwt>
<pdfrwt beam="1">  1        1 0.16509971E+00 0.19191756E+04</pdfrwt>
<pdfrwt beam="2">  1       -1 0.13200683E+00 0.19191756E+04</pdfrwt>
<totfact> 0.60549650E+00</totfact>
</mgrwt>
</event>
<event>
 6    1  0.1585031E-006  0.1364582E+04  0.7818608E-02  0.8979862E-01
         -2   -1    0    0    0  501 -0.00000000000E+00  0.00000000000E+00  0.11333449874E+04  0.11333449874E+04  0.00000000000E+00 0. -1.
          2   -1    0    0  501    0  0.00000000000E+00 -0.00000000000E+00 -0.41074972450E+03  0.41074972450E+03  0.00000000000E+00 0.  1.
         23    2    1    2    0    0 -0.20042398883E+03  0.49107420873E+03 -0.11719524897E+03  0.55083152542E+03  0.91416569765E+02 0.  0.
         11    1    3    3    0    0 -0.12292186350E+03  0.38476509520E+03 -0.11202158959E+03  0.41916917772E+03  0.00000000000E+00 0. -1.
        -11    1    3    3    0    0 -0.77502125329E+02  0.10630911353E+03 -0.51736593833E+01  0.13166234770E+03  0.00000000000E+00 0.  1.
         22    1    1    2    0    0  0.20042398883E+03 -0.49107420873E+03  0.83979051188E+03  0.99326318648E+03  0.00000000000E+00 0. -1.
<mgrwt>
<rscale>  0 0.13645822E+04</rscale>
<asrwt>0</asrwt>
<pdfrwt beam="1">  1        2 0.63192266E-01 0.13645822E+04</pdfrwt>
<pdfrwt beam="2">  1       -2 0.17436077E+00 0.13645822E+04</pdfrwt>
<totfact> 0.14930700E+01</totfact>
</mgrwt>
</event>
<event>
 6    1  0.1585031E-006  0.1770961E+04  0.7818608E-02  0.8721896E-01
          2   -1    0    0  501    0  0.00000000000E+00  0.00000000000E+00  0.23942064479E+04  0.23942064479E+04  0.00000000000E+00 0. -1.
         -2   -1    0    0    0  501 -0.00000000000E+00 -0.00000000000E+00 -0.32748866752E+03  0.32748866752E+03  0.00000000000E+00 0.  1.
         23    2    1    2    0    0 -0.37701968984E+02 -0.78124936557E+03  0.16662519657E+04  0.18429773687E+04  0.91640376602E+02 0.  0.
         13    1    3    3    0    0 -0.65169203502E+02 -0.44412166091E+03  0.92153497168E+03  0.10250452570E+04  0.00000000000E+00 0. -1.
        -13    1    3    3    0    0  0.27467234517E+02 -0.33712770466E+03  0.74471699404E+03  0.81793211176E+03  0.00000000000E+00 0.  1.
         22    1    1    2    0    0  0.37701968984E+02  0.78124936557E+03  0.40046581465E+03  0.87871774671E+03  0.00000000000E+00 0.  1.
<mgrwt>
<rscale>  0 0.17709607E+04</rscale>
<asrwt>0</asrwt>
<pdfrwt beam="1">  1        2 0.36833944E+00 0.17709607E+04</pdfrwt>
<pdfrwt beam="2">  1       -2 0.50382873E-01 0.17709607E+04</pdfrwt>
<totfact> 0.14135748E+01</totfact>
</mgrwt>
</event>
<event>
 6    1  0.1585031E-006  0.5767464E+03  0.7818608E-02  0.9954860E-01
         -1   -1    0    0    0  501 -0.00000000000E+00  0.00000000000E+00  0.38906494678E+02  0.38906494678E+02  0.00000000000E+00 0.  1.
          1   -1    0    0  501    0  0.00000000000E+00 -0.00000000000E+00 -0.21374089143E+04  0.21374089143E+04  0.00000000000E+00 0. -1.
         23    2    1    2    0    0  0.15256585926E+03  0.23625737761E+03 -0.10540297773E+04  0.10946421725E+04  0.90381549928E+02 0.  0.
         13    1    3    3    0    0  0.11713425936E+03  0.17618201650E+03 -0.62145142113E+03  0.65647727034E+03  0.00000000000E+00 0.  1.
        -13    1    3    3    0    0  0.35431599900E+02  0.60075361109E+02 -0.43257835618E+03  0.43816490220E+03  0.00000000000E+00 0. -1.
         22    1    1    2    0    0 -0.15256585926E+03 -0.23625737761E+03 -0.10444726423E+04  0.10816732364E+04  0.00000000000E+00 0. -1.
<mgrwt>
<rscale>  0 0.57674635E+03</rscale>
<asrwt>0</asrwt>
<pdfrwt beam="1">  1        1 0.32883225E+00 0.57674635E+03</pdfrwt>
<pdfrwt beam="2">  1       -1 0.59856127E-02 0.57674635E+03</pdfrwt>
<totfact> 0.35442069E+02</totfact>
</mgrwt>
</event>
<event>
 6    1  0.1585031E-006  0.6459506E+04  0.7818608E-02  0.7635900E-01
         -1   -1    0    0    0  501 -0.00000000000E+00  0.00000000000E+00  0.35202789550E+04  0.35202789550E+04  0.00000000000E+00 0.  1.
          1   -1    0    0  501    0  0.00000000000E+00 -0.00000000000E+00 -0.29632043749E+04  0.29632043749E+04  0.00000000000E+00 0. -1.
         23    2    1    2    0    0 -0.22810489964E+02  0.82160470279E+03 -0.28557495833E+04  0.29730811626E+04  0.91385508254E+02 0.  0.
         11    1    3    3    0    0 -0.25366701760E+02  0.16006003104E+03 -0.67596241537E+03  0.69511716285E+03  0.00000000000E+00 0. -1.
        -11    1    3    3    0    0  0.25562117960E+01  0.66154467175E+03 -0.21797871679E+04  0.22779639998E+04  0.00000000000E+00 0.  1.
         22    1    1    2    0    0  0.22810489964E+02 -0.82160470279E+03  0.34128241634E+04  0.35104021673E+04  0.00000000000E+00 0.  1.
<mgrwt>
<rscale>  0 0.64595065E+04</rscale>
<asrwt>0</asrwt>
<pdfrwt beam="1">  1        1 0.45587759E+00 0.64595065E+04</pdfrwt>
<pdfrwt beam="2">  1       -1 0.54158138E+00 0.64595065E+04</pdfrwt>
<totfact> 0.34890881E-04</totfact>
</mgrwt>
</event>
<event>
 6    1  0.1585031E-006  0.1732783E+04  0.7818608E-02  0.8742885E-01
          1   -1    0    0  501    0  0.00000000000E+00  0.00000000000E+00  0.40079896371E+03  0.40079896371E+03  0.00000000000E+00 0. -1.
         -1   -1    0    0    0  501 -0.00000000000E+00 -0.00000000000E+00 -0.18728448468E+04  0.18728448468E+04  0.00000000000E+00 0.  1.
         23    2    1    2    0    0 -0.70717110110E+03  0.10877891281E+02 -0.13893952268E+04  0.15615760990E+04  0.88834237999E+02 0.  0.
         11    1    3    3    0    0 -0.41376608211E+03 -0.32320383727E+02 -0.85492763958E+03  0.95034112130E+03  0.00000000000E+00 0.  1.
        -11    1    3    3    0    0 -0.29340501899E+03  0.43198275008E+02 -0.53446758726E+03  0.61123497770E+03  0.00000000000E+00 0. -1.
         22    1    1    2    0    0  0.70717110110E+03 -0.10877891281E+02 -0.82650656201E+02  0.71206771147E+03  0.00000000000E+00 0.  1.
<mgrwt>
<rscale>  0 0.17327830E+04</rscale>
<asrwt>0</asrwt>
<pdfrwt beam="1">  1        1 0.61661380E-01 0.17327830E+04</pdfrwt>
<pdfrwt beam="2">  1       -1 0.28812997E+00 0.17327830E+04</pdfrwt>
<totfact> 0.22411182E+00</totfact>
</mgrwt>
</event>
<event>
 6    1  0.1585031E-006  0.2057779E+04  0.7818608E-02  0.8580074E-01
          2   -1    0    0  501    0  0.00000000000E+00  0.00000000000E+00  0.20282669650E+04  0.20282669650E+04  0.00000000000E+00 0. -1.
         -2   -1    0    0    0  501 -0.00000000000E+00 -0.00000000000E+00 -0.52193005664E+03  0.52193005664E+03  0.00000000000E+00 0.  1.
         23    2    1    2    0    0 -0.82143675278E+03  0.58904749412E+02 -0.55359005000E+01  0.82857351503E+03  0.90968760030E+02 0.  0.
         13    1    3    3    0    0 -0.66501382439E+03  0.29507641530E+02 -0.35508905774E+02  0.66661455875E+03  0.00000000000E+00 0. -1.
        -13    1    3    3    0    0 -0.15642292839E+03  0.29397107882E+02  0.29973005274E+02  0.16195895629E+03  0.00000000000E+00 0.  1.
         22    1    1    2    0    0  0.82143675278E+03 -0.58904749412E+02  0.15118728089E+04  0.17216235066E+04  0.00000000000E+00 0. -1.
<mgrwt>
<rscale>  0 0.20577789E+04</rscale>
<asrwt>0</asrwt>
<pdfrwt beam="1">  1        2 0.31204107E+00 0.20577789E+04</pdfrwt>
<pdfrwt beam="2">  1       -2 0.80296933E-01 0.20577789E+04</pdfrwt>
<totfact> 0.81670149E+00</totfact>
</mgrwt>
</event>
<event>
 6    1  0.1585031E-006  0.1805040E+04  0.7818608E-02  0.8703624E-01
          2   -1    0    0  501    0  0.00000000000E+00  0.00000000000E+00  0.19694556436E+04  0.19694556436E+04  0.00000000000E+00 0. -1.
         -2   -1    0    0    0  501 -0.00000000000E+00 -0.00000000000E+00 -0.41358750203E+03  0.41358750203E+03  0.00000000000E+00 0.  1.
         23    2    1    2    0    0  0.71390707711E+03 -0.50474240444E+03  0.49653212888E+03  0.10094999183E+04  0.90098392993E+02 0.  0.
         11    1    3    3    0    0  0.65952074684E+03 -0.43610719883E+03  0.45884260066E+03  0.91416280638E+03  0.00000000000E+00 0.  1.
        -11    1    3    3    0    0  0.54386330267E+02 -0.68635205610E+02  0.37689528221E+02  0.95337111906E+02  0.00000000000E+00 0. -1.
         22    1    1    2    0    0 -0.71390707711E+03  0.50474240444E+03  0.10593360127E+04  0.13735432273E+04  0.00000000000E+00 0.  1.
<mgrwt>
<rscale>  0 0.18050399E+04</rscale>
<asrwt>0</asrwt>
<pdfrwt beam="1">  1        2 0.30299317E+00 0.18050399E+04</pdfrwt>
<pdfrwt beam="2">  1       -2 0.63628848E-01 0.18050399E+04</pdfrwt>
<totfact> 0.14984155E+01</totfact>
</mgrwt>
</event>
<event>
 6    1  0.1585031E-006  0.2881585E+04  0.7818608E-02  0.8278378E-01
         -2   -1    0    0    0  501 -0.00000000000E+00  0.00000000000E+00  0.74795702491E+03  0.74795702491E+03  0.00000000000E+00 0. -1.
          2   -1    0    0  501    0  0.00000000000E+00 -0.00000000000E+00 -0.27754037748E+04  0.27754037748E+04  0.00000000000E+00 0.  1.
         23    2    1    2    0    0 -0.53410307992E+03  0.56292535732E+03  0.46751851810E+03  0.91050742717E+03  0.91099683134E+02 0.  0.
         11    1    3    3    0    0 -0.82053053907E+02  0.65269616735E+02  0.32673357443E+02  0.10981973780E+03  0.00000000000E+00 0. -1.
        -11    1    3    3    0    0 -0.45205002601E+03  0.49765574059E+03  0.43484516066E+03  0.80068768937E+03  0.00000000000E+00 0.  1.
         22    1    1    2    0    0  0.53410307992E+03 -0.56292535732E+03 -0.24949652680E+04  0.26128533725E+04  0.00000000000E+00 0.  1.
<mgrwt>
<rscale>  0 0.28815848E+04</rscale>
<asrwt>0</asrwt>
<pdfrwt beam="1">  1        2 0.42698519E+00 0.28815848E+04</pdfrwt>
<pdfrwt beam="2">  1       -2 0.11507031E+00 0.28815848E+04</pdfrwt>
<totfact> 0.12173100E+00</totfact>
</mgrwt>
</event>
<event>
 6    1  0.1585031E-006  0.3119258E+04  0.7818608E-02  0.8210472E-01
         -1   -1    0    0    0  501 -0.00000000000E+00  0.00000000000E+00  0.16670693970E+04  0.16670693970E+04  0.00000000000E+00 0.  1.
          1   -1    0    0  501    0  0.00000000000E+00 -0.00000000000E+00 -0.14591131206E+04  0.14591131206E+04  0.00000000000E+00 0. -1.
         23    2    1    2    0    0  0.96646460286E+02 -0.15510021663E+04  0.21910060893E+03  0.15721321793E+04  0.92985236568E+02 0.  0.
         13    1    3    3    0    0  0.74881764070E+01 -0.58706552293E+03  0.11759079602E+03  0.59877340983E+03  0.00000000000E+00 0.  1.
        -13    1    3    3    0    0  0.89158283879E+02 -0.96393664333E+03  0.10150981291E+03  0.97335876944E+03  0.00000000000E+00 0. -1.
         22    1    1    2    0    0 -0.96646460286E+02  0.15510021663E+04 -0.11144332538E+02  0.15540503384E+04  0.00000000000E+00 0. -1.
<mgrwt>
<rscale>  0 0.31192581E+04</rscale>
<asrwt>0</asrwt>
<pdfrwt beam="1">  1        1 0.22447894E+00 0.31192581E+04</pdfrwt>
<pdfrwt beam="2">  1       -1 0.25647221E+00 0.31192581E+04</pdfrwt>
<totfact> 0.37220311E-01</totfact>
</mgrwt>
</event>
<event>
 6    1  0.1585031E-006  0.5229865E+03  0.7818608E-02  0.1007947E+00
          1   -1    0    0  501    0  0.00000000000E+00  0.00000000000E+00  0.37354589344E+03  0.37354589344E+03  0.00000000000E+00 0. -1.
         -1   -1    0    0    0  501 -0.00000000000E+00 -0.00000000000E+00 -0.18305305074E+03  0.18305305074E+03  0.00000000000E+00 0.  1.
         23    2    1    2    0    0  0.92647871104E+02 -0.59839434009E+02  0.33982688276E+03  0.37095131721E+03  0.99790699047E+02 0.  0.
         13    1    3    3    0    0  0.38629991542E+02  0.18824701133E+02  0.50579836785E+02  0.66369914182E+02  0.00000000000E+00 0.  1.
        -13    1    3    3    0    0  0.54017879561E+02 -0.78664135141E+02  0.28924704597E+03  0.30458140303E+03  0.00000000000E+00 0. -1.
         22    1    1    2    0    0 -0.92647871104E+02  0.59839434009E+02 -0.14933404006E+03  0.18564762698E+03  0.00000000000E+00 0.  1.
<mgrwt>
<rscale>  0 0.52298648E+03</rscale>
<asrwt>0</asrwt>
<pdfrwt beam="1">  1        1 0.57468599E-01 0.52298648E+03</pdfrwt>
<pdfrwt beam="2">  1       -1 0.28162008E-01 0.52298648E+03</pdfrwt>
<totfact> 0.75385249E+02</totfact>
</mgrwt>
</event>
<event>
 6    1  0.1585031E-006  0.1755120E+04  0.7818608E-02  0.8730537E-01
         -2   -1    0    0    0  501 -0.00000000000E+00  0.00000000000E+00  0.83595609521E+03  0.83595609521E+03  0.00000000000E+00 0.  1.
          2   -1    0    0  501    0  0.00000000000E+00 -0.00000000000E+00 -0.92123431780E+03  0.92123431780E+03  0.00000000000E+00 0. -1.
         23    2    1    2    0    0  0.42101033313E+03 -0.71185077674E+03 -0.32914437931E+03  0.89495382637E+03  0.92871416279E+02 0.  0.
         13    1    3    3    0    0  0.22178117476E+03 -0.35682224397E+03 -0.21606034464E+03  0.47243102756E+03  0.00000000000E+00 0.  1.
        -13    1    3    3    0    0  0.19922915837E+03 -0.35502853277E+03 -0.11308403467E+03  0.42252279882E+03  0.00000000000E+00 0. -1.
         22    1    1    2    0    0 -0.42101033313E+03  0.71185077674E+03  0.24386615672E+03  0.86223658664E+03  0.00000000000E+00 0. -1.
<mgrwt>
<rscale>  0 0.17551199E+04</rscale>
<asrwt>0</asrwt>
<pdfrwt beam="1">  1        2 0.14172836E+00 0.17551199E+04</pdfrwt>
<pdfrwt beam="2">  1       -2 0.12860863E+00 0.17551199E+04</pdfrwt>
<totfact> 0.11995833E+01</totfact>
</mgrwt>
</event>
<event>
 6    1  0.1585031E-006  0.2388937E+04  0.7818608E-02  0.8443657E-01
         -1   -1    0    0    0  501 -0.00000000000E+00  0.00000000000E+00  0.15361361572E+04  0.15361361572E+04  0.00000000000E+00 0.  1.
          1   -1    0    0  501    0  0.00000000000E+00 -0.00000000000E+00 -0.92879470709E+03  0.92879470709E+03  0.00000000000E+00 0. -1.
         23    2    1    2    0    0 -0.23037094282E+03 -0.97370179149E+03  0.97416309562E+03  0.13992273082E+04  0.87620619789E+02 0.  0.
         11    1    3    3    0    0 -0.16406337661E+03 -0.79587068516E+03  0.82326219871E+03  0.11567573587E+04  0.00000000000E+00 0. -1.
        -11    1    3    3    0    0 -0.66307566216E+02 -0.17783110633E+03  0.15090089690E+03  0.24246994948E+03  0.00000000000E+00 0.  1.
         22    1    1    2    0    0  0.23037094282E+03  0.97370179149E+03 -0.36682164546E+03  0.10657035562E+04  0.00000000000E+00 0. -1.
<mgrwt>
<rscale>  0 0.23889371E+04</rscale>
<asrwt>0</asrwt>
<pdfrwt beam="1">  1        1 0.14289149E+00 0.23889371E+04</pdfrwt>
<pdfrwt beam="2">  1       -1 0.23632864E+00 0.23889371E+04</pdfrwt>
<totfact> 0.13253553E+00</totfact>
</mgrwt>
</event>
<event>
 6    1  0.1585031E-006  0.7867616E+03  0.7818608E-02  0.9579379E-01
         -2   -1    0    0    0  501 -0.00000000000E+00  0.00000000000E+00  0.52636469517E+02  0.52636469517E+02  0.00000000000E+00 0.  1.
          2   -1    0    0  501    0  0.00000000000E+00 -0.00000000000E+00 -0.29399474366E+04  0.29399474366E+04  0.00000000000E+00 0. -1.
         23    2    1    2    0    0 -0.31846860611E+03 -0.10822901271E+03 -0.21994376102E+04  0.22268780047E+04  0.91236366975E+02 0.  0.
         11    1    3    3    0    0 -0.15676624694E+03 -0.73961288180E+01 -0.90979948597E+03  0.92323640719E+03  0.00000000000E+00 0.  1.
        -11    1    3    3    0    0 -0.16170235917E+03 -0.10083288389E+03 -0.12896381242E+04  0.13036415975E+04  0.00000000000E+00 0. -1.
         22    1    1    2    0    0  0.31846860611E+03  0.10822901271E+03 -0.68787335692E+03  0.76570590139E+03  0.00000000000E+00 0.  1.
<mgrwt>
<rscale>  0 0.78676160E+03</rscale>
<asrwt>0</asrwt>
<pdfrwt beam="1">  1        2 0.45229964E+00 0.78676160E+03</pdfrwt>
<pdfrwt beam="2">  1       -2 0.80979178E-02 0.78676160E+03</pdfrwt>
<totfact> 0.19209399E+02</totfact>
</mgrwt>
</event>
<event>
 6    1  0.1585031E-006  0.1176664E+04  0.7818608E-02  0.9133531E-01
         -1   -1    0    0    0  501 -0.00000000000E+00  0.00000000000E+00  0.31554224346E+03  0.31554224346E+03  0.00000000000E+00 0.  1.
          1   -1    0    0  501    0  0.00000000000E+00 -0.00000000000E+00 -0.10969510840E+04  0.10969510840E+04  0.00000000000E+00 0. -1.
         23    2    1    2    0    0  0.10070352635E+03 -0.15151538747E+03  0.27387367559E+03  0.34164352394E+03  0.92819148956E+02 0.  0.
         13    1    3    3    0    0  0.15549278764E+02 -0.10403861317E+03  0.16304742828E+03  0.19403679282E+03  0.00000000000E+00 0.  1.
        -13    1    3    3    0    0  0.85154247583E+02 -0.47476774296E+02  0.11082624731E+03  0.14760673112E+03  0.00000000000E+00 0. -1.
         22    1    1    2    0    0 -0.10070352635E+03  0.15151538747E+03 -0.10552825161E+04  0.10708498035E+04  0.00000000000E+00 0. -1.
<mgrwt>
<rscale>  0 0.11766638E+04</rscale>
<asrwt>0</asrwt>
<pdfrwt beam="1">  1        1 0.16876170E+00 0.11766638E+04</pdfrwt>
<pdfrwt beam="2">  1       -1 0.48544961E-01 0.11766638E+04</pdfrwt>
<totfact> 0.53629218E+01</totfact>
</mgrwt>
</event>
<event>
 6    1  0.1585031E-006  0.1526925E+04  0.7818608E-02  0.8866743E-01
          1   -1    0    0  501    0  0.00000000000E+00  0.00000000000E+00  0.76582777999E+03  0.76582777999E+03  0.00000000000E+00 0. -1.
         -1   -1    0    0    0  501 -0.00000000000E+00 -0.00000000000E+00 -0.76110411550E+03  0.76110411550E+03  0.00000000000E+00 0.  1.
         23    2    1    2    0    0  0.61081681964E+02  0.53878810652E+03  0.53594645892E+03  0.76783950789E+03  0.91188307638E+02 0.  0.
         13    1    3    3    0    0  0.65235609170E+02  0.53428067442E+03  0.51110583650E+03  0.74225379748E+03  0.00000000000E+00 0. -1.
        -13    1    3    3    0    0 -0.41539272054E+01  0.45074321023E+01  0.24840622416E+02  0.25585710414E+02  0.00000000000E+00 0.  1.
         22    1    1    2    0    0 -0.61081681964E+02 -0.53878810652E+03 -0.53122279442E+03  0.75909238760E+03  0.00000000000E+00 0.  1.
<mgrwt>
<rscale>  0 0.15269246E+04</rscale>
<asrwt>0</asrwt>
<pdfrwt beam="1">  1        1 0.11781966E+00 0.15269246E+04</pdfrwt>
<pdfrwt beam="2">  1       -1 0.11709294E+00 0.15269246E+04</pdfrwt>
<totfact> 0.15040503E+01</totfact>
</mgrwt>
</event>
<event>
 6    1  0.1585031E-006  0.4305791E+04  0.7818608E-02  0.7945548E-01
         -2   -1    0    0    0  501 -0.00000000000E+00  0.00000000000E+00  0.14165621090E+04  0.14165621090E+04  0.00000000000E+00 0.  1.
          2   -1    0    0  501    0  0.00000000000E+00 -0.00000000000E+00 -0.32719774743E+04  0.32719774743E+04  0.00000000000E+00 0. -1.
         23    2    1    2    0    0  0.69367337958E+03  0.56912386119E+03 -0.30579574221E+04  0.31881422608E+04  0.89792833551E+02 0.  0.
         13    1    3    3    0    0  0.64683943188E+03  0.51194918235E+03 -0.27273170938E+04  0.28493423357E+04  0.00000000000E+00 0. -1.
        -13    1    3    3    0    0  0.46833947703E+02  0.57174678846E+02 -0.33064032830E+03  0.33879992511E+03  0.00000000000E+00 0.  1.
         22    1    1    2    0    0 -0.69367337958E+03 -0.56912386119E+03  0.12025420568E+04  0.15003973225E+04  0.00000000000E+00 0.  1.
<mgrwt>
<rscale>  0 0.43057911E+04</rscale>
<asrwt>0</asrwt>
<pdfrwt beam="1">  1        2 0.50338115E+00 0.43057911E+04</pdfrwt>
<pdfrwt beam="2">  1       -2 0.21793263E+00 0.43057911E+04</pdfrwt>
<totfact> 0.91057574E-02</totfact>
</mgrwt>
</event>
<event>
 6    1  0.1585031E-006  0.2946373E+04  0.7818608E-02  0.8259212E-01
         -2   -1    0    0    0  501 -0.00000000000E+00  0.00000000000E+00  0.44759784692E+03  0.44759784692E+03  0.00000000000E+00 0.  1.
          2   -1    0    0  501    0  0.00000000000E+00 -0.00000000000E+00 -0.48487238474E+04  0.48487238474E+04  0.00000000000E+00 0. -1.
         23    2    1    2    0    0  0.88428630750E+03  0.48903373417E+03 -0.41261820575E+04  0.42490822572E+04  0.90583609922E+02 0.  0.
         13    1    3    3    0    0  0.17581439364E+03  0.10672761941E+03 -0.69987629200E+03  0.72947125362E+03  0.00000000000E+00 0. -1.
        -13    1    3    3    0    0  0.70847191386E+03  0.38230611475E+03 -0.34263057655E+04  0.35196110036E+04  0.00000000000E+00 0.  1.
         22    1    1    2    0    0 -0.88428630750E+03 -0.48903373417E+03 -0.27494394298E+03  0.10472394371E+04  0.00000000000E+00 0.  1.
<mgrwt>
<rscale>  0 0.29463729E+04</rscale>
<asrwt>0</asrwt>
<pdfrwt beam="1">  1        2 0.74595754E+00 0.29463729E+04</pdfrwt>
<pdfrwt beam="2">  1       -2 0.68861205E-01 0.29463729E+04</pdfrwt>
<totfact> 0.86719380E-02</totfact>
</mgrwt>
</event>
<event>
 6    1  0.1585031E-006  0.3347983E+04  0.7818608E-02  0.8150792E-01
         -2   -1    0    0    0  501 -0.00000000000E+00  0.00000000000E+00  0.92328546098E+03  0.92328546098E+03  0.00000000000E+00 0.  1.
          2   -1    0    0  501    0  0.00000000000E+00 -0.00000000000E+00 -0.30350831584E+04  0.30350831584E+04  0.00000000000E+00 0. -1.
         23    2    1    2    0    0 -0.82251631835E+03  0.10634156302E+04 -0.22335959605E+04  0.26084720629E+04  0.88259228381E+02 0.  0.
         13    1    3    3    0    0 -0.15303413361E+03  0.15705953020E+03 -0.32465178933E+03  0.39177279945E+03  0.00000000000E+00 0. -1.
        -13    1    3    3    0    0 -0.66948218474E+03  0.90635610000E+03 -0.19089441712E+04  0.22166992634E+04  0.00000000000E+00 0.  1.
         22    1    1    2    0    0  0.82251631835E+03 -0.10634156302E+04  0.12179826307E+03  0.13498965565E+04  0.00000000000E+00 0.  1.
<mgrwt>
<rscale>  0 0.33479834E+04</rscale>
<asrwt>0</asrwt>
<pdfrwt beam="1">  1        2 0.46693587E+00 0.33479834E+04</pdfrwt>
<pdfrwt beam="2">  1       -2 0.14204392E+00 0.33479834E+04</pdfrwt>
<totfact> 0.47577006E-01</totfact>
</mgrwt>
</event>
<event>
 6    1  0.1585031E-006  0.4530304E+03  0.7818608E-02  0.1026822E+00
         -4   -1    0    0    0  501 -0.00000000000E+00  0.00000000000E+00  0.82985248338E+03  0.82985248338E+03  0.00000000000E+00 0.  1.
          4   -1    0    0  501    0  0.00000000000E+00 -0.00000000000E+00 -0.61829217856E+02  0.61829217856E+02  0.00000000000E+00 0. -1.
         23    2    1    2    0    0  0.58587529957E+02 -0.19248145095E+03  0.56145648864E+03  0.60332178561E+03  0.91006487309E+02 0.  0.
         11    1    3    3    0    0  0.36732640221E+02 -0.11140704534E+03  0.19668489009E+03  0.22901039845E+03  0.00000000000E+00 0. -1.
        -11    1    3    3    0    0  0.21854889737E+02 -0.81074405610E+02  0.36477159854E+03  0.37431138715E+03  0.00000000000E+00 0.  1.
         22    1    1    2    0    0 -0.58587529957E+02  0.19248145095E+03  0.20656677689E+03  0.28835991563E+03  0.00000000000E+00 0. -1.
<mgrwt>
<rscale>  0 0.45303037E+03</rscale>
<asrwt>0</asrwt>
<pdfrwt beam="1">  1        4 0.95121880E-02 0.45303037E+03</pdfrwt>
<pdfrwt beam="2">  1       -4 0.12766960E+00 0.45303037E+03</pdfrwt>
<totfact> 0.76051495E+01</totfact>
</mgrwt>
</event>
<event>
 6    1  0.1585031E-006  0.1249870E+04  0.7818608E-02  0.9070292E-01
         -2   -1    0    0    0  501 -0.00000000000E+00  0.00000000000E+00  0.21595584934E+03  0.21595584934E+03  0.00000000000E+00 0.  1.
          2   -1    0    0  501    0  0.00000000000E+00 -0.00000000000E+00 -0.18084415298E+04  0.18084415298E+04  0.00000000000E+00 0. -1.
         23    2    1    2    0    0 -0.57208481925E+03 -0.48246802227E+02 -0.41453532322E+03  0.71398681810E+03  0.91262521812E+02 0.  0.
         13    1    3    3    0    0 -0.46497969411E+03 -0.26207185195E+02 -0.29169023223E+03  0.54952354278E+03  0.00000000000E+00 0. -1.
        -13    1    3    3    0    0 -0.10710512514E+03 -0.22039617031E+02 -0.12284509099E+03  0.16446327532E+03  0.00000000000E+00 0.  1.
         22    1    1    2    0    0  0.57208481925E+03  0.48246802227E+02 -0.11779503572E+04  0.13104105610E+04  0.00000000000E+00 0. -1.
<mgrwt>
<rscale>  0 0.12498696E+04</rscale>
<asrwt>0</asrwt>
<pdfrwt beam="1">  1        2 0.27822176E+00 0.12498696E+04</pdfrwt>
<pdfrwt beam="2">  1       -2 0.33223978E-01 0.12498696E+04</pdfrwt>
<totfact> 0.71044294E+01</totfact>
</mgrwt>
</event>
<event>
 6    1  0.1585031E-006  0.7151594E+03  0.7818608E-02  0.9691653E-01
          2   -1    0    0  501    0  0.00000000000E+00  0.00000000000E+00  0.23644509541E+04  0.23644509541E+04  0.00000000000E+00 0. -1.
         -2   -1    0    0    0  501 -0.00000000000E+00 -0.00000000000E+00 -0.54077353979E+02  0.54077353979E+02  0.00000000000E+00 0.  1.
         23    2    1    2    0    0  0.13201493994E+03 -0.10727013036E+03  0.22152056227E+04  0.22236135340E+04  0.91577139462E+02 0.  0.
         13    1    3    3    0    0  0.77929954881E+02 -0.72409283773E+02  0.81269066487E+03  0.81962326652E+03  0.00000000000E+00 0. -1.
        -13    1    3    3    0    0  0.54084985057E+02 -0.34860846591E+02  0.14025149579E+04  0.14039902675E+04  0.00000000000E+00 0.  1.
         22    1    1    2    0    0 -0.13201493994E+03  0.10727013036E+03  0.95167977440E+02  0.19491477411E+03  0.00000000000E+00 0.  1.
<mgrwt>
<rscale>  0 0.71515943E+03</rscale>
<asrwt>0</asrwt>
<pdfrwt beam="1">  1        2 0.36376160E+00 0.71515943E+03</pdfrwt>
<pdfrwt beam="2">  1       -2 0.83195948E-02 0.71515943E+03</pdfrwt>
<totfact> 0.39915368E+02</totfact>
</mgrwt>
</event>
<event>
 6    1  0.1585031E-006  0.4241940E+04  0.7818608E-02  0.7957442E-01
          2   -1    0    0  501    0  0.00000000000E+00  0.00000000000E+00  0.22119974997E+04  0.22119974997E+04  0.00000000000E+00 0. -1.
         -2   -1    0    0    0  501 -0.00000000000E+00 -0.00000000000E+00 -0.20336886905E+04  0.20336886905E+04  0.00000000000E+00 0.  1.
         23    2    1    2    0    0 -0.86057213679E+03 -0.13439563299E+04  0.14857018800E+04  0.21826593699E+04  0.99442592863E+02 0.  0.
         13    1    3    3    0    0 -0.78650619960E+02 -0.10418126440E+03  0.15827022489E+03  0.20515633054E+03  0.00000000000E+00 0.  1.
        -13    1    3    3    0    0 -0.78192151683E+03 -0.12397750655E+04  0.13274316551E+04  0.19775030393E+04  0.00000000000E+00 0. -1.
         22    1    1    2    0    0  0.86057213679E+03  0.13439563299E+04 -0.13073930709E+04  0.20630268203E+04  0.00000000000E+00 0.  1.
<mgrwt>
<rscale>  0 0.42419403E+04</rscale>
<asrwt>0</asrwt>
<pdfrwt beam="1">  1        2 0.34030731E+00 0.42419403E+04</pdfrwt>
<pdfrwt beam="2">  1       -2 0.31287518E+00 0.42419403E+04</pdfrwt>
<totfact> 0.10420801E-01</totfact>
</mgrwt>
</event>
<event>
 6    1  0.1585031E-006  0.1682658E+04  0.7818608E-02  0.8771317E-01
          2   -1    0    0  501    0  0.00000000000E+00  0.00000000000E+00  0.13165462631E+04  0.13165462631E+04  0.00000000000E+00 0. -1.
         -2   -1    0    0    0  501 -0.00000000000E+00 -0.00000000000E+00 -0.53764502684E+03  0.53764502684E+03  0.00000000000E+00 0.  1.
         23    2    1    2    0    0  0.44432912453E+03  0.71143727041E+03  0.37267982231E+03  0.92221103384E+03  0.89507431819E+02 0.  0.
         13    1    3    3    0    0  0.27873557024E+03  0.43347192192E+03  0.27553809830E+03  0.58439085278E+03  0.00000000000E+00 0.  1.
        -13    1    3    3    0    0  0.16559355430E+03  0.27796534849E+03  0.97141724017E+02  0.33782018106E+03  0.00000000000E+00 0. -1.
         22    1    1    2    0    0 -0.44432912453E+03 -0.71143727041E+03  0.40622141398E+03  0.93198025612E+03  0.00000000000E+00 0. -1.
<mgrwt>
<rscale>  0 0.16826581E+04</rscale>
<asrwt>0</asrwt>
<pdfrwt beam="1">  1        2 0.20254558E+00 0.16826581E+04</pdfrwt>
<pdfrwt beam="2">  1       -2 0.82714620E-01 0.16826581E+04</pdfrwt>
<totfact> 0.19750480E+01</totfact>
</mgrwt>
</event>
<event>
 6    1  0.1585031E-006  0.6664913E+03  0.7818608E-02  0.9776317E-01
          3   -1    0    0  501    0  0.00000000000E+00  0.00000000000E+00  0.63713377209E+03  0.63713377209E+03  0.00000000000E+00 0. -1.
         -3   -1    0    0    0  501 -0.00000000000E+00 -0.00000000000E+00 -0.17430040966E+03  0.17430040966E+03  0.00000000000E+00 0.  1.
         23    2    1    2    0    0  0.30360218177E+03  0.25090394874E+01  0.87900803216E+02  0.32898728933E+03  0.91244206826E+02 0.  0.
         13    1    3    3    0    0  0.19550553638E+03 -0.39728661387E+02  0.40200733690E+02  0.20351137629E+03  0.00000000000E+00 0. -1.
        -13    1    3    3    0    0  0.10809664539E+03  0.42237700875E+02  0.47700069526E+02  0.12547591304E+03  0.00000000000E+00 0.  1.
         22    1    1    2    0    0 -0.30360218177E+03 -0.25090394874E+01  0.37493255921E+03  0.48244689243E+03  0.00000000000E+00 0. -1.
<mgrwt>
<rscale>  0 0.66649134E+03</rscale>
<asrwt>0</asrwt>
<pdfrwt beam="1">  1        3 0.98020579E-01 0.66649134E+03</pdfrwt>
<pdfrwt beam="2">  1       -3 0.26815448E-01 0.66649134E+03</pdfrwt>
<totfact> 0.32370166E+01</totfact>
</mgrwt>
</event>
<event>
 6    1  0.1585031E-006  0.1024227E+04  0.7818608E-02  0.9282365E-01
         -2   -1    0    0    0  501 -0.00000000000E+00  0.00000000000E+00  0.15180283583E+03  0.15180283583E+03  0.00000000000E+00 0. -1.
          2   -1    0    0  501    0  0.00000000000E+00 -0.00000000000E+00 -0.17276382278E+04  0.17276382278E+04  0.00000000000E+00 0.  1.
         23    2    1    2    0    0  0.23746227653E+03 -0.35085861734E+03 -0.27868866719E+03  0.51486064176E+03  0.89016880889E+02 0.  0.
         13    1    3    3    0    0  0.17987955446E+03 -0.18830836213E+03 -0.17144835119E+03  0.31178715574E+03  0.00000000000E+00 0.  1.
        -13    1    3    3    0    0  0.57582722072E+02 -0.16255025521E+03 -0.10724031600E+03  0.20307348603E+03  0.00000000000E+00 0. -1.
         22    1    1    2    0    0 -0.23746227653E+03  0.35085861734E+03 -0.12971467247E+04  0.13645804218E+04  0.00000000000E+00 0.  1.
<mgrwt>
<rscale>  0 0.10242273E+04</rscale>
<asrwt>0</asrwt>
<pdfrwt beam="1">  1        2 0.26579049E+00 0.10242273E+04</pdfrwt>
<pdfrwt beam="2">  1       -2 0.23354283E-01 0.10242273E+04</pdfrwt>
<totfact> 0.15320487E+02</totfact>
</mgrwt>
</event>
<event>
 6    1  0.1585031E-006  0.2642581E+04  0.7818608E-02  0.8353880E-01
         -2   -1    0    0    0  501 -0.00000000000E+00  0.00000000000E+00  0.10388017240E+04  0.10388017240E+04  0.00000000000E+00 0. -1.
          2   -1    0    0  501    0  0.00000000000E+00 -0.00000000000E+00 -0.16805986719E+04  0.16805986719E+04  0.00000000000E+00 0.  1.
         23    2    1    2    0    0  0.68853889965E+03 -0.48392779322E+03 -0.13674025116E+04  0.16081959324E+04  0.90733692743E+02 0.  0.
         13    1    3    3    0    0  0.41537998887E+03 -0.23797340356E+03 -0.78965041892E+03  0.92342821055E+03  0.00000000000E+00 0.  1.
        -13    1    3    3    0    0  0.27315891078E+03 -0.24595438966E+03 -0.57775209269E+03  0.68476772188E+03  0.00000000000E+00 0. -1.
         22    1    1    2    0    0 -0.68853889965E+03  0.48392779322E+03  0.72560556376E+03  0.11112044634E+04  0.00000000000E+00 0. -1.
<mgrwt>
<rscale>  0 0.26425812E+04</rscale>
<asrwt>0</asrwt>
<pdfrwt beam="1">  1        2 0.25855364E+00 0.26425812E+04</pdfrwt>
<pdfrwt beam="2">  1       -2 0.15981565E+00 0.26425812E+04</pdfrwt>
<totfact> 0.22396956E+00</totfact>
</mgrwt>
</event>
<event>
 6    1  0.1585031E-006  0.9636864E+03  0.7818608E-02  0.9349295E-01
         -2   -1    0    0    0  501 -0.00000000000E+00  0.00000000000E+00  0.94954530415E+03  0.94954530415E+03  0.00000000000E+00 0.  1.
          2   -1    0    0  501    0  0.00000000000E+00 -0.00000000000E+00 -0.24450954642E+03  0.24450954642E+03  0.00000000000E+00 0. -1.
         23    2    1    2    0    0  0.34753690530E+03  0.16560434784E+03  0.70589187048E+03  0.80907766488E+03  0.90092366140E+02 0.  0.
         11    1    3    3    0    0  0.23789945193E+03  0.11708833356E+03  0.56468205263E+03  0.62383623464E+03  0.00000000000E+00 0.  1.
        -11    1    3    3    0    0  0.10963745336E+03  0.48516014279E+02  0.14120981784E+03  0.18524143024E+03  0.00000000000E+00 0. -1.
         22    1    1    2    0    0 -0.34753690530E+03 -0.16560434784E+03 -0.85611274610E+00  0.38497718568E+03  0.00000000000E+00 0. -1.
<mgrwt>
<rscale>  0 0.96368645E+03</rscale>
<asrwt>0</asrwt>
<pdfrwt beam="1">  1        2 0.37616854E-01 0.96368645E+03</pdfrwt>
<pdfrwt beam="2">  1       -2 0.14608389E+00 0.96368645E+03</pdfrwt>
<totfact> 0.44309721E+01</totfact>
</mgrwt>
</event>
<event>
 6    1  0.1585031E-006  0.1505821E+04  0.7818608E-02  0.8880591E-01
          2   -1    0    0  501    0  0.00000000000E+00  0.00000000000E+00  0.17024349488E+04  0.17024349488E+04  0.00000000000E+00 0. -1.
         -2   -1    0    0    0  501 -0.00000000000E+00 -0.00000000000E+00 -0.33297831842E+03  0.33297831842E+03  0.00000000000E+00 0.  1.
         23    2    1    2    0    0 -0.10715085624E+03 -0.51873129891E+03 -0.30423851308E+02  0.53867386791E+03  0.93168979709E+02 0.  0.
         11    1    3    3    0    0 -0.86621042930E+02 -0.42975665567E+03  0.10696346292E+02  0.43852981654E+03  0.00000000000E+00 0. -1.
        -11    1    3    3    0    0 -0.20529813307E+02 -0.88974643239E+02 -0.41120197601E+02  0.10014405137E+03  0.00000000000E+00 0.  1.
         22    1    1    2    0    0  0.10715085624E+03  0.51873129891E+03  0.13998804816E+04  0.14967393993E+04  0.00000000000E+00 0. -1.
<mgrwt>
<rscale>  0 0.15058206E+04</rscale>
<asrwt>0</asrwt>
<pdfrwt beam="1">  1        2 0.26191306E+00 0.15058206E+04</pdfrwt>
<pdfrwt beam="2">  1       -2 0.51227435E-01 0.15058206E+04</pdfrwt>
<totfact> 0.33994356E+01</totfact>
</mgrwt>
</event>
<event>
 6    1  0.1585031E-006  0.2164380E+04  0.7818608E-02  0.8533402E-01
          1   -1    0    0  501    0  0.00000000000E+00  0.00000000000E+00  0.89616295675E+03  0.89616295675E+03  0.00000000000E+00 0.  1.
         -1   -1    0    0    0  501 -0.00000000000E+00 -0.00000000000E+00 -0.13068325875E+04  0.13068325875E+04  0.00000000000E+00 0. -1.
         23    2    1    2    0    0 -0.95539783068E+03 -0.33499478177E+03 -0.59006052506E+03  0.11747992538E+04  0.83518530332E+02 0.  0.
         13    1    3    3    0    0 -0.50918009843E+03 -0.21813355565E+03 -0.30082547449E+03  0.63035116152E+03  0.00000000000E+00 0.  1.
        -13    1    3    3    0    0 -0.44621773225E+03 -0.11686122612E+03 -0.28923505057E+03  0.54444809232E+03  0.00000000000E+00 0. -1.
         22    1    1    2    0    0  0.95539783068E+03  0.33499478177E+03  0.17939089430E+03  0.10281962904E+04  0.00000000000E+00 0.  1.
<mgrwt>
<rscale>  0 0.21643798E+04</rscale>
<asrwt>0</asrwt>
<pdfrwt beam="1">  1        1 0.13787122E+00 0.21643798E+04</pdfrwt>
<pdfrwt beam="2">  1       -1 0.20105117E+00 0.21643798E+04</pdfrwt>
<totfact> 0.24809884E+00</totfact>
</mgrwt>
</event>
<event>
 6    1  0.1585031E-006  0.1772445E+04  0.7818608E-02  0.8721092E-01
         -1   -1    0    0    0  501 -0.00000000000E+00  0.00000000000E+00  0.13472031004E+04  0.13472031004E+04  0.00000000000E+00 0.  1.
          1   -1    0    0  501    0  0.00000000000E+00 -0.00000000000E+00 -0.58297823808E+03  0.58297823808E+03  0.00000000000E+00 0. -1.
         23    2    1    2    0    0 -0.73767730591E+03  0.35381859625E+03  0.74808631033E+03  0.11118807461E+04  0.85383013975E+02 0.  0.
         13    1    3    3    0    0 -0.27114944092E+03  0.16870155414E+03  0.32191908202E+03  0.45344694183E+03  0.00000000000E+00 0.  1.
        -13    1    3    3    0    0 -0.46652786499E+03  0.18511704211E+03  0.42616722830E+03  0.65843380424E+03  0.00000000000E+00 0. -1.
         22    1    1    2    0    0  0.73767730591E+03 -0.35381859625E+03  0.16138552025E+02  0.81830059243E+03  0.00000000000E+00 0. -1.
<mgrwt>
<rscale>  0 0.17724447E+04</rscale>
<asrwt>0</asrwt>
<pdfrwt beam="1">  1        1 0.89688960E-01 0.17724447E+04</pdfrwt>
<pdfrwt beam="2">  1       -1 0.20726202E+00 0.17724447E+04</pdfrwt>
<totfact> 0.45303505E+00</totfact>
</mgrwt>
</event>
<event>
 6    1  0.1585031E-006  0.1416961E+04  0.7818608E-02  0.8941632E-01
         -2   -1    0    0    0  501 -0.00000000000E+00  0.00000000000E+00  0.11578216625E+04  0.11578216625E+04  0.00000000000E+00 0.  1.
          2   -1    0    0  501    0  0.00000000000E+00 -0.00000000000E+00 -0.43352516040E+03  0.43352516040E+03  0.00000000000E+00 0. -1.
         23    2    1    2    0    0 -0.56006292516E+03  0.17834998591E+03  0.80196440870E+03  0.99846276908E+03  0.91114163602E+02 0.  0.
         13    1    3    3    0    0 -0.37882109266E+03  0.10248770611E+03  0.59788090726E+03  0.71517181811E+03  0.00000000000E+00 0. -1.
        -13    1    3    3    0    0 -0.18124183250E+03  0.75862279798E+02  0.20408350144E+03  0.28329095097E+03  0.00000000000E+00 0.  1.
         22    1    1    2    0    0  0.56006292516E+03 -0.17834998591E+03 -0.77667906552E+02  0.59288405386E+03  0.00000000000E+00 0. -1.
<mgrwt>
<rscale>  0 0.14169613E+04</rscale>
<asrwt>0</asrwt>
<pdfrwt beam="1">  1        2 0.66696179E-01 0.14169613E+04</pdfrwt>
<pdfrwt beam="2">  1       -2 0.17812641E+00 0.14169613E+04</pdfrwt>
<totfact> 0.13166482E+01</totfact>
</mgrwt>
</event>
<event>
 6    1  0.1585031E-006  0.3366261E+04  0.7818608E-02  0.8146237E-01
         -2   -1    0    0    0  501 -0.00000000000E+00  0.00000000000E+00  0.11599311973E+04  0.11599311973E+04  0.00000000000E+00 0.  1.
          2   -1    0    0  501    0  0.00000000000E+00 -0.00000000000E+00 -0.24423238823E+04  0.24423238823E+04  0.00000000000E+00 0. -1.
         23    2    1    2    0    0 -0.13636732739E+04  0.86126349463E+03 -0.11521971621E+04  0.19841294729E+04  0.88497795024E+02 0.  0.
         13    1    3    3    0    0 -0.12360872521E+04  0.76648992635E+03 -0.10086889136E+04  0.17699920413E+04  0.00000000000E+00 0.  1.
        -13    1    3    3    0    0 -0.12758602178E+03  0.94773568274E+02 -0.14350824849E+03  0.21413743153E+03  0.00000000000E+00 0. -1.
         22    1    1    2    0    0  0.13636732739E+04 -0.86126349463E+03 -0.13019552286E+03  0.16181256068E+04  0.00000000000E+00 0.  1.
<mgrwt>
<rscale>  0 0.33662606E+04</rscale>
<asrwt>0</asrwt>
<pdfrwt beam="1">  1        2 0.37574214E+00 0.33662606E+04</pdfrwt>
<pdfrwt beam="2">  1       -2 0.17845095E+00 0.33662606E+04</pdfrwt>
<totfact> 0.58032396E-01</totfact>
</mgrwt>
</event>
<event>
 6    1  0.1585031E-006  0.2721855E+04  0.7818608E-02  0.8327949E-01
          1   -1    0    0  501    0  0.00000000000E+00  0.00000000000E+00  0.28656438979E+04  0.28656438979E+04  0.00000000000E+00 0. -1.
         -1   -1    0    0    0  501 -0.00000000000E+00 -0.00000000000E+00 -0.64632007982E+03  0.64632007982E+03  0.00000000000E+00 0.  1.
         23    2    1    2    0    0 -0.53684482079E+03 -0.98927402898E+03  0.20952830133E+04  0.23795984946E+04  0.73570536593E+02 0.  0.
         11    1    3    3    0    0 -0.26363304987E+03 -0.55600279751E+03  0.11747464944E+04  0.13261488687E+04  0.00000000000E+00 0. -1.
        -11    1    3    3    0    0 -0.27321177093E+03 -0.43327123147E+03  0.92053651888E+03  0.10534496259E+04  0.00000000000E+00 0.  1.
         22    1    1    2    0    0  0.53684482079E+03  0.98927402898E+03  0.12404080480E+03  0.11323654831E+04  0.00000000000E+00 0.  1.
<mgrwt>
<rscale>  0 0.27218547E+04</rscale>
<asrwt>0</asrwt>
<pdfrwt beam="1">  1        1 0.44086829E+00 0.27218547E+04</pdfrwt>
<pdfrwt beam="2">  1       -1 0.99433860E-01 0.27218547E+04</pdfrwt>
<totfact> 0.62905569E-01</totfact>
</mgrwt>
</event>
<event>
 6    1  0.1585031E-006  0.2903005E+04  0.7818608E-02  0.8271984E-01
          2   -1    0    0  501    0  0.00000000000E+00  0.00000000000E+00  0.30903681852E+04  0.30903681852E+04  0.00000000000E+00 0. -1.
         -2   -1    0    0    0  501 -0.00000000000E+00 -0.00000000000E+00 -0.68175028846E+03  0.68175028846E+03  0.00000000000E+00 0.  1.
         23    2    1    2    0    0  0.86281284609E+03 -0.80482216580E+03  0.11008705938E+03  0.11884333659E+04  0.89833059206E+02 0.  0.
         13    1    3    3    0    0  0.31571631895E+03 -0.29127218490E+03  0.83519933119E+02  0.43759782790E+03  0.00000000000E+00 0. -1.
        -13    1    3    3    0    0  0.54709652713E+03 -0.51354998089E+03  0.26567126262E+02  0.75083553797E+03  0.00000000000E+00 0.  1.
         22    1    1    2    0    0 -0.86281284609E+03  0.80482216580E+03  0.22985308374E+04  0.25836851078E+04  0.00000000000E+00 0. -1.
<mgrwt>
<rscale>  0 0.29030049E+04</rscale>
<asrwt>0</asrwt>
<pdfrwt beam="1">  1        2 0.47544125E+00 0.29030049E+04</pdfrwt>
<pdfrwt beam="2">  1       -2 0.10488466E+00 0.29030049E+04</pdfrwt>
<totfact> 0.97012626E-01</totfact>
</mgrwt>
</event>
<event>
 6    1  0.1585031E-006  0.1179487E+04  0.7818608E-02  0.9131003E-01
          2   -1    0    0  501    0  0.00000000000E+00  0.00000000000E+00  0.16920505906E+04  0.16920505906E+04  0.00000000000E+00 0. -1.
         -2   -1    0    0    0  501 -0.00000000000E+00 -0.00000000000E+00 -0.20554789703E+03  0.20554789703E+03  0.00000000000E+00 0.  1.
         23    2    1    2    0    0  0.34660655274E+03  0.14913151607E+03  0.29181029344E+02  0.39222054688E+03  0.10300055063E+03 0.  0.
         11    1    3    3    0    0  0.28707392668E+03  0.10679264835E+03  0.61384443006E+02  0.31238463305E+03  0.00000000000E+00 0. -1.
        -11    1    3    3    0    0  0.59532626060E+02  0.42338867715E+02 -0.32203413662E+02  0.79835913826E+02  0.00000000000E+00 0.  1.
         22    1    1    2    0    0 -0.34660655274E+03 -0.14913151607E+03  0.14573216642E+04  0.15053779407E+04  0.00000000000E+00 0. -1.
<mgrwt>
<rscale>  0 0.11794871E+04</rscale>
<asrwt>0</asrwt>
<pdfrwt beam="1">  1        2 0.26031547E+00 0.11794871E+04</pdfrwt>
<pdfrwt beam="2">  1       -2 0.31622754E-01 0.11794871E+04</pdfrwt>
<totfact> 0.90918618E+01</totfact>
</mgrwt>
</event>
<event>
 6    1  0.1585031E-006  0.1871373E+04  0.7818608E-02  0.8669239E-01
          2   -1    0    0  501    0  0.00000000000E+00  0.00000000000E+00  0.14091545598E+04  0.14091545598E+04  0.00000000000E+00 0. -1.
         -2   -1    0    0    0  501 -0.00000000000E+00 -0.00000000000E+00 -0.62130079529E+03  0.62130079529E+03  0.00000000000E+00 0.  1.
         23    2    1    2    0    0 -0.53811557402E+03 -0.57168193092E+03 -0.15272846156E+03  0.80526821628E+03  0.93500353174E+02 0.  0.
         11    1    3    3    0    0 -0.27939134864E+03 -0.26464574505E+03 -0.32789935687E+02  0.38622801031E+03  0.00000000000E+00 0.  1.
        -11    1    3    3    0    0 -0.25872422538E+03 -0.30703618587E+03 -0.11993852587E+03  0.41904020597E+03  0.00000000000E+00 0. -1.
         22    1    1    2    0    0  0.53811557402E+03  0.57168193092E+03  0.94058222610E+03  0.12251871388E+04  0.00000000000E+00 0. -1.
<mgrwt>
<rscale>  0 0.18713726E+04</rscale>
<asrwt>0</asrwt>
<pdfrwt beam="1">  1        2 0.21679301E+00 0.18713726E+04</pdfrwt>
<pdfrwt beam="2">  1       -2 0.95584738E-01 0.18713726E+04</pdfrwt>
<totfact> 0.12331209E+01</totfact>
</mgrwt>
</event>
<event>
 6    1  0.1585031E-006  0.1081383E+04  0.7818608E-02  0.9223529E-01
         -1   -1    0    0    0  501 -0.00000000000E+00  0.00000000000E+00  0.78756595384E+03  0.78756595384E+03  0.00000000000E+00 0.  1.
          1   -1    0    0  501    0  0.00000000000E+00 -0.00000000000E+00 -0.37120389762E+03  0.37120389762E+03  0.00000000000E+00 0. -1.
         23    2    1    2    0    0 -0.16827859726E+03 -0.47519355645E+03  0.40764478079E+03  0.65458477307E+03  0.90445317343E+02 0.  0.
         11    1    3    3    0    0 -0.12297996325E+03 -0.22869016949E+03  0.23532795791E+03  0.35043189461E+03  0.00000000000E+00 0. -1.
        -11    1    3    3    0    0 -0.45298634014E+02 -0.24650338696E+03  0.17231682289E+03  0.30415287846E+03  0.00000000000E+00 0.  1.
         22    1    1    2    0    0  0.16827859726E+03  0.47519355645E+03  0.87172754230E+01  0.50418507840E+03  0.00000000000E+00 0. -1.
<mgrwt>
<rscale>  0 0.10813835E+04</rscale>
<asrwt>0</asrwt>
<pdfrwt beam="1">  1        1 0.57108292E-01 0.10813835E+04</pdfrwt>
<pdfrwt beam="2">  1       -1 0.12116399E+00 0.10813835E+04</pdfrwt>
<totfact> 0.39981016E+01</totfact>
</mgrwt>
</event>
<event>
 6    1  0.1585031E-006  0.2844083E+04  0.7818608E-02  0.8289712E-01
          1   -1    0    0  501    0  0.00000000000E+00  0.00000000000E+00  0.35288169961E+04  0.35288169961E+04  0.00000000000E+00 0. -1.
         -1   -1    0    0    0  501 -0.00000000000E+00 -0.00000000000E+00 -0.57305385175E+03  0.57305385175E+03  0.00000000000E+00 0.  1.
         23    2    1    2    0    0 -0.38071921659E+03 -0.88025071462E+02  0.34491602176E+04  0.34724773247E+04  0.93257860449E+02 0.  0.
         11    1    3    3    0    0 -0.14520177542E+03 -0.45502195542E+02  0.17403201651E+04  0.17469597255E+04  0.00000000000E+00 0.  1.
        -11    1    3    3    0    0 -0.23551744117E+03 -0.42522875920E+02  0.17088400525E+04  0.17255175992E+04  0.00000000000E+00 0. -1.
         22    1    1    2    0    0  0.38071921659E+03  0.88025071462E+02 -0.49339707328E+03  0.62939352317E+03  0.00000000000E+00 0.  1.
<mgrwt>
<rscale>  0 0.28440831E+04</rscale>
<asrwt>0</asrwt>
<pdfrwt beam="1">  1        1 0.54289491E+00 0.28440831E+04</pdfrwt>
<pdfrwt beam="2">  1       -1 0.88162133E-01 0.28440831E+04</pdfrwt>
<totfact> 0.25840662E-01</totfact>
</mgrwt>
</event>
<event>
 6    1  0.1585031E-006  0.2278533E+04  0.7818608E-02  0.8486434E-01
          1   -1    0    0  501    0  0.00000000000E+00  0.00000000000E+00  0.27470228491E+04  0.27470228491E+04  0.00000000000E+00 0. -1.
         -1   -1    0    0    0  501 -0.00000000000E+00 -0.00000000000E+00 -0.47248550563E+03  0.47248550563E+03  0.00000000000E+00 0.  1.
         23    2    1    2    0    0  0.60080822964E+03  0.30666191966E+03 -0.15486434321E+03  0.69819825540E+03  0.92118278673E+02 0.  0.
         13    1    3    3    0    0  0.27751376052E+02  0.62009629372E+01 -0.25817249508E+02  0.38407306417E+02  0.00000000000E+00 0. -1.
        -13    1    3    3    0    0  0.57305685359E+03  0.30046095672E+03 -0.12904709370E+03  0.65979094898E+03  0.00000000000E+00 0.  1.
         22    1    1    2    0    0 -0.60080822964E+03 -0.30666191966E+03  0.24294016867E+04  0.25213100993E+04  0.00000000000E+00 0. -1.
<mgrwt>
<rscale>  0 0.22785333E+04</rscale>
<asrwt>0</asrwt>
<pdfrwt beam="1">  1        1 0.42261889E+00 0.22785333E+04</pdfrwt>
<pdfrwt beam="2">  1       -1 0.72690079E-01 0.22785333E+04</pdfrwt>
<totfact> 0.15711898E+00</totfact>
</mgrwt>
</event>
<event>
 6    1  0.1585031E-006  0.2413988E+04  0.7818608E-02  0.8434285E-01
         -2   -1    0    0    0  501 -0.00000000000E+00  0.00000000000E+00  0.47103451406E+03  0.47103451406E+03  0.00000000000E+00 0.  1.
          2   -1    0    0  501    0  0.00000000000E+00 -0.00000000000E+00 -0.30928409229E+04  0.30928409229E+04  0.00000000000E+00 0. -1.
         23    2    1    2    0    0 -0.30618909658E+03  0.57146486703E+03  0.18723231366E+03  0.68099104774E+03  0.91482297279E+02 0.  0.
         11    1    3    3    0    0 -0.14168088380E+03  0.19132547577E+03  0.96952997684E+02  0.25705795898E+03  0.00000000000E+00 0.  1.
        -11    1    3    3    0    0 -0.16450821277E+03  0.38013939126E+03  0.90279315975E+02  0.42393308876E+03  0.00000000000E+00 0. -1.
         22    1    1    2    0    0  0.30618909658E+03 -0.57146486703E+03 -0.28090387225E+04  0.28828843892E+04  0.00000000000E+00 0. -1.
<mgrwt>
<rscale>  0 0.24139883E+04</rscale>
<asrwt>0</asrwt>
<pdfrwt beam="1">  1        2 0.47582168E+00 0.24139883E+04</pdfrwt>
<pdfrwt beam="2">  1       -2 0.72466849E-01 0.24139883E+04</pdfrwt>
<totfact> 0.23548208E+00</totfact>
</mgrwt>
</event>
<event>
 6    1  0.1585031E-006  0.1180050E+04  0.7818608E-02  0.9130500E-01
          1   -1    0    0  501    0  0.00000000000E+00  0.00000000000E+00  0.17557205270E+03  0.17557205270E+03  0.00000000000E+00 0. -1.
         -1   -1    0    0    0  501 -0.00000000000E+00 -0.00000000000E+00 -0.19828314653E+04  0.19828314653E+04  0.00000000000E+00 0.  1.
         23    2    1    2    0    0  0.51246230781E+03  0.12767175509E+03 -0.13758886435E+04  0.14764955811E+04  0.89732645782E+02 0.  0.
         13    1    3    3    0    0  0.33320058447E+03  0.96103596444E+02 -0.78449164429E+03  0.85772120803E+03  0.00000000000E+00 0.  1.
        -13    1    3    3    0    0  0.17926172334E+03  0.31568158645E+02 -0.59139699921E+03  0.61877437307E+03  0.00000000000E+00 0. -1.
         22    1    1    2    0    0 -0.51246230781E+03 -0.12767175509E+03 -0.43137076912E+03  0.68190793691E+03  0.00000000000E+00 0. -1.
<mgrwt>
<rscale>  0 0.11800505E+04</rscale>
<asrwt>0</asrwt>
<pdfrwt beam="1">  1        1 0.27011084E-01 0.11800505E+04</pdfrwt>
<pdfrwt beam="2">  1       -1 0.30505101E+00 0.11800505E+04</pdfrwt>
<totfact> 0.53953301E+00</totfact>
</mgrwt>
</event>
<event>
 6    1  0.1585031E-006  0.1227216E+04  0.7818608E-02  0.9089363E-01
          1   -1    0    0  501    0  0.00000000000E+00  0.00000000000E+00  0.11929036409E+04  0.11929036409E+04  0.00000000000E+00 0. -1.
         -1   -1    0    0    0  501 -0.00000000000E+00 -0.00000000000E+00 -0.31562858865E+03  0.31562858865E+03  0.00000000000E+00 0.  1.
         23    2    1    2    0    0  0.25919038929E+03  0.55101340134E+03  0.48809417123E+03  0.78585859334E+03  0.92425009555E+02 0.  0.
         11    1    3    3    0    0  0.15642741071E+03  0.30878549991E+03  0.21960751697E+03  0.40993350838E+03  0.00000000000E+00 0.  1.
        -11    1    3    3    0    0  0.10276297858E+03  0.24222790142E+03  0.26848665425E+03  0.37592508497E+03  0.00000000000E+00 0. -1.
         22    1    1    2    0    0 -0.25919038929E+03 -0.55101340134E+03  0.38918088107E+03  0.72267363626E+03  0.00000000000E+00 0. -1.
<mgrwt>
<rscale>  0 0.12272155E+04</rscale>
<asrwt>0</asrwt>
<pdfrwt beam="1">  1        1 0.18352363E+00 0.12272155E+04</pdfrwt>
<pdfrwt beam="2">  1       -1 0.48558245E-01 0.12272155E+04</pdfrwt>
<totfact> 0.45317460E+01</totfact>
</mgrwt>
</event>
<event>
 6    1  0.1585031E-006  0.4436284E+04  0.7818608E-02  0.7921887E-01
         -1   -1    0    0    0  501 -0.00000000000E+00  0.00000000000E+00  0.17337556339E+04  0.17337556339E+04  0.00000000000E+00 0. -1.
          1   -1    0    0  501    0  0.00000000000E+00 -0.00000000000E+00 -0.28378588705E+04  0.28378588705E+04  0.00000000000E+00 0.  1.
         23    2    1    2    0    0  0.17226043690E+04  0.61316035765E+03  0.74001401111E+03  0.19746740239E+04  0.91571434966E+02 0.  0.
         13    1    3    3    0    0  0.42443456405E+03  0.13020379576E+03  0.21663785848E+03  0.49399361263E+03  0.00000000000E+00 0.  1.
        -13    1    3    3    0    0  0.12981698049E+04  0.48295656189E+03  0.52337615263E+03  0.14806804113E+04  0.00000000000E+00 0. -1.
         22    1    1    2    0    0 -0.17226043690E+04 -0.61316035765E+03 -0.18441172477E+04  0.25969404805E+04  0.00000000000E+00 0.  1.
<mgrwt>
<rscale>  0 0.44362839E+04</rscale>
<asrwt>0</asrwt>
<pdfrwt beam="1">  1        1 0.43659367E+00 0.44362839E+04</pdfrwt>
<pdfrwt beam="2">  1       -1 0.26673164E+00 0.44362839E+04</pdfrwt>
<totfact> 0.32086111E-02</totfact>
</mgrwt>
</event>
<event>
 6    1  0.1585031E-006  0.2497736E+04  0.7818608E-02  0.8403793E-01
         -1   -1    0    0    0  501 -0.00000000000E+00  0.00000000000E+00  0.53028358517E+03  0.53028358517E+03  0.00000000000E+00 0.  1.
          1   -1    0    0  501    0  0.00000000000E+00 -0.00000000000E+00 -0.29412021492E+04  0.29412021492E+04  0.00000000000E+00 0. -1.
         23    2    1    2    0    0 -0.11328775511E+04 -0.50414764794E+03 -0.10213128482E+04  0.16090732015E+04  0.91979548451E+02 0.  0.
         13    1    3    3    0    0 -0.55948986870E+03 -0.19886181637E+03 -0.48288672277E+03  0.76534601469E+03  0.00000000000E+00 0. -1.
        -13    1    3    3    0    0 -0.57338768245E+03 -0.30528583157E+03 -0.53842612539E+03  0.84372718686E+03  0.00000000000E+00 0.  1.
         22    1    1    2    0    0  0.11328775511E+04  0.50414764794E+03 -0.13896057159E+04  0.18624125328E+04  0.00000000000E+00 0. -1.
<mgrwt>
<rscale>  0 0.24977360E+04</rscale>
<asrwt>0</asrwt>
<pdfrwt beam="1">  1        1 0.45249263E+00 0.24977360E+04</pdfrwt>
<pdfrwt beam="2">  1       -1 0.81582091E-01 0.24977360E+04</pdfrwt>
<totfact> 0.87673097E-01</totfact>
</mgrwt>
</event>
<event>
 6    1  0.1585031E-006  0.3803422E+04  0.7818608E-02  0.8045421E-01
          2   -1    0    0  501    0  0.00000000000E+00  0.00000000000E+00  0.30366039134E+04  0.30366039134E+04  0.00000000000E+00 0. -1.
         -2   -1    0    0    0  501 -0.00000000000E+00 -0.00000000000E+00 -0.11909703881E+04  0.11909703881E+04  0.00000000000E+00 0.  1.
         23    2    1    2    0    0  0.16220781557E+03  0.18787670595E+04  0.11871735431E+04  0.22301643318E+04  0.90415077730E+02 0.  0.
         11    1    3    3    0    0  0.28257755113E+02  0.28523803541E+03  0.14323640727E+03  0.32043081303E+03  0.00000000000E+00 0. -1.
        -11    1    3    3    0    0  0.13395006046E+03  0.15935290240E+04  0.10439371359E+04  0.19097335188E+04  0.00000000000E+00 0.  1.
         22    1    1    2    0    0 -0.16220781557E+03 -0.18787670595E+04  0.65845998214E+03  0.19974099697E+04  0.00000000000E+00 0.  1.
<mgrwt>
<rscale>  0 0.38034223E+04</rscale>
<asrwt>0</asrwt>
<pdfrwt beam="1">  1        2 0.46716983E+00 0.38034223E+04</pdfrwt>
<pdfrwt beam="2">  1       -2 0.18322621E+00 0.38034223E+04</pdfrwt>
<totfact> 0.22787631E-01</totfact>
</mgrwt>
</event>
<event>
 6    1  0.1585031E-006  0.4254194E+04  0.7818608E-02  0.7955143E-01
          2   -1    0    0  501    0  0.00000000000E+00  0.00000000000E+00  0.28020560454E+04  0.28020560454E+04  0.00000000000E+00 0. -1.
         -2   -1    0    0    0  501 -0.00000000000E+00 -0.00000000000E+00 -0.16147216894E+04  0.16147216894E+04  0.00000000000E+00 0.  1.
         23    2    1    2    0    0 -0.78102749866E+03  0.13428738858E+04  0.21010249479E+04  0.26145167313E+04  0.89875914180E+02 0.  0.
         13    1    3    3    0    0 -0.28673291686E+03  0.50946358586E+03  0.86327983198E+03  0.10426029826E+04  0.00000000000E+00 0. -1.
        -13    1    3    3    0    0 -0.49429458180E+03  0.83341029998E+03  0.12377451159E+04  0.15719137488E+04  0.00000000000E+00 0.  1.
         22    1    1    2    0    0  0.78102749866E+03 -0.13428738858E+04 -0.91369059192E+03  0.18022610035E+04  0.00000000000E+00 0.  1.
<mgrwt>
<rscale>  0 0.42541935E+04</rscale>
<asrwt>0</asrwt>
<pdfrwt beam="1">  1        2 0.43108554E+00 0.42541935E+04</pdfrwt>
<pdfrwt beam="2">  1       -2 0.24841872E+00 0.42541935E+04</pdfrwt>
<totfact> 0.11708922E-01</totfact>
</mgrwt>
</event>
<event>
 6    1  0.1585031E-006  0.2757229E+04  0.7818608E-02  0.8316671E-01
          2   -1    0    0  501    0  0.00000000000E+00  0.00000000000E+00  0.22459090349E+04  0.22459090349E+04  0.00000000000E+00 0. -1.
         -2   -1    0    0    0  501 -0.00000000000E+00 -0.00000000000E+00 -0.84623984591E+03  0.84623984591E+03  0.00000000000E+00 0.  1.
         23    2    1    2    0    0  0.60825272609E+03 -0.73983805892E+03  0.18103060029E+04  0.20500575579E+04  0.90534161185E+02 0.  0.
         11    1    3    3    0    0  0.48135221487E+03 -0.54298312947E+03  0.14260961053E+04  0.16000877273E+04  0.00000000000E+00 0.  1.
        -11    1    3    3    0    0  0.12690051122E+03 -0.19685492945E+03  0.38420989766E+03  0.44996983061E+03  0.00000000000E+00 0. -1.
         22    1    1    2    0    0 -0.60825272609E+03  0.73983805892E+03 -0.41063681396E+03  0.10420913229E+04  0.00000000000E+00 0.  1.
<mgrwt>
<rscale>  0 0.27572288E+04</rscale>
<asrwt>0</asrwt>
<pdfrwt beam="1">  1        2 0.34552446E+00 0.27572288E+04</pdfrwt>
<pdfrwt beam="2">  1       -2 0.13019075E+00 0.27572288E+04</pdfrwt>
<totfact> 0.18379494E+00</totfact>
</mgrwt>
</event>
<event>
 6    1  0.1585031E-006  0.1509098E+04  0.7818608E-02  0.8878426E-01
         -2   -1    0    0    0  501 -0.00000000000E+00  0.00000000000E+00  0.26026096176E+03  0.26026096176E+03  0.00000000000E+00 0.  1.
          2   -1    0    0  501    0  0.00000000000E+00 -0.00000000000E+00 -0.21875886245E+04  0.21875886245E+04  0.00000000000E+00 0. -1.
         23    2    1    2    0    0  0.25146293467E+02 -0.72212037273E+03 -0.63043014930E+03  0.96325087647E+03  0.91213535636E+02 0.  0.
         11    1    3    3    0    0  0.15688426425E+02 -0.24058319651E+03 -0.15579612424E+03  0.28705197002E+03  0.00000000000E+00 0.  1.
        -11    1    3    3    0    0  0.94578670419E+01 -0.48153717622E+03 -0.47463402506E+03  0.67619890645E+03  0.00000000000E+00 0. -1.
         22    1    1    2    0    0 -0.25146293467E+02  0.72212037273E+03 -0.12968975135E+04  0.14845987098E+04  0.00000000000E+00 0.  1.
<mgrwt>
<rscale>  0 0.15090976E+04</rscale>
<asrwt>0</asrwt>
<pdfrwt beam="1">  1        2 0.33655211E+00 0.15090976E+04</pdfrwt>
<pdfrwt beam="2">  1       -2 0.40040146E-01 0.15090976E+04</pdfrwt>
<totfact> 0.29936628E+01</totfact>
</mgrwt>
</event>
<event>
 6    1  0.1585031E-006  0.1324168E+04  0.7818608E-02  0.9010616E-01
         -1   -1    0    0    0  501 -0.00000000000E+00  0.00000000000E+00  0.24014555761E+03  0.24014555761E+03  0.00000000000E+00 0.  1.
          1   -1    0    0  501    0  0.00000000000E+00 -0.00000000000E+00 -0.18253741582E+04  0.18253741582E+04  0.00000000000E+00 0. -1.
         23    2    1    2    0    0  0.38992961207E+03  0.97313149534E+02 -0.16109882695E+04  0.16628057826E+04  0.90138307682E+02 0.  0.
         13    1    3    3    0    0  0.14712984055E+03  0.29320381914E+02 -0.43662864824E+03  0.46168328023E+03  0.00000000000E+00 0. -1.
        -13    1    3    3    0    0  0.24279977152E+03  0.67992767620E+02 -0.11743596213E+04  0.12011225023E+04  0.00000000000E+00 0.  1.
         22    1    1    2    0    0 -0.38992961207E+03 -0.97313149534E+02  0.25759669001E+02  0.40271393320E+03  0.00000000000E+00 0.  1.
<mgrwt>
<rscale>  0 0.13241684E+04</rscale>
<asrwt>0</asrwt>
<pdfrwt beam="1">  1        1 0.28082679E+00 0.13241684E+04</pdfrwt>
<pdfrwt beam="2">  1       -1 0.36945470E-01 0.13241684E+04</pdfrwt>
<totfact> 0.27043538E+01</totfact>
</mgrwt>
</event>
<event>
 6    1  0.1585031E-006  0.3878799E+04  0.7818608E-02  0.8029453E-01
         -2   -1    0    0    0  501 -0.00000000000E+00  0.00000000000E+00  0.20709768006E+04  0.20709768006E+04  0.00000000000E+00 0.  1.
          2   -1    0    0  501    0  0.00000000000E+00 -0.00000000000E+00 -0.18161821406E+04  0.18161821406E+04  0.00000000000E+00 0. -1.
         23    2    1    2    0    0  0.99235641107E+02  0.11200428404E+04 -0.14548049301E+04  0.18409247329E+04  0.90569371606E+02 0.  0.
         11    1    3    3    0    0  0.74630486669E+01  0.77013180769E+02 -0.66400687765E+02  0.10195969029E+03  0.00000000000E+00 0. -1.
        -11    1    3    3    0    0  0.91772592440E+02  0.10430296596E+04 -0.13884042423E+04  0.17389650427E+04  0.00000000000E+00 0.  1.
         22    1    1    2    0    0 -0.99235641107E+02 -0.11200428404E+04  0.17095995901E+04  0.20462342083E+04  0.00000000000E+00 0.  1.
<mgrwt>
<rscale>  0 0.38787993E+04</rscale>
<asrwt>0</asrwt>
<pdfrwt beam="1">  1        2 0.27941264E+00 0.38787993E+04</pdfrwt>
<pdfrwt beam="2">  1       -2 0.31861182E+00 0.38787993E+04</pdfrwt>
<totfact> 0.16442609E-01</totfact>
</mgrwt>
</event>
<event>
 6    1  0.1585031E-006  0.2294590E+04  0.7818608E-02  0.8480057E-01
          1   -1    0    0  501    0  0.00000000000E+00  0.00000000000E+00  0.30696748994E+03  0.30696748994E+03  0.00000000000E+00 0. -1.
         -1   -1    0    0    0  501 -0.00000000000E+00 -0.00000000000E+00 -0.42880294668E+04  0.42880294668E+04  0.00000000000E+00 0.  1.
         23    2    1    2    0    0 -0.83632414076E+03  0.42480574994E+03 -0.33101483132E+04  0.34417306658E+04  0.92358688474E+02 0.  0.
         13    1    3    3    0    0 -0.42626493920E+03  0.26157413866E+03 -0.16756456718E+04  0.17486884359E+04  0.00000000000E+00 0. -1.
        -13    1    3    3    0    0 -0.41005920156E+03  0.16323161128E+03 -0.16345026413E+04  0.16930422299E+04  0.00000000000E+00 0.  1.
         22    1    1    2    0    0  0.83632414076E+03 -0.42480574994E+03 -0.67091366366E+03  0.11532662909E+04  0.00000000000E+00 0. -1.
<mgrwt>
<rscale>  0 0.22945898E+04</rscale>
<asrwt>0</asrwt>
<pdfrwt beam="1">  1        1 0.47225768E-01 0.22945898E+04</pdfrwt>
<pdfrwt beam="2">  1       -1 0.65969684E+00 0.22945898E+04</pdfrwt>
<totfact> 0.20568253E-02</totfact>
</mgrwt>
</event>
<event>
 6    1  0.1585031E-006  0.1969366E+04  0.7818608E-02  0.8621078E-01
          1   -1    0    0  501    0  0.00000000000E+00  0.00000000000E+00  0.82112113370E+03  0.82112113370E+03  0.00000000000E+00 0. -1.
         -1   -1    0    0    0  501 -0.00000000000E+00 -0.00000000000E+00 -0.11808254450E+04  0.11808254450E+04  0.00000000000E+00 0.  1.
         23    2    1    2    0    0 -0.25072151092E+03 -0.51626955306E+03 -0.99084522072E+03  0.11488730912E+04  0.93485832603E+02 0.  0.
         11    1    3    3    0    0 -0.95324030969E+02 -0.22733410536E+03 -0.33933743345E+03  0.41942503511E+03  0.00000000000E+00 0.  1.
        -11    1    3    3    0    0 -0.15539747995E+03 -0.28893544770E+03 -0.65150778727E+03  0.72944805613E+03  0.00000000000E+00 0. -1.
         22    1    1    2    0    0  0.25072151092E+03  0.51626955306E+03  0.63114090942E+03  0.85307348746E+03  0.00000000000E+00 0. -1.
<mgrwt>
<rscale>  0 0.19693661E+04</rscale>
<asrwt>0</asrwt>
<pdfrwt beam="1">  1        1 0.12632633E+00 0.19693661E+04</pdfrwt>
<pdfrwt beam="2">  1       -1 0.18166545E+00 0.19693661E+04</pdfrwt>
<totfact> 0.39912430E+00</totfact>
</mgrwt>
</event>
<event>
 6    1  0.1585031E-006  0.2914968E+04  0.7818608E-02  0.8268438E-01
         -2   -1    0    0    0  501 -0.00000000000E+00  0.00000000000E+00  0.73242220710E+03  0.73242220710E+03  0.00000000000E+00 0.  1.
          2   -1    0    0  501    0  0.00000000000E+00 -0.00000000000E+00 -0.29003206128E+04  0.29003206128E+04  0.00000000000E+00 0. -1.
         23    2    1    2    0    0 -0.11495453891E+04 -0.84274157052E+03 -0.71483725722E+03  0.15972933223E+04  0.93197085634E+02 0.  0.
         13    1    3    3    0    0 -0.41648995041E+03 -0.25532127985E+03 -0.26488215845E+03  0.55571160920E+03  0.00000000000E+00 0. -1.
        -13    1    3    3    0    0 -0.73305543867E+03 -0.58742029068E+03 -0.44995509877E+03  0.10415817131E+04  0.00000000000E+00 0.  1.
         22    1    1    2    0    0  0.11495453891E+04  0.84274157052E+03 -0.14530611485E+04  0.20354494976E+04  0.00000000000E+00 0. -1.
<mgrwt>
<rscale>  0 0.29149677E+04</rscale>
<asrwt>0</asrwt>
<pdfrwt beam="1">  1        2 0.44620316E+00 0.29149677E+04</pdfrwt>
<pdfrwt beam="2">  1       -2 0.11268034E+00 0.29149677E+04</pdfrwt>
<totfact> 0.10721968E+00</totfact>
</mgrwt>
</event>
<event>
 6    1  0.1585031E-006  0.2290489E+04  0.7818608E-02  0.8481681E-01
         -2   -1    0    0    0  501 -0.00000000000E+00  0.00000000000E+00  0.55463433888E+03  0.55463433888E+03  0.00000000000E+00 0.  1.
          2   -1    0    0  501    0  0.00000000000E+00 -0.00000000000E+00 -0.23647733388E+04  0.23647733388E+04  0.00000000000E+00 0. -1.
         23    2    1    2    0    0 -0.74893306015E+03 -0.74923805376E+03 -0.14549274253E+04  0.18020744004E+04  0.91651196385E+02 0.  0.
         11    1    3    3    0    0 -0.18775641827E+03 -0.13587540279E+03 -0.33234855420E+03  0.40517916921E+03  0.00000000000E+00 0. -1.
        -11    1    3    3    0    0 -0.56117664188E+03 -0.61336265097E+03 -0.11225788711E+04  0.13968952312E+04  0.00000000000E+00 0.  1.
         22    1    1    2    0    0  0.74893306015E+03  0.74923805376E+03 -0.35521157458E+03  0.11173332773E+04  0.00000000000E+00 0. -1.
<mgrwt>
<rscale>  0 0.22904886E+04</rscale>
<asrwt>0</asrwt>
<pdfrwt beam="1">  1        2 0.36381128E+00 0.22904886E+04</pdfrwt>
<pdfrwt beam="2">  1       -2 0.85328359E-01 0.22904886E+04</pdfrwt>
<totfact> 0.45123733E+00</totfact>
</mgrwt>
</event>
<event>
 6    1  0.1585031E-006  0.2403002E+04  0.7818608E-02  0.8438381E-01
          2   -1    0    0  501    0  0.00000000000E+00  0.00000000000E+00  0.23673029685E+04  0.23673029685E+04  0.00000000000E+00 0. -1.
         -2   -1    0    0    0  501 -0.00000000000E+00 -0.00000000000E+00 -0.60980977843E+03  0.60980977843E+03  0.00000000000E+00 0.  1.
         23    2    1    2    0    0 -0.60110687728E+02 -0.63913242486E+03 -0.37565318460E+03  0.74946443379E+03  0.92076441813E+02 0.  0.
         11    1    3    3    0    0 -0.25491284104E+02 -0.57540462573E+03 -0.33137144915E+03  0.66449027547E+03  0.00000000000E+00 0.  1.
        -11    1    3    3    0    0 -0.34619403623E+02 -0.63727799124E+02 -0.44281735456E+02  0.84974158327E+02  0.00000000000E+00 0. -1.
         22    1    1    2    0    0  0.60110687728E+02  0.63913242486E+03  0.21331463747E+04  0.22276483132E+04  0.00000000000E+00 0. -1.
<mgrwt>
<rscale>  0 0.24030019E+04</rscale>
<asrwt>0</asrwt>
<pdfrwt beam="1">  1        2 0.36420045E+00 0.24030019E+04</pdfrwt>
<pdfrwt beam="2">  1       -2 0.93816890E-01 0.24030019E+04</pdfrwt>
<totfact> 0.35804881E+00</totfact>
</mgrwt>
</event>
<event>
 6    1  0.1585031E-006  0.1252576E+04  0.7818608E-02  0.9068042E-01
         -1   -1    0    0    0  501 -0.00000000000E+00  0.00000000000E+00  0.39141719473E+03  0.39141719473E+03  0.00000000000E+00 0.  1.
          1   -1    0    0  501    0  0.00000000000E+00 -0.00000000000E+00 -0.10020941649E+04  0.10020941649E+04  0.00000000000E+00 0. -1.
         23    2    1    2    0    0 -0.56795772079E+03 -0.16577945610E+03 -0.89084864366E+02  0.60476734189E+03  0.88026269312E+02 0.  0.
         13    1    3    3    0    0 -0.49630805057E+03 -0.17390853438E+03 -0.82957111553E+02  0.53239810457E+03  0.00000000000E+00 0.  1.
        -13    1    3    3    0    0 -0.71649670218E+02  0.81290782772E+01 -0.61277528124E+01  0.72369237322E+02  0.00000000000E+00 0. -1.
         22    1    1    2    0    0  0.56795772079E+03  0.16577945610E+03 -0.52159210577E+03  0.78874401770E+03  0.00000000000E+00 0.  1.
<mgrwt>
<rscale>  0 0.12525764E+04</rscale>
<asrwt>0</asrwt>
<pdfrwt beam="1">  1        1 0.15416833E+00 0.12525764E+04</pdfrwt>
<pdfrwt beam="2">  1       -1 0.60218030E-01 0.12525764E+04</pdfrwt>
<totfact> 0.41561092E+01</totfact>
</mgrwt>
</event>
<event>
 6    1  0.1585031E-006  0.1508372E+04  0.7818608E-02  0.8878905E-01
         -2   -1    0    0    0  501 -0.00000000000E+00  0.00000000000E+00  0.27594488754E+03  0.27594488754E+03  0.00000000000E+00 0. -1.
          2   -1    0    0  501    0  0.00000000000E+00 -0.00000000000E+00 -0.20612691205E+04  0.20612691205E+04  0.00000000000E+00 0.  1.
         23    2    1    2    0    0 -0.51092381783E+03 -0.54806893704E+03 -0.80823073872E+03  0.11058999117E+04  0.91405581352E+02 0.  0.
         13    1    3    3    0    0 -0.40105635785E+03 -0.42922089801E+03 -0.57498952344E+03  0.82200348753E+03  0.00000000000E+00 0.  1.
        -13    1    3    3    0    0 -0.10986745999E+03 -0.11884803903E+03 -0.23324121528E+03  0.28389642416E+03  0.00000000000E+00 0. -1.
         22    1    1    2    0    0  0.51092381783E+03  0.54806893704E+03 -0.97709349428E+03  0.12313140964E+04  0.00000000000E+00 0. -1.
<mgrwt>
<rscale>  0 0.15083722E+04</rscale>
<asrwt>0</asrwt>
<pdfrwt beam="1">  1        2 0.31711832E+00 0.15083722E+04</pdfrwt>
<pdfrwt beam="2">  1       -2 0.42453060E-01 0.15083722E+04</pdfrwt>
<totfact> 0.31382374E+01</totfact>
</mgrwt>
</event>
<event>
 6    1  0.1585031E-006  0.2128130E+04  0.7818608E-02  0.8548952E-01
         -2   -1    0    0    0  501 -0.00000000000E+00  0.00000000000E+00  0.18212125941E+04  0.18212125941E+04  0.00000000000E+00 0.  1.
          2   -1    0    0  501    0  0.00000000000E+00 -0.00000000000E+00 -0.62169252259E+03  0.62169252259E+03  0.00000000000E+00 0. -1.
         23    2    1    2    0    0 -0.41374797416E+03  0.37713966160E+03 -0.43522482537E+03  0.71495471569E+03  0.91202447322E+02 0.  0.
         13    1    3    3    0    0 -0.28165186174E+03  0.23236658085E+03 -0.23187360833E+03  0.43253597464E+03  0.00000000000E+00 0.  1.
        -13    1    3    3    0    0 -0.13209611242E+03  0.14477308074E+03 -0.20335121703E+03  0.28241874105E+03  0.00000000000E+00 0. -1.
         22    1    1    2    0    0  0.41374797416E+03 -0.37713966160E+03  0.16347448969E+04  0.17279504010E+04  0.00000000000E+00 0.  1.
<mgrwt>
<rscale>  0 0.21281299E+04</rscale>
<asrwt>0</asrwt>
<pdfrwt beam="1">  1        2 0.95645004E-01 0.21281299E+04</pdfrwt>
<pdfrwt beam="2">  1       -2 0.28018655E+00 0.21281299E+04</pdfrwt>
<totfact> 0.18347842E+00</totfact>
</mgrwt>
</event>
<event>
 6    1  0.1585031E-006  0.1436734E+04  0.7818608E-02  0.8927650E-01
          1   -1    0    0  501    0  0.00000000000E+00  0.00000000000E+00  0.16153464281E+04  0.16153464281E+04  0.00000000000E+00 0.  1.
         -1   -1    0    0    0  501 -0.00000000000E+00 -0.00000000000E+00 -0.31946761092E+03  0.31946761092E+03  0.00000000000E+00 0. -1.
         23    2    1    2    0    0  0.45620873219E+03 -0.28595996325E+03  0.12851287433E+04  0.13962835645E+04  0.90290628930E+02 0.  0.
         13    1    3    3    0    0  0.16583879478E+03 -0.15592523209E+03  0.55245227116E+03  0.59751041478E+03  0.00000000000E+00 0.  1.
        -13    1    3    3    0    0  0.29036993741E+03 -0.13003473116E+03  0.73267647213E+03  0.79877314970E+03  0.00000000000E+00 0. -1.
         22    1    1    2    0    0 -0.45620873219E+03  0.28595996325E+03  0.10750073876E+02  0.53853047453E+03  0.00000000000E+00 0. -1.
<mgrwt>
<rscale>  0 0.14367336E+04</rscale>
<asrwt>0</asrwt>
<pdfrwt beam="1">  1        1 0.24851483E+00 0.14367336E+04</pdfrwt>
<pdfrwt beam="2">  1       -1 0.49148864E-01 0.14367336E+04</pdfrwt>
<totfact> 0.21960665E+01</totfact>
</mgrwt>
</event>
<event>
 6    1  0.1585031E-006  0.3443050E+04  0.7818608E-02  0.8127421E-01
         -2   -1    0    0    0  501 -0.00000000000E+00  0.00000000000E+00  0.21635514292E+04  0.21635514292E+04  0.00000000000E+00 0.  1.
          2   -1    0    0  501    0  0.00000000000E+00 -0.00000000000E+00 -0.13698073124E+04  0.13698073124E+04  0.00000000000E+00 0. -1.
         23    2    1    2    0    0 -0.86350768390E+03  0.13448475099E+04 -0.25598927341E+03  0.16212393584E+04  0.92877360960E+02 0.  0.
         13    1    3    3    0    0 -0.48676171459E+03  0.69763369912E+03 -0.10283381422E+03  0.85685736169E+03  0.00000000000E+00 0. -1.
        -13    1    3    3    0    0 -0.37674596931E+03  0.64721381080E+03 -0.15315545919E+03  0.76438199676E+03  0.00000000000E+00 0.  1.
         22    1    1    2    0    0  0.86350768390E+03 -0.13448475099E+04  0.10497333902E+04  0.19121193832E+04  0.00000000000E+00 0.  1.
<mgrwt>
<rscale>  0 0.34430501E+04</rscale>
<asrwt>0</asrwt>
<pdfrwt beam="1">  1        2 0.21073959E+00 0.34430501E+04</pdfrwt>
<pdfrwt beam="2">  1       -2 0.33285407E+00 0.34430501E+04</pdfrwt>
<totfact> 0.24767024E-01</totfact>
</mgrwt>
</event>
<event>
 6    1  0.1585031E-006  0.1304462E+04  0.7818608E-02  0.9026034E-01
         -1   -1    0    0    0  501 -0.00000000000E+00  0.00000000000E+00  0.26862007591E+03  0.26862007591E+03  0.00000000000E+00 0.  1.
          1   -1    0    0  501    0  0.00000000000E+00 -0.00000000000E+00 -0.15836698341E+04  0.15836698341E+04  0.00000000000E+00 0. -1.
         23    2    1    2    0    0 -0.40942758349E+03 -0.45435905771E+03 -0.97010904764E+03  0.11501095961E+04  0.86990914775E+02 0.  0.
         13    1    3    3    0    0 -0.13804474784E+03 -0.10926251366E+03 -0.23092238290E+03  0.29037871172E+03  0.00000000000E+00 0. -1.
        -13    1    3    3    0    0 -0.27138283565E+03 -0.34509654404E+03 -0.73918666474E+03  0.85973088437E+03  0.00000000000E+00 0.  1.
         22    1    1    2    0    0  0.40942758349E+03  0.45435905771E+03 -0.34494071051E+03  0.70218031388E+03  0.00000000000E+00 0.  1.
<mgrwt>
<rscale>  0 0.13044624E+04</rscale>
<asrwt>0</asrwt>
<pdfrwt beam="1">  1        1 0.24364151E+00 0.13044624E+04</pdfrwt>
<pdfrwt beam="2">  1       -1 0.41326166E-01 0.13044624E+04</pdfrwt>
<totfact> 0.32262629E+01</totfact>
</mgrwt>
</event>
<event>
 6    1  0.1585031E-006  0.6996745E+04  0.7818608E-02  0.7577771E-01
         -1   -1    0    0    0  501 -0.00000000000E+00  0.00000000000E+00  0.34472837643E+04  0.34472837643E+04  0.00000000000E+00 0.  1.
          1   -1    0    0  501    0  0.00000000000E+00 -0.00000000000E+00 -0.35502186463E+04  0.35502186463E+04  0.00000000000E+00 0. -1.
         23    2    1    2    0    0  0.33150987485E+02  0.26654044928E+04  0.22134864119E+04  0.34660313702E+04  0.91494618742E+02 0.  0.
         11    1    3    3    0    0  0.93463508545E+01  0.13577355350E+04  0.11860554649E+04  0.18028479423E+04  0.00000000000E+00 0.  1.
        -11    1    3    3    0    0  0.23804636631E+02  0.13076689578E+04  0.10274309471E+04  0.16631834279E+04  0.00000000000E+00 0. -1.
         22    1    1    2    0    0 -0.33150987485E+02 -0.26654044928E+04 -0.23164212939E+04  0.35314710404E+04  0.00000000000E+00 0. -1.
<mgrwt>
<rscale>  0 0.69967453E+04</rscale>
<asrwt>0</asrwt>
<pdfrwt beam="1">  1        1 0.54618749E+00 0.69967453E+04</pdfrwt>
<pdfrwt beam="2">  1       -1 0.53035135E+00 0.69967453E+04</pdfrwt>
<totfact> 0.13924377E-04</totfact>
</mgrwt>
</event>
<event>
 6    1  0.1585031E-006  0.1197974E+04  0.7818608E-02  0.9114631E-01
          1   -1    0    0  501    0  0.00000000000E+00  0.00000000000E+00  0.28248376896E+04  0.28248376896E+04  0.00000000000E+00 0. -1.
         -1   -1    0    0    0  501 -0.00000000000E+00 -0.00000000000E+00 -0.12701106355E+03  0.12701106355E+03  0.00000000000E+00 0.  1.
         23    2    1    2    0    0  0.27829073381E+03 -0.49211134232E+03  0.89424083195E+03  0.10617320841E+04  0.89381470163E+02 0.  0.
         13    1    3    3    0    0  0.72907965606E+02 -0.18455504489E+03  0.25361536268E+03  0.32202001216E+03  0.00000000000E+00 0. -1.
        -13    1    3    3    0    0  0.20538276820E+03 -0.30755629743E+03  0.64062546927E+03  0.73971207198E+03  0.00000000000E+00 0.  1.
         22    1    1    2    0    0 -0.27829073381E+03  0.49211134232E+03  0.18035857941E+04  0.18901166690E+04  0.00000000000E+00 0. -1.
<mgrwt>
<rscale>  0 0.11979744E+04</rscale>
<asrwt>0</asrwt>
<pdfrwt beam="1">  1        1 0.43459037E+00 0.11979744E+04</pdfrwt>
<pdfrwt beam="2">  1       -1 0.19540166E-01 0.11979744E+04</pdfrwt>
<totfact> 0.17020690E+01</totfact>
</mgrwt>
</event>
<event>
 6    1  0.1585031E-006  0.1182845E+04  0.7818608E-02  0.9128006E-01
         -2   -1    0    0    0  501 -0.00000000000E+00  0.00000000000E+00  0.12907020937E+03  0.12907020937E+03  0.00000000000E+00 0.  1.
          2   -1    0    0  501    0  0.00000000000E+00 -0.00000000000E+00 -0.27100013416E+04  0.27100013416E+04  0.00000000000E+00 0. -1.
         23    2    1    2    0    0 -0.21774682644E+03  0.48439032305E+03 -0.19040347964E+04  0.19787016800E+04  0.88680137517E+02 0.  0.
         11    1    3    3    0    0 -0.10265966863E+03  0.18101679327E+03 -0.89067725822E+03  0.91466500169E+03  0.00000000000E+00 0. -1.
        -11    1    3    3    0    0 -0.11508715781E+03  0.30337352978E+03 -0.10133575382E+04  0.10640366783E+04  0.00000000000E+00 0.  1.
         22    1    1    2    0    0  0.21774682644E+03 -0.48439032305E+03 -0.67689633577E+03  0.86036987097E+03  0.00000000000E+00 0. -1.
<mgrwt>
<rscale>  0 0.11828448E+04</rscale>
<asrwt>0</asrwt>
<pdfrwt beam="1">  1        2 0.41692327E+00 0.11828448E+04</pdfrwt>
<pdfrwt beam="2">  1       -2 0.19856956E-01 0.11828448E+04</pdfrwt>
<totfact> 0.56566840E+01</totfact>
</mgrwt>
</event>
<event>
 6    1  0.1585031E-006  0.2657887E+04  0.7818608E-02  0.8348800E-01
          1   -1    0    0  501    0  0.00000000000E+00  0.00000000000E+00  0.13948658077E+04  0.13948658077E+04  0.00000000000E+00 0. -1.
         -1   -1    0    0    0  501 -0.00000000000E+00 -0.00000000000E+00 -0.12661371138E+04  0.12661371138E+04  0.00000000000E+00 0.  1.
         23    2    1    2    0    0 -0.10321989197E+04  0.64145250737E+03 -0.47007580717E+03  0.13062104061E+04  0.91205436201E+02 0.  0.
         11    1    3    3    0    0 -0.13711915017E+03  0.65835069865E+02 -0.86634991191E+02  0.17504724924E+03  0.00000000000E+00 0. -1.
        -11    1    3    3    0    0 -0.89507976952E+03  0.57561743751E+03 -0.38344081598E+03  0.11311631569E+04  0.00000000000E+00 0.  1.
         22    1    1    2    0    0  0.10321989197E+04 -0.64145250737E+03  0.59880450106E+03  0.13547925153E+04  0.00000000000E+00 0. -1.
<mgrwt>
<rscale>  0 0.26578874E+04</rscale>
<asrwt>0</asrwt>
<pdfrwt beam="1">  1        1 0.21459474E+00 0.26578874E+04</pdfrwt>
<pdfrwt beam="2">  1       -1 0.19479033E+00 0.26578874E+04</pdfrwt>
<totfact> 0.11105084E+00</totfact>
</mgrwt>
</event>
<event>
 6    1  0.1585031E-006  0.1066421E+04  0.7818608E-02  0.9238553E-01
          2   -1    0    0  501    0  0.00000000000E+00  0.00000000000E+00  0.10009125909E+04  0.10009125909E+04  0.00000000000E+00 0. -1.
         -2   -1    0    0    0  501 -0.00000000000E+00 -0.00000000000E+00 -0.28405427606E+03  0.28405427606E+03  0.00000000000E+00 0.  1.
         23    2    1    2    0    0 -0.20899877857E+03  0.42556357593E+03  0.64462581708E+03  0.80538123298E+03  0.91168195027E+02 0.  0.
         11    1    3    3    0    0 -0.18092468755E+03  0.27488718971E+03  0.42345010002E+03  0.53628975083E+03  0.00000000000E+00 0.  1.
        -11    1    3    3    0    0 -0.28074091020E+02  0.15067638622E+03  0.22117571706E+03  0.26909148215E+03  0.00000000000E+00 0. -1.
         22    1    1    2    0    0  0.20899877857E+03 -0.42556357593E+03  0.72232497779E+02  0.47958563400E+03  0.00000000000E+00 0.  1.
<mgrwt>
<rscale>  0 0.10664211E+04</rscale>
<asrwt>0</asrwt>
<pdfrwt beam="1">  1        2 0.15398655E+00 0.10664211E+04</pdfrwt>
<pdfrwt beam="2">  1       -2 0.43700658E-01 0.10664211E+04</pdfrwt>
<totfact> 0.12418332E+02</totfact>
</mgrwt>
</event>
<event>
 6    1  0.1585031E-006  0.9380974E+03  0.7818608E-02  0.9379172E-01
          1   -1    0    0  501    0  0.00000000000E+00  0.00000000000E+00  0.71041253523E+03  0.71041253523E+03  0.00000000000E+00 0. -1.
         -1   -1    0    0    0  501 -0.00000000000E+00 -0.00000000000E+00 -0.30968864786E+03  0.30968864786E+03  0.00000000000E+00 0.  1.
         23    2    1    2    0    0 -0.44093561933E+03  0.11954166064E+03  0.11047633677E+03  0.47884517190E+03  0.91505456884E+02 0.  0.
         13    1    3    3    0    0 -0.29614944258E+03  0.70737277949E+02  0.29454365399E+02  0.30590164183E+03  0.00000000000E+00 0. -1.
        -13    1    3    3    0    0 -0.14478617675E+03  0.48804382688E+02  0.81021971370E+02  0.17294353007E+03  0.00000000000E+00 0.  1.
         22    1    1    2    0    0  0.44093561933E+03 -0.11954166064E+03  0.29024755060E+03  0.54125601119E+03  0.00000000000E+00 0. -1.
<mgrwt>
<rscale>  0 0.93809743E+03</rscale>
<asrwt>0</asrwt>
<pdfrwt beam="1">  1        1 0.10929424E+00 0.93809743E+03</pdfrwt>
<pdfrwt beam="2">  1       -1 0.47644408E-01 0.93809743E+03</pdfrwt>
<totfact> 0.11781613E+02</totfact>
</mgrwt>
</event>
<event>
 6    1  0.1585031E-006  0.8048963E+03  0.7818608E-02  0.9552957E-01
          2   -1    0    0  501    0  0.00000000000E+00  0.00000000000E+00  0.14188565717E+04  0.14188565717E+04  0.00000000000E+00 0. -1.
         -2   -1    0    0    0  501 -0.00000000000E+00 -0.00000000000E+00 -0.11415144129E+03  0.11415144129E+03  0.00000000000E+00 0.  1.
         23    2    1    2    0    0  0.14223362838E+03  0.50055543737E+02  0.13607596117E+04  0.13721413994E+04  0.91484078039E+02 0.  0.
         11    1    3    3    0    0  0.41492353941E+02  0.29283767590E+02  0.82719610120E+03  0.82875360894E+03  0.00000000000E+00 0. -1.
        -11    1    3    3    0    0  0.10074127444E+03  0.20771776148E+02  0.53356351050E+03  0.54338779044E+03  0.00000000000E+00 0.  1.
         22    1    1    2    0    0 -0.14223362838E+03 -0.50055543737E+02 -0.56054481301E+02  0.16086661361E+03  0.00000000000E+00 0.  1.
<mgrwt>
<rscale>  0 0.80489632E+03</rscale>
<asrwt>0</asrwt>
<pdfrwt beam="1">  1        2 0.21828561E+00 0.80489632E+03</pdfrwt>
<pdfrwt beam="2">  1       -2 0.17561761E-01 0.80489632E+03</pdfrwt>
<totfact> 0.38084302E+02</totfact>
</mgrwt>
</event>
<event>
 6    1  0.1585031E-006  0.1033910E+04  0.7818608E-02  0.9272115E-01
         -2   -1    0    0    0  501 -0.00000000000E+00  0.00000000000E+00  0.97381394995E+02  0.97381394995E+02  0.00000000000E+00 0.  1.
          2   -1    0    0  501    0  0.00000000000E+00 -0.00000000000E+00 -0.27442878636E+04  0.27442878636E+04  0.00000000000E+00 0. -1.
         23    2    1    2    0    0 -0.19182424511E+03  0.45389427749E+03 -0.94258842889E+03  0.10675450982E+04  0.91449626447E+02 0.  0.
         13    1    3    3    0    0 -0.73481323304E+02  0.28724003123E+03 -0.57568555816E+03  0.64754938213E+03  0.00000000000E+00 0.  1.
        -13    1    3    3    0    0 -0.11834292181E+03  0.16665424626E+03 -0.36690287074E+03  0.41999571604E+03  0.00000000000E+00 0. -1.
         22    1    1    2    0    0  0.19182424511E+03 -0.45389427749E+03 -0.17043180398E+04  0.17741241605E+04  0.00000000000E+00 0. -1.
<mgrwt>
<rscale>  0 0.10339102E+04</rscale>
<asrwt>0</asrwt>
<pdfrwt beam="1">  1        2 0.42219814E+00 0.10339102E+04</pdfrwt>
<pdfrwt beam="2">  1       -2 0.14981753E-01 0.10339102E+04</pdfrwt>
<totfact> 0.89033570E+01</totfact>
</mgrwt>
</event>
<event>
 6    1  0.1585031E-006  0.3591342E+04  0.7818608E-02  0.8092478E-01
         -2   -1    0    0    0  501 -0.00000000000E+00  0.00000000000E+00  0.16715479561E+04  0.16715479561E+04  0.00000000000E+00 0.  1.
          2   -1    0    0  501    0  0.00000000000E+00 -0.00000000000E+00 -0.19290111991E+04  0.19290111991E+04  0.00000000000E+00 0. -1.
         23    2    1    2    0    0 -0.15471190387E+03  0.17784629198E+04 -0.31228093271E+03  0.18145381280E+04  0.90349913464E+02 0.  0.
         11    1    3    3    0    0 -0.15971754126E+03  0.15753622847E+04 -0.29457614464E+03  0.16106058257E+04  0.00000000000E+00 0.  1.
        -11    1    3    3    0    0  0.50056373892E+01  0.20310063513E+03 -0.17704788075E+02  0.20393230229E+03  0.00000000000E+00 0. -1.
         22    1    1    2    0    0  0.15471190387E+03 -0.17784629198E+04  0.54817689736E+02  0.17860210271E+04  0.00000000000E+00 0.  1.
<mgrwt>
<rscale>  0 0.35913422E+04</rscale>
<asrwt>0</asrwt>
<pdfrwt beam="1">  1        2 0.29677095E+00 0.35913422E+04</pdfrwt>
<pdfrwt beam="2">  1       -2 0.25716122E+00 0.35913422E+04</pdfrwt>
<totfact> 0.34657792E-01</totfact>
</mgrwt>
</event>
<event>
 6    1  0.1607885E-006  0.2254825E+04  0.7818608E-02  0.8495949E-01
         -1   -1    0    0    0  501 -0.00000000000E+00  0.00000000000E+00  0.66492858179E+03  0.66492858179E+03  0.00000000000E+00 0.  1.
          1   -1    0    0  501    0  0.00000000000E+00 -0.00000000000E+00 -0.19115725628E+04  0.19115725628E+04  0.00000000000E+00 0. -1.
         23    2    1    2    0    0  0.92561963219E+03  0.51501980229E+03 -0.10593255304E+04  0.15008128523E+04  0.90837977539E+02 0.  0.
         13    1    3    3    0    0  0.51089179318E+03  0.33448664111E+03 -0.59508725147E+03  0.85265501481E+03  0.00000000000E+00 0. -1.
        -13    1    3    3    0    0  0.41472783901E+03  0.18053316118E+03 -0.46423827888E+03  0.64815783750E+03  0.00000000000E+00 0.  1.
         22    1    1    2    0    0 -0.92561963219E+03 -0.51501980229E+03 -0.18731845070E+03  0.10756882923E+04  0.00000000000E+00 0.  1.
<mgrwt>
<rscale>  0 0.22548253E+04</rscale>
<asrwt>0</asrwt>
<pdfrwt beam="1">  1        1 0.29408808E+00 0.22548253E+04</pdfrwt>
<pdfrwt beam="2">  1       -1 0.10229671E+00 0.22548253E+04</pdfrwt>
<totfact> 0.28079832E+00</totfact>
</mgrwt>
</event>
<event>
 6    1  0.1585031E-006  0.1517503E+04  0.7818608E-02  0.8872896E-01
         -2   -1    0    0    0  501 -0.00000000000E+00  0.00000000000E+00  0.18485016903E+03  0.18485016903E+03  0.00000000000E+00 0.  1.
          2   -1    0    0  501    0  0.00000000000E+00 -0.00000000000E+00 -0.31144344966E+04  0.31144344966E+04  0.00000000000E+00 0. -1.
         23    2    1    2    0    0  0.33584789486E+02 -0.55220440859E+03 -0.25904148696E+04  0.26503674381E+04  0.90225901741E+02 0.  0.
         13    1    3    3    0    0  0.54247995546E+02 -0.45190697565E+03 -0.22119914659E+04  0.22583332360E+04  0.00000000000E+00 0. -1.
        -13    1    3    3    0    0 -0.20663206060E+02 -0.10029743294E+03 -0.37842340371E+03  0.39203420210E+03  0.00000000000E+00 0.  1.
         22    1    1    2    0    0 -0.33584789486E+02  0.55220440859E+03 -0.33916945795E+03  0.64891722751E+03  0.00000000000E+00 0.  1.
<mgrwt>
<rscale>  0 0.15175029E+04</rscale>
<asrwt>0</asrwt>
<pdfrwt beam="1">  1        2 0.47914375E+00 0.15175029E+04</pdfrwt>
<pdfrwt beam="2">  1       -2 0.28438489E-01 0.15175029E+04</pdfrwt>
<totfact> 0.16236083E+01</totfact>
</mgrwt>
</event>
<event>
 6    1  0.1585031E-006  0.2490355E+04  0.7818608E-02  0.8406430E-01
          1   -1    0    0  501    0  0.00000000000E+00  0.00000000000E+00  0.86430147900E+03  0.86430147900E+03  0.00000000000E+00 0.  1.
         -1   -1    0    0    0  501 -0.00000000000E+00 -0.00000000000E+00 -0.17938953582E+04  0.17938953582E+04  0.00000000000E+00 0. -1.
         23    2    1    2    0    0  0.90299229575E+02 -0.32681991339E+03  0.81154884782E+03  0.88434701196E+03  0.92156923270E+02 0.  0.
         13    1    3    3    0    0  0.31986510858E+02 -0.19073727982E+02  0.10747716342E+03  0.11374658075E+03  0.00000000000E+00 0.  1.
        -13    1    3    3    0    0  0.58312718717E+02 -0.30774618541E+03  0.70407168441E+03  0.77060043121E+03  0.00000000000E+00 0. -1.
         22    1    1    2    0    0 -0.90299229575E+02  0.32681991339E+03 -0.17411427270E+04  0.17738498252E+04  0.00000000000E+00 0. -1.
<mgrwt>
<rscale>  0 0.24903545E+04</rscale>
<asrwt>0</asrwt>
<pdfrwt beam="1">  1        1 0.13296946E+00 0.24903545E+04</pdfrwt>
<pdfrwt beam="2">  1       -1 0.27598390E+00 0.24903545E+04</pdfrwt>
<totfact> 0.81848422E-01</totfact>
</mgrwt>
</event>
<event>
 6    1  0.1585031E-006  0.2313776E+04  0.7818608E-02  0.8472509E-01
          2   -1    0    0  501    0  0.00000000000E+00  0.00000000000E+00  0.95062660884E+03  0.95062660884E+03  0.00000000000E+00 0. -1.
         -2   -1    0    0    0  501 -0.00000000000E+00 -0.00000000000E+00 -0.14079032175E+04  0.14079032175E+04  0.00000000000E+00 0.  1.
         23    2    1    2    0    0 -0.31817032049E+03  0.10951434391E+04 -0.41596482432E+03  0.12173557956E+04  0.91416043213E+02 0.  0.
         13    1    3    3    0    0 -0.23903128542E+03  0.67720453244E+03 -0.24266354872E+03  0.75804190652E+03  0.00000000000E+00 0. -1.
        -13    1    3    3    0    0 -0.79139035071E+02  0.41793890664E+03 -0.17330127561E+03  0.45931388906E+03  0.00000000000E+00 0.  1.
         22    1    1    2    0    0  0.31817032049E+03 -0.10951434391E+04 -0.41311784345E+02  0.11411740308E+04  0.00000000000E+00 0.  1.
<mgrwt>
<rscale>  0 0.23137764E+04</rscale>
<asrwt>0</asrwt>
<pdfrwt beam="1">  1        2 0.14625025E+00 0.23137764E+04</pdfrwt>
<pdfrwt beam="2">  1       -2 0.21660049E+00 0.23137764E+04</pdfrwt>
<totfact> 0.25509396E+00</totfact>
</mgrwt>
</event>
<event>
 6    1  0.1585031E-006  0.1919330E+04  0.7818608E-02  0.8645294E-01
         -1   -1    0    0    0  501 -0.00000000000E+00  0.00000000000E+00  0.88667480272E+03  0.88667480272E+03  0.00000000000E+00 0.  1.
          1   -1    0    0  501    0  0.00000000000E+00 -0.00000000000E+00 -0.10386642013E+04  0.10386642013E+04  0.00000000000E+00 0. -1.
         23    2    1    2    0    0 -0.94452370711E+03 -0.45346300710E+02  0.74836832006E+02  0.95290316597E+03  0.90788611682E+02 0.  0.
         13    1    3    3    0    0 -0.19980450711E+03  0.19291774060E+02  0.39267052699E+02  0.20453829724E+03  0.00000000000E+00 0. -1.
        -13    1    3    3    0    0 -0.74471920000E+03 -0.64638074770E+02  0.35569779306E+02  0.74836486874E+03  0.00000000000E+00 0.  1.
         22    1    1    2    0    0  0.94452370711E+03  0.45346300710E+02 -0.22682623063E+03  0.97243583808E+03  0.00000000000E+00 0. -1.
<mgrwt>
<rscale>  0 0.19193305E+04</rscale>
<asrwt>0</asrwt>
<pdfrwt beam="1">  1        1 0.15979449E+00 0.19193305E+04</pdfrwt>
<pdfrwt beam="2">  1       -1 0.13641151E+00 0.19193305E+04</pdfrwt>
<totfact> 0.59156926E+00</totfact>
</mgrwt>
</event>
<event>
 6    1  0.1585031E-006  0.1818377E+04  0.7818608E-02  0.8696588E-01
         -2   -1    0    0    0  501 -0.00000000000E+00  0.00000000000E+00  0.12885453890E+04  0.12885453890E+04  0.00000000000E+00 0.  1.
          2   -1    0    0  501    0  0.00000000000E+00 -0.00000000000E+00 -0.64151671988E+03  0.64151671988E+03  0.00000000000E+00 0. -1.
         23    2    1    2    0    0 -0.21107465062E+03  0.48199175980E+03  0.11086602749E+04  0.12300818920E+04  0.84292889411E+02 0.  0.
         11    1    3    3    0    0 -0.90136124663E+02  0.16159630524E+03  0.30881906952E+03  0.36000986728E+03  0.00000000000E+00 0.  1.
        -11    1    3    3    0    0 -0.12093852595E+03  0.32039545456E+03  0.79984120539E+03  0.87007202472E+03  0.00000000000E+00 0. -1.
         22    1    1    2    0    0  0.21107465062E+03 -0.48199175980E+03 -0.46163160575E+03  0.69998021692E+03  0.00000000000E+00 0. -1.
<mgrwt>
<rscale>  0 0.18183767E+04</rscale>
<asrwt>0</asrwt>
<pdfrwt beam="1">  1        2 0.98694880E-01 0.18183767E+04</pdfrwt>
<pdfrwt beam="2">  1       -2 0.19823775E+00 0.18183767E+04</pdfrwt>
<totfact> 0.58801390E+00</totfact>
</mgrwt>
</event>
<event>
 6    1  0.1585031E-006  0.1139483E+04  0.7818608E-02  0.9167541E-01
          1   -1    0    0  501    0  0.00000000000E+00  0.00000000000E+00  0.87947925836E+03  0.87947925836E+03  0.00000000000E+00 0. -1.
         -1   -1    0    0    0  501 -0.00000000000E+00 -0.00000000000E+00 -0.36908812867E+03  0.36908812867E+03  0.00000000000E+00 0.  1.
         23    2    1    2    0    0  0.26530230640E+03 -0.28741384870E+02  0.80356974906E+03  0.85212686963E+03  0.95835689413E+02 0.  0.
         11    1    3    3    0    0  0.13875128320E+03  0.27382397618E+02  0.33758236807E+03  0.36601034073E+03  0.00000000000E+00 0.  1.
        -11    1    3    3    0    0  0.12655102319E+03 -0.56123782488E+02  0.46598738098E+03  0.48611652890E+03  0.00000000000E+00 0. -1.
         22    1    1    2    0    0 -0.26530230640E+03  0.28741384870E+02 -0.29317861936E+03  0.39644051740E+03  0.00000000000E+00 0.  1.
<mgrwt>
<rscale>  0 0.11394830E+04</rscale>
<asrwt>0</asrwt>
<pdfrwt beam="1">  1        1 0.13530450E+00 0.11394830E+04</pdfrwt>
<pdfrwt beam="2">  1       -1 0.56782789E-01 0.11394830E+04</pdfrwt>
<totfact> 0.59036051E+01</totfact>
</mgrwt>
</event>
<event>
 6    1  0.1585031E-006  0.3564358E+04  0.7818608E-02  0.8098705E-01
          1   -1    0    0  501    0  0.00000000000E+00  0.00000000000E+00  0.14184137130E+04  0.14184137130E+04  0.00000000000E+00 0. -1.
         -1   -1    0    0    0  501 -0.00000000000E+00 -0.00000000000E+00 -0.22392355706E+04  0.22392355706E+04  0.00000000000E+00 0.  1.
         23    2    1    2    0    0 -0.19115505518E+03 -0.14223324431E+04  0.67169167084E+03  0.15871019004E+04  0.90293454134E+02 0.  0.
         11    1    3    3    0    0 -0.46987477211E+02 -0.66820430656E+03  0.32964579182E+03  0.74657294780E+03  0.00000000000E+00 0. -1.
        -11    1    3    3    0    0 -0.14416757796E+03 -0.75412813651E+03  0.34204587902E+03  0.84052895260E+03  0.00000000000E+00 0.  1.
         22    1    1    2    0    0  0.19115505518E+03  0.14223324431E+04 -0.14925135284E+04  0.20705473832E+04  0.00000000000E+00 0.  1.
<mgrwt>
<rscale>  0 0.35643583E+04</rscale>
<asrwt>0</asrwt>
<pdfrwt beam="1">  1        1 0.21821750E+00 0.35643583E+04</pdfrwt>
<pdfrwt beam="2">  1       -1 0.34449778E+00 0.35643583E+04</pdfrwt>
<totfact> 0.10221332E-01</totfact>
</mgrwt>
</event>
<event>
 6    1  0.1585031E-006  0.3055656E+04  0.7818608E-02  0.8228014E-01
         -2   -1    0    0    0  501 -0.00000000000E+00  0.00000000000E+00  0.20776052222E+04  0.20776052222E+04  0.00000000000E+00 0.  1.
          2   -1    0    0  501    0  0.00000000000E+00 -0.00000000000E+00 -0.11235332455E+04  0.11235332455E+04  0.00000000000E+00 0. -1.
         23    2    1    2    0    0  0.81234685611E+03 -0.12177437638E+04  0.93062226553E+03  0.17371175737E+04  0.93340102729E+02 0.  0.
         11    1    3    3    0    0  0.27641888102E+03 -0.34077327363E+03  0.26362768080E+03  0.51189195724E+03  0.00000000000E+00 0. -1.
        -11    1    3    3    0    0  0.53592797510E+03 -0.87697049021E+03  0.66699458473E+03  0.12252256165E+04  0.00000000000E+00 0.  1.
         22    1    1    2    0    0 -0.81234685611E+03  0.12177437638E+04  0.23449711207E+02  0.14640208940E+04  0.00000000000E+00 0.  1.
<mgrwt>
<rscale>  0 0.30556561E+04</rscale>
<asrwt>0</asrwt>
<pdfrwt beam="1">  1        2 0.17285127E+00 0.30556561E+04</pdfrwt>
<pdfrwt beam="2">  1       -2 0.31963157E+00 0.30556561E+04</pdfrwt>
<totfact> 0.43212349E-01</totfact>
</mgrwt>
</event>
<event>
 6    1  0.1585031E-006  0.3841048E+04  0.7818608E-02  0.8037403E-01
          2   -1    0    0  501    0  0.00000000000E+00  0.00000000000E+00  0.30686962522E+04  0.30686962522E+04  0.00000000000E+00 0.  1.
         -2   -1    0    0    0  501 -0.00000000000E+00 -0.00000000000E+00 -0.12019473992E+04  0.12019473992E+04  0.00000000000E+00 0. -1.
         23    2    1    2    0    0 -0.13671235926E+03 -0.18946531969E+03  0.30522337180E+04  0.30623548857E+04  0.85436526170E+02 0.  0.
         13    1    3    3    0    0 -0.65192973325E+02 -0.12472200070E+03  0.13309230444E+04  0.13383429498E+04  0.00000000000E+00 0. -1.
        -13    1    3    3    0    0 -0.71519385938E+02 -0.64743318984E+02  0.17213106736E+04  0.17240119358E+04  0.00000000000E+00 0.  1.
         22    1    1    2    0    0  0.13671235926E+03  0.18946531969E+03 -0.11854848650E+04  0.12082887658E+04  0.00000000000E+00 0. -1.
<mgrwt>
<rscale>  0 0.38410475E+04</rscale>
<asrwt>0</asrwt>
<pdfrwt beam="1">  1        2 0.47210711E+00 0.38410475E+04</pdfrwt>
<pdfrwt beam="2">  1       -2 0.18491499E+00 0.38410475E+04</pdfrwt>
<totfact> 0.21108950E-01</totfact>
</mgrwt>
</event>
<event>
 6    1  0.1585031E-006  0.4896653E+04  0.7818608E-02  0.7844650E-01
          1   -1    0    0  501    0  0.00000000000E+00  0.00000000000E+00  0.31519127964E+04  0.31519127964E+04  0.00000000000E+00 0. -1.
         -1   -1    0    0    0  501 -0.00000000000E+00 -0.00000000000E+00 -0.19017984502E+04  0.19017984502E+04  0.00000000000E+00 0.  1.
         23    2    1    2    0    0  0.46395683010E+03  0.23051968293E+04 -0.74873097823E+02  0.23546780699E+04  0.98562011222E+02 0.  0.
         13    1    3    3    0    0  0.17434755115E+03  0.82031253646E+03 -0.73081145179E+02  0.84181386295E+03  0.00000000000E+00 0.  1.
        -13    1    3    3    0    0  0.28960927895E+03  0.14848842928E+04 -0.17919526434E+01  0.15128642069E+04  0.00000000000E+00 0. -1.
         22    1    1    2    0    0 -0.46395683010E+03 -0.23051968293E+04  0.13249874440E+04  0.26990331767E+04  0.00000000000E+00 0. -1.
<mgrwt>
<rscale>  0 0.48966531E+04</rscale>
<asrwt>0</asrwt>
<pdfrwt beam="1">  1        1 0.48490966E+00 0.48966531E+04</pdfrwt>
<pdfrwt beam="2">  1       -1 0.29258438E+00 0.48966531E+04</pdfrwt>
<totfact> 0.12395633E-02</totfact>
</mgrwt>
</event>
<event>
 6    1  0.1585031E-006  0.1617560E+04  0.7818608E-02  0.8809832E-01
         -2   -1    0    0    0  501 -0.00000000000E+00  0.00000000000E+00  0.15681127346E+03  0.15681127346E+03  0.00000000000E+00 0.  1.
          2   -1    0    0  501    0  0.00000000000E+00 -0.00000000000E+00 -0.41714149580E+04  0.41714149580E+04  0.00000000000E+00 0. -1.
         23    2    1    2    0    0  0.55182332779E+03 -0.23804998836E+03 -0.34516446019E+04  0.35047581320E+04  0.91117091192E+02 0.  0.
         11    1    3    3    0    0  0.27382588118E+03 -0.10156558970E+03 -0.19237470368E+04  0.19457900308E+04  0.00000000000E+00 0. -1.
        -11    1    3    3    0    0  0.27799744661E+03 -0.13648439867E+03 -0.15278975650E+04  0.15589681012E+04  0.00000000000E+00 0.  1.
         22    1    1    2    0    0 -0.55182332779E+03  0.23804998836E+03 -0.56295908268E+03  0.82346809946E+03  0.00000000000E+00 0.  1.
<mgrwt>
<rscale>  0 0.16175598E+04</rscale>
<asrwt>0</asrwt>
<pdfrwt beam="1">  1        2 0.64175614E+00 0.16175598E+04</pdfrwt>
<pdfrwt beam="2">  1       -2 0.24124812E-01 0.16175598E+04</pdfrwt>
<totfact> 0.36906697E+00</totfact>
</mgrwt>
</event>
<event>
 6    1  0.1585031E-006  0.3255584E+04  0.7818608E-02  0.8174290E-01
          2   -1    0    0  501    0  0.00000000000E+00  0.00000000000E+00  0.11642347928E+04  0.11642347928E+04  0.00000000000E+00 0. -1.
         -2   -1    0    0    0  501 -0.00000000000E+00 -0.00000000000E+00 -0.22759214345E+04  0.22759214345E+04  0.00000000000E+00 0.  1.
         23    2    1    2    0    0  0.80189863966E+03 -0.14148031554E+04 -0.52571691285E+03  0.17115527678E+04  0.91242576790E+02 0.  0.
         11    1    3    3    0    0  0.42536182087E+03 -0.80725006974E+03 -0.25733031558E+03  0.94805287040E+03  0.00000000000E+00 0.  1.
        -11    1    3    3    0    0  0.37653681879E+03 -0.60755308564E+03 -0.26838659727E+03  0.76349989743E+03  0.00000000000E+00 0. -1.
         22    1    1    2    0    0 -0.80189863966E+03  0.14148031554E+04 -0.58596972889E+03  0.17286034594E+04  0.00000000000E+00 0.  1.
<mgrwt>
<rscale>  0 0.32555841E+04</rscale>
<asrwt>0</asrwt>
<pdfrwt beam="1">  1        2 0.17911304E+00 0.32555841E+04</pdfrwt>
<pdfrwt beam="2">  1       -2 0.35014176E+00 0.32555841E+04</pdfrwt>
<totfact> 0.25891872E-01</totfact>
</mgrwt>
</event>
<event>
 6    1  0.1585031E-006  0.1211822E+04  0.7818608E-02  0.9102572E-01
          1   -1    0    0  501    0  0.00000000000E+00  0.00000000000E+00  0.14696003702E+04  0.14696003702E+04  0.00000000000E+00 0. -1.
         -1   -1    0    0    0  501 -0.00000000000E+00 -0.00000000000E+00 -0.24981476596E+03  0.24981476596E+03  0.00000000000E+00 0.  1.
         23    2    1    2    0    0  0.40969882900E+03 -0.41506089119E+03  0.39867837849E+03  0.71226780332E+03  0.90842172396E+02 0.  0.
         13    1    3    3    0    0  0.97219532370E+02 -0.48762246802E+02  0.73703767205E+02  0.13138355867E+03  0.00000000000E+00 0. -1.
        -13    1    3    3    0    0  0.31247929663E+03 -0.36629864439E+03  0.32497461129E+03  0.58088424465E+03  0.00000000000E+00 0.  1.
         22    1    1    2    0    0 -0.40969882900E+03  0.41506089119E+03  0.82110722571E+03  0.10071473328E+04  0.00000000000E+00 0. -1.
<mgrwt>
<rscale>  0 0.12118216E+04</rscale>
<asrwt>0</asrwt>
<pdfrwt beam="1">  1        1 0.22609236E+00 0.12118216E+04</pdfrwt>
<pdfrwt beam="2">  1       -1 0.38433042E-01 0.12118216E+04</pdfrwt>
<totfact> 0.44487907E+01</totfact>
</mgrwt>
</event>
<event>
 6    1  0.1585031E-006  0.2104366E+04  0.7818608E-02  0.8559322E-01
          2   -1    0    0  501    0  0.00000000000E+00  0.00000000000E+00  0.15540145959E+04  0.15540145959E+04  0.00000000000E+00 0. -1.
         -2   -1    0    0    0  501 -0.00000000000E+00 -0.00000000000E+00 -0.71240616461E+03  0.71240616461E+03  0.00000000000E+00 0.  1.
         23    2    1    2    0    0 -0.29525281108E+03  0.73330060853E+03  0.11662549554E+04  0.14118452106E+04  0.90842021463E+02 0.  0.
         13    1    3    3    0    0 -0.20233153669E+03  0.38872119116E+03  0.66987690017E+03  0.80048565045E+03  0.00000000000E+00 0.  1.
        -13    1    3    3    0    0 -0.92921274387E+02  0.34457941737E+03  0.49637805524E+03  0.61135956018E+03  0.00000000000E+00 0. -1.
         22    1    1    2    0    0  0.29525281108E+03 -0.73330060853E+03 -0.32464652408E+03  0.85457554992E+03  0.00000000000E+00 0. -1.
<mgrwt>
<rscale>  0 0.21043665E+04</rscale>
<asrwt>0</asrwt>
<pdfrwt beam="1">  1        2 0.23907917E+00 0.21043665E+04</pdfrwt>
<pdfrwt beam="2">  1       -2 0.10960095E+00 0.21043665E+04</pdfrwt>
<totfact> 0.72271820E+00</totfact>
</mgrwt>
</event>
<event>
 6    1  0.1585031E-006  0.2089561E+04  0.7818608E-02  0.8565856E-01
         -1   -1    0    0    0  501 -0.00000000000E+00  0.00000000000E+00  0.69467897033E+03  0.69467897033E+03  0.00000000000E+00 0.  1.
          1   -1    0    0  501    0  0.00000000000E+00 -0.00000000000E+00 -0.15713246811E+04  0.15713246811E+04  0.00000000000E+00 0. -1.
         23    2    1    2    0    0  0.95189686336E+02 -0.28188034542E+03 -0.15229652504E+04  0.15544936003E+04  0.92247460383E+02 0.  0.
         11    1    3    3    0    0 -0.96808490792E+01 -0.10767064071E+03 -0.54165169909E+03  0.55233436326E+03  0.00000000000E+00 0.  1.
        -11    1    3    3    0    0  0.10487053542E+03 -0.17420970471E+03 -0.98131355130E+03  0.10021592370E+04  0.00000000000E+00 0. -1.
         22    1    1    2    0    0 -0.95189686336E+02  0.28188034542E+03  0.64631953964E+03  0.71151005111E+03  0.00000000000E+00 0.  1.
<mgrwt>
<rscale>  0 0.20895609E+04</rscale>
<asrwt>0</asrwt>
<pdfrwt beam="1">  1        1 0.24174226E+00 0.20895609E+04</pdfrwt>
<pdfrwt beam="2">  1       -1 0.10687369E+00 0.20895609E+04</pdfrwt>
<totfact> 0.43905997E+00</totfact>
</mgrwt>
</event>
<event>
 6    1  0.1585031E-006  0.1257554E+04  0.7818608E-02  0.9063919E-01
         -1   -1    0    0    0  501 -0.00000000000E+00  0.00000000000E+00  0.52654076871E+03  0.52654076871E+03  0.00000000000E+00 0.  1.
          1   -1    0    0  501    0  0.00000000000E+00 -0.00000000000E+00 -0.75086416238E+03  0.75086416238E+03  0.00000000000E+00 0. -1.
         23    2    1    2    0    0 -0.30462359297E+03 -0.22838237802E+03  0.39130956930E+03  0.55355550677E+03  0.91359050291E+02 0.  0.
         11    1    3    3    0    0 -0.11130142660E+03 -0.33019890407E+02  0.10250840858E+03  0.15487509340E+03  0.00000000000E+00 0. -1.
        -11    1    3    3    0    0 -0.19332216637E+03 -0.19536248761E+03  0.28880116073E+03  0.39868041338E+03  0.00000000000E+00 0.  1.
         22    1    1    2    0    0  0.30462359297E+03  0.22838237802E+03 -0.61563296297E+03  0.72384942432E+03  0.00000000000E+00 0. -1.
<mgrwt>
<rscale>  0 0.12575541E+04</rscale>
<asrwt>0</asrwt>
<pdfrwt beam="1">  1        1 0.11551756E+00 0.12575541E+04</pdfrwt>
<pdfrwt beam="2">  1       -1 0.81006272E-01 0.12575541E+04</pdfrwt>
<totfact> 0.36614236E+01</totfact>
</mgrwt>
</event>
<event>
 6    1  0.1585031E-006  0.2250383E+04  0.7818608E-02  0.8497745E-01
         -1   -1    0    0    0  501 -0.00000000000E+00  0.00000000000E+00  0.65368631840E+03  0.65368631840E+03  0.00000000000E+00 0.  1.
          1   -1    0    0  501    0  0.00000000000E+00 -0.00000000000E+00 -0.19367946280E+04  0.19367946280E+04  0.00000000000E+00 0. -1.
         23    2    1    2    0    0 -0.75291038612E+03  0.61156000773E+03  0.99205146766E+01  0.97406415826E+03  0.88447019284E+02 0.  0.
         13    1    3    3    0    0 -0.50473668150E+03  0.43752046510E+03  0.41795100036E+02  0.66927580669E+03  0.00000000000E+00 0. -1.
        -13    1    3    3    0    0 -0.24817370462E+03  0.17403954264E+03 -0.31874585359E+02  0.30478835158E+03  0.00000000000E+00 0.  1.
         22    1    1    2    0    0  0.75291038612E+03 -0.61156000773E+03 -0.12930288243E+04  0.16164167881E+04  0.00000000000E+00 0. -1.
<mgrwt>
<rscale>  0 0.22503832E+04</rscale>
<asrwt>0</asrwt>
<pdfrwt beam="1">  1        1 0.29796840E+00 0.22503832E+04</pdfrwt>
<pdfrwt beam="2">  1       -1 0.10056713E+00 0.22503832E+04</pdfrwt>
<totfact> 0.28087983E+00</totfact>
</mgrwt>
</event>
<event>
 6    1  0.1585031E-006  0.3143910E+04  0.7818608E-02  0.8203790E-01
         -1   -1    0    0    0  501 -0.00000000000E+00  0.00000000000E+00  0.17371231414E+04  0.17371231414E+04  0.00000000000E+00 0.  1.
          1   -1    0    0  501    0  0.00000000000E+00 -0.00000000000E+00 -0.14224911943E+04  0.14224911943E+04  0.00000000000E+00 0. -1.
         23    2    1    2    0    0  0.25482412695E+03 -0.45257763176E+03  0.16471072966E+04  0.17294911223E+04  0.91734657262E+02 0.  0.
         11    1    3    3    0    0  0.59558329397E+02 -0.13147957666E+03  0.33849352947E+03  0.36798361808E+03  0.00000000000E+00 0.  1.
        -11    1    3    3    0    0  0.19526579755E+03 -0.32109805509E+03  0.13086137671E+04  0.13615075042E+04  0.00000000000E+00 0. -1.
         22    1    1    2    0    0 -0.25482412695E+03  0.45257763176E+03 -0.13324753495E+04  0.14301232134E+04  0.00000000000E+00 0. -1.
<mgrwt>
<rscale>  0 0.31439099E+04</rscale>
<asrwt>0</asrwt>
<pdfrwt beam="1">  1        1 0.21884480E+00 0.31439099E+04</pdfrwt>
<pdfrwt beam="2">  1       -1 0.26724971E+00 0.31439099E+04</pdfrwt>
<totfact> 0.33528615E-01</totfact>
</mgrwt>
</event>
<event>
 6    1  0.1585031E-006  0.1869118E+04  0.7818608E-02  0.8670383E-01
         -1   -1    0    0    0  501 -0.00000000000E+00  0.00000000000E+00  0.34932797883E+03  0.34932797883E+03  0.00000000000E+00 0.  1.
          1   -1    0    0  501    0  0.00000000000E+00 -0.00000000000E+00 -0.25002299754E+04  0.25002299754E+04  0.00000000000E+00 0. -1.
         23    2    1    2    0    0 -0.87680129981E+03  0.28957332390E+03 -0.12747353518E+04  0.15766474237E+04  0.90739475512E+02 0.  0.
         13    1    3    3    0    0 -0.49151727588E+03  0.17147304796E+03 -0.79281085607E+03  0.94844150698E+03  0.00000000000E+00 0. -1.
        -13    1    3    3    0    0 -0.38528402392E+03  0.11810027593E+03 -0.48192449571E+03  0.62820591675E+03  0.00000000000E+00 0.  1.
         22    1    1    2    0    0  0.87680129981E+03 -0.28957332390E+03 -0.87616664481E+03  0.12729105305E+04  0.00000000000E+00 0. -1.
<mgrwt>
<rscale>  0 0.18691177E+04</rscale>
<asrwt>0</asrwt>
<pdfrwt beam="1">  1        1 0.38465074E+00 0.18691177E+04</pdfrwt>
<pdfrwt beam="2">  1       -1 0.53742769E-01 0.18691177E+04</pdfrwt>
<totfact> 0.44428348E+00</totfact>
</mgrwt>
</event>
<event>
 6    1  0.1585031E-006  0.9382324E+03  0.7818608E-02  0.9379012E-01
         -1   -1    0    0    0  501 -0.00000000000E+00  0.00000000000E+00  0.74241805066E+02  0.74241805066E+02  0.00000000000E+00 0.  1.
          1   -1    0    0  501    0  0.00000000000E+00 -0.00000000000E+00 -0.29642327893E+04  0.29642327893E+04  0.00000000000E+00 0. -1.
         23    2    1    2    0    0  0.16680088796E+03  0.13573317141E+03 -0.27926686778E+04  0.28024287061E+04  0.91445496131E+02 0.  0.
         11    1    3    3    0    0  0.10866862301E+03  0.66491897955E+02 -0.11010396788E+04  0.11083854999E+04  0.00000000000E+00 0.  1.
        -11    1    3    3    0    0  0.58132264949E+02  0.69241273456E+02 -0.16916289990E+04  0.16940432062E+04  0.00000000000E+00 0. -1.
         22    1    1    2    0    0 -0.16680088796E+03 -0.13573317141E+03 -0.97322306457E+02  0.23604588829E+03  0.00000000000E+00 0.  1.
<mgrwt>
<rscale>  0 0.93823237E+03</rscale>
<asrwt>0</asrwt>
<pdfrwt beam="1">  1        1 0.45603579E+00 0.93823237E+03</pdfrwt>
<pdfrwt beam="2">  1       -1 0.11421817E-01 0.93823237E+03</pdfrwt>
<totfact> 0.33473288E+01</totfact>
</mgrwt>
</event>
<event>
 6    1  0.1585031E-006  0.1234640E+04  0.7818608E-02  0.9083065E-01
          2   -1    0    0  501    0  0.00000000000E+00  0.00000000000E+00  0.18950002548E+04  0.18950002548E+04  0.00000000000E+00 0. -1.
         -2   -1    0    0    0  501 -0.00000000000E+00 -0.00000000000E+00 -0.20109982795E+03  0.20109982795E+03  0.00000000000E+00 0.  1.
         23    2    1    2    0    0  0.30628491081E+03 -0.53186586013E+03  0.87946098194E+03  0.10762945380E+04  0.90920701314E+02 0.  0.
         11    1    3    3    0    0  0.15255679924E+03 -0.18232159133E+03  0.36537847602E+03  0.43590844268E+03  0.00000000000E+00 0. -1.
        -11    1    3    3    0    0  0.15372811157E+03 -0.34954426880E+03  0.51408250592E+03  0.64038609528E+03  0.00000000000E+00 0.  1.
         22    1    1    2    0    0 -0.30628491081E+03  0.53186586013E+03  0.81443944489E+03  0.10198055448E+04  0.00000000000E+00 0. -1.
<mgrwt>
<rscale>  0 0.12346404E+04</rscale>
<asrwt>0</asrwt>
<pdfrwt beam="1">  1        2 0.29153849E+00 0.12346404E+04</pdfrwt>
<pdfrwt beam="2">  1       -2 0.30938436E-01 0.12346404E+04</pdfrwt>
<totfact> 0.72869834E+01</totfact>
</mgrwt>
</event>
<event>
 6    1  0.1585031E-006  0.2056462E+04  0.7818608E-02  0.8580668E-01
          1   -1    0    0  501    0  0.00000000000E+00  0.00000000000E+00  0.54820622182E+03  0.54820622182E+03  0.00000000000E+00 0. -1.
         -1   -1    0    0    0  501 -0.00000000000E+00 -0.00000000000E+00 -0.19285797932E+04  0.19285797932E+04  0.00000000000E+00 0.  1.
         23    2    1    2    0    0 -0.44644691281E+03  0.83187305058E+03 -0.11757545168E+04  0.15107650133E+04  0.93191326871E+02 0.  0.
         13    1    3    3    0    0 -0.29672999457E+03  0.63714047675E+03 -0.88496644141E+03  0.11301160468E+04  0.00000000000E+00 0. -1.
        -13    1    3    3    0    0 -0.14971691824E+03  0.19473257383E+03 -0.29078807538E+03  0.38064896650E+03  0.00000000000E+00 0.  1.
         22    1    1    2    0    0  0.44644691281E+03 -0.83187305058E+03 -0.20461905457E+03  0.96602100170E+03  0.00000000000E+00 0. -1.
<mgrwt>
<rscale>  0 0.20564624E+04</rscale>
<asrwt>0</asrwt>
<pdfrwt beam="1">  1        1 0.84339420E-01 0.20564624E+04</pdfrwt>
<pdfrwt beam="2">  1       -1 0.29670458E+00 0.20564624E+04</pdfrwt>
<totfact> 0.12486758E+00</totfact>
</mgrwt>
</event>
<event>
 6    1  0.1782839E-006  0.3554578E+04  0.7818608E-02  0.8100976E-01
         -2   -1    0    0    0  501 -0.00000000000E+00  0.00000000000E+00  0.19053337430E+04  0.19053337430E+04  0.00000000000E+00 0.  1.
          2   -1    0    0  501    0  0.00000000000E+00 -0.00000000000E+00 -0.16578494130E+04  0.16578494130E+04  0.00000000000E+00 0. -1.
         23    2    1    2    0    0 -0.44102621055E+03 -0.10448468550E+04 -0.12463364829E+04  0.16876273211E+04  0.92316182416E+02 0.  0.
         11    1    3    3    0    0 -0.24873819456E+03 -0.58628264292E+03 -0.63145991971E+03  0.89684985200E+03  0.00000000000E+00 0.  1.
        -11    1    3    3    0    0 -0.19228801599E+03 -0.45856421207E+03 -0.61487656315E+03  0.79077746908E+03  0.00000000000E+00 0. -1.
         22    1    1    2    0    0  0.44102621055E+03  0.10448468550E+04  0.14938208129E+04  0.18755558349E+04  0.00000000000E+00 0.  1.
<mgrwt>
<rscale>  0 0.35545781E+04</rscale>
<asrwt>0</asrwt>
<pdfrwt beam="1">  1        2 0.25505376E+00 0.35545781E+04</pdfrwt>
<pdfrwt beam="2">  1       -2 0.29312827E+00 0.35545781E+04</pdfrwt>
<totfact> 0.29649971E-01</totfact>
</mgrwt>
</event>
<event>
 6    1  0.1585031E-006  0.1573189E+04  0.7818608E-02  0.8837190E-01
         -2   -1    0    0    0  501 -0.00000000000E+00  0.00000000000E+00  0.36260582392E+03  0.36260582392E+03  0.00000000000E+00 0.  1.
          2   -1    0    0  501    0  0.00000000000E+00 -0.00000000000E+00 -0.17063466420E+04  0.17063466420E+04  0.00000000000E+00 0. -1.
         23    2    1    2    0    0 -0.71799303313E+03 -0.18269105623E+03 -0.10113620433E+04  0.12569391239E+04  0.90292640628E+02 0.  0.
         13    1    3    3    0    0 -0.18502683110E+03 -0.10487474642E+02 -0.22490149250E+03  0.29141996616E+03  0.00000000000E+00 0. -1.
        -13    1    3    3    0    0 -0.53296620203E+03 -0.17220358159E+03 -0.78646055076E+03  0.96551915772E+03  0.00000000000E+00 0.  1.
         22    1    1    2    0    0  0.71799303313E+03  0.18269105623E+03 -0.33237877477E+03  0.81201334199E+03  0.00000000000E+00 0. -1.
<mgrwt>
<rscale>  0 0.15731894E+04</rscale>
<asrwt>0</asrwt>
<pdfrwt beam="1">  1        2 0.26251487E+00 0.15731894E+04</pdfrwt>
<pdfrwt beam="2">  1       -2 0.55785511E-01 0.15731894E+04</pdfrwt>
<totfact> 0.28209844E+01</totfact>
</mgrwt>
</event>
<event>
 6    1  0.1585031E-006  0.1537997E+04  0.7818608E-02  0.8859571E-01
          1   -1    0    0  501    0  0.00000000000E+00  0.00000000000E+00  0.27529485625E+04  0.27529485625E+04  0.00000000000E+00 0. -1.
         -1   -1    0    0    0  501 -0.00000000000E+00 -0.00000000000E+00 -0.21480933773E+03  0.21480933773E+03  0.00000000000E+00 0.  1.
         23    2    1    2    0    0 -0.66151251616E+03 -0.32591810123E+03  0.87059117296E+03  0.11444263553E+04  0.89225974068E+02 0.  0.
         11    1    3    3    0    0 -0.65545375201E+03 -0.32595525573E+03  0.87166463797E+03  0.11382731179E+04  0.00000000000E+00 0. -1.
        -11    1    3    3    0    0 -0.60587641435E+01  0.37154504754E-01 -0.10734650064E+01  0.61532374019E+01  0.00000000000E+00 0.  1.
         22    1    1    2    0    0  0.66151251616E+03  0.32591810123E+03  0.16675480518E+04  0.18233315450E+04  0.00000000000E+00 0. -1.
<mgrwt>
<rscale>  0 0.15379975E+04</rscale>
<asrwt>0</asrwt>
<pdfrwt beam="1">  1        1 0.42353052E+00 0.15379975E+04</pdfrwt>
<pdfrwt beam="2">  1       -1 0.33047592E-01 0.15379975E+04</pdfrwt>
<totfact> 0.74935234E+00</totfact>
</mgrwt>
</event>
<event>
 6    1  0.1585031E-006  0.3343642E+04  0.7818608E-02  0.8151879E-01
          1   -1    0    0  501    0  0.00000000000E+00  0.00000000000E+00  0.22984529243E+04  0.22984529243E+04  0.00000000000E+00 0. -1.
         -1   -1    0    0    0  501 -0.00000000000E+00 -0.00000000000E+00 -0.12160289281E+04  0.12160289281E+04  0.00000000000E+00 0.  1.
         23    2    1    2    0    0  0.28690632989E+03 -0.12417214759E+04  0.16770543763E+04  0.21081487642E+04  0.87134179591E+02 0.  0.
         13    1    3    3    0    0  0.25120432709E+03 -0.99853566635E+03  0.13984813858E+04  0.17366425301E+04  0.00000000000E+00 0.  1.
        -13    1    3    3    0    0  0.35702002798E+02 -0.24318580953E+03  0.27857299053E+03  0.37150623415E+03  0.00000000000E+00 0. -1.
         22    1    1    2    0    0 -0.28690632989E+03  0.12417214759E+04 -0.59463038009E+03  0.14063330881E+04  0.00000000000E+00 0.  1.
<mgrwt>
<rscale>  0 0.33436419E+04</rscale>
<asrwt>0</asrwt>
<pdfrwt beam="1">  1        1 0.35360814E+00 0.33436419E+04</pdfrwt>
<pdfrwt beam="2">  1       -1 0.18708137E+00 0.33436419E+04</pdfrwt>
<totfact> 0.28569782E-01</totfact>
</mgrwt>
</event>
<event>
 6    1  0.1585031E-006  0.3095266E+04  0.7818608E-02  0.8217038E-01
          2   -1    0    0  501    0  0.00000000000E+00  0.00000000000E+00  0.25604938869E+04  0.25604938869E+04  0.00000000000E+00 0. -1.
         -2   -1    0    0    0  501 -0.00000000000E+00 -0.00000000000E+00 -0.93543204452E+03  0.93543204452E+03  0.00000000000E+00 0.  1.
         23    2    1    2    0    0  0.93597602794E+03 -0.12308434424E+04  0.81329706135E+03  0.17495042285E+04  0.91028737349E+02 0.  0.
         11    1    3    3    0    0  0.43656954364E+03 -0.50241944246E+03  0.33580618662E+03  0.74550926055E+03  0.00000000000E+00 0. -1.
        -11    1    3    3    0    0  0.49940648430E+03 -0.72842399995E+03  0.47749087473E+03  0.10039949680E+04  0.00000000000E+00 0.  1.
         22    1    1    2    0    0 -0.93597602794E+03  0.12308434424E+04  0.81176478103E+03  0.17464217029E+04  0.00000000000E+00 0.  1.
<mgrwt>
<rscale>  0 0.30952661E+04</rscale>
<asrwt>0</asrwt>
<pdfrwt beam="1">  1        2 0.39392213E+00 0.30952661E+04</pdfrwt>
<pdfrwt beam="2">  1       -2 0.14391262E+00 0.30952661E+04</pdfrwt>
<totfact> 0.91094491E-01</totfact>
</mgrwt>
</event>
<event>
 6    1  0.1585031E-006  0.2332963E+04  0.7818608E-02  0.8465036E-01
          2   -1    0    0  501    0  0.00000000000E+00  0.00000000000E+00  0.55265808305E+03  0.55265808305E+03  0.00000000000E+00 0. -1.
         -2   -1    0    0    0  501 -0.00000000000E+00 -0.00000000000E+00 -0.24620634391E+04  0.24620634391E+04  0.00000000000E+00 0.  1.
         23    2    1    2    0    0 -0.42663961531E+03 -0.36646342607E+03 -0.22740572930E+04  0.23444321525E+04  0.93320640748E+02 0.  0.
         11    1    3    3    0    0 -0.21330559070E+03 -0.12241909645E+03 -0.99260042531E+03  0.10226149395E+04  0.00000000000E+00 0.  1.
        -11    1    3    3    0    0 -0.21333402461E+03 -0.24404432962E+03 -0.12814568676E+04  0.13218172130E+04  0.00000000000E+00 0. -1.
         22    1    1    2    0    0  0.42663961531E+03  0.36646342607E+03  0.36465193690E+03  0.67028936966E+03  0.00000000000E+00 0. -1.
<mgrwt>
<rscale>  0 0.23329631E+04</rscale>
<asrwt>0</asrwt>
<pdfrwt beam="1">  1        2 0.85024320E-01 0.23329631E+04</pdfrwt>
<pdfrwt beam="2">  1       -2 0.37877899E+00 0.23329631E+04</pdfrwt>
<totfact> 0.50514099E-01</totfact>
</mgrwt>
</event>
<event>
 6    1  0.1585031E-006  0.1589427E+04  0.7818608E-02  0.8827070E-01
         -2   -1    0    0    0  501 -0.00000000000E+00  0.00000000000E+00  0.43730152899E+03  0.43730152899E+03  0.00000000000E+00 0. -1.
          2   -1    0    0  501    0  0.00000000000E+00 -0.00000000000E+00 -0.14442426677E+04  0.14442426677E+04  0.00000000000E+00 0.  1.
         23    2    1    2    0    0  0.22897001237E+03 -0.52989431881E+03  0.13559682694E+03  0.60146284826E+03  0.10077600253E+03 0.  0.
         11    1    3    3    0    0  0.67807775449E+02 -0.23348906434E+03  0.97407840565E+02  0.26192236441E+03  0.00000000000E+00 0. -1.
        -11    1    3    3    0    0  0.16116223692E+03 -0.29640525447E+03  0.38188986376E+02  0.33954048385E+03  0.00000000000E+00 0.  1.
         22    1    1    2    0    0 -0.22897001237E+03  0.52989431881E+03 -0.11425379657E+04  0.12800813485E+04  0.00000000000E+00 0.  1.
<mgrwt>
<rscale>  0 0.15894270E+04</rscale>
<asrwt>0</asrwt>
<pdfrwt beam="1">  1        2 0.22219117E+00 0.15894270E+04</pdfrwt>
<pdfrwt beam="2">  1       -2 0.67277160E-01 0.15894270E+04</pdfrwt>
<totfact> 0.26552560E+01</totfact>
</mgrwt>
</event>
<event>
 6    1  0.1585031E-006  0.9774938E+03  0.7818608E-02  0.9333580E-01
         -1   -1    0    0    0  501 -0.00000000000E+00  0.00000000000E+00  0.33741023945E+03  0.33741023945E+03  0.00000000000E+00 0.  1.
          1   -1    0    0  501    0  0.00000000000E+00 -0.00000000000E+00 -0.70796170298E+03  0.70796170298E+03  0.00000000000E+00 0. -1.
         23    2    1    2    0    0 -0.19605009398E+03 -0.27199685615E+03 -0.56099009877E+03  0.65977525819E+03  0.90418865794E+02 0.  0.
         13    1    3    3    0    0 -0.97951662711E+02 -0.20810914869E+03 -0.38196265939E+03  0.44586928484E+03  0.00000000000E+00 0. -1.
        -13    1    3    3    0    0 -0.98098431265E+02 -0.63887707460E+02 -0.17902743938E+03  0.21390597335E+03  0.00000000000E+00 0.  1.
         22    1    1    2    0    0  0.19605009398E+03  0.27199685615E+03  0.19043863524E+03  0.38559668424E+03  0.00000000000E+00 0.  1.
<mgrwt>
<rscale>  0 0.97749379E+03</rscale>
<asrwt>0</asrwt>
<pdfrwt beam="1">  1        1 0.10891718E+00 0.97749379E+03</pdfrwt>
<pdfrwt beam="2">  1       -1 0.51909268E-01 0.97749379E+03</pdfrwt>
<totfact> 0.10041014E+02</totfact>
</mgrwt>
</event>
<event>
 6    1  0.1585031E-006  0.2984361E+04  0.7818608E-02  0.8248211E-01
          1   -1    0    0  501    0  0.00000000000E+00  0.00000000000E+00  0.18915679405E+04  0.18915679405E+04  0.00000000000E+00 0. -1.
         -1   -1    0    0    0  501 -0.00000000000E+00 -0.00000000000E+00 -0.11771202538E+04  0.11771202538E+04  0.00000000000E+00 0.  1.
         23    2    1    2    0    0  0.68913625531E+03 -0.33508955898E+03  0.16726832366E+04  0.18417370299E+04  0.83260353323E+02 0.  0.
         13    1    3    3    0    0  0.36716718763E+03 -0.21482108525E+03  0.86394196490E+03  0.96299302233E+03  0.00000000000E+00 0. -1.
        -13    1    3    3    0    0  0.32196906769E+03 -0.12026847373E+03  0.80874127168E+03  0.87874400757E+03  0.00000000000E+00 0.  1.
         22    1    1    2    0    0 -0.68913625531E+03  0.33508955898E+03 -0.95823554989E+03  0.12269511645E+04  0.00000000000E+00 0.  1.
<mgrwt>
<rscale>  0 0.29843612E+04</rscale>
<asrwt>0</asrwt>
<pdfrwt beam="1">  1        1 0.29101045E+00 0.29843612E+04</pdfrwt>
<pdfrwt beam="2">  1       -1 0.18109542E+00 0.29843612E+04</pdfrwt>
<totfact> 0.61488160E-01</totfact>
</mgrwt>
</event>
<event>
 6    1  0.1585031E-006  0.1299997E+04  0.7818608E-02  0.9029568E-01
         -2   -1    0    0    0  501 -0.00000000000E+00  0.00000000000E+00  0.57243040463E+03  0.57243040463E+03  0.00000000000E+00 0.  1.
          2   -1    0    0  501    0  0.00000000000E+00 -0.00000000000E+00 -0.73807751863E+03  0.73807751863E+03  0.00000000000E+00 0. -1.
         23    2    1    2    0    0  0.27404691784E+03 -0.48300932840E+03  0.25103567067E+03  0.61622824795E+03  0.91206475216E+02 0.  0.
         13    1    3    3    0    0  0.14842750310E+03 -0.26144986254E+03  0.85863075595E+02  0.31266471187E+03  0.00000000000E+00 0. -1.
        -13    1    3    3    0    0  0.12561941473E+03 -0.22155946587E+03  0.16517259508E+03  0.30356353608E+03  0.00000000000E+00 0.  1.
         22    1    1    2    0    0 -0.27404691784E+03  0.48300932840E+03 -0.41668278468E+03  0.69427967531E+03  0.00000000000E+00 0. -1.
<mgrwt>
<rscale>  0 0.12999969E+04</rscale>
<asrwt>0</asrwt>
<pdfrwt beam="1">  1        2 0.11355039E+00 0.12999969E+04</pdfrwt>
<pdfrwt beam="2">  1       -2 0.88066216E-01 0.12999969E+04</pdfrwt>
<totfact> 0.41711394E+01</totfact>
</mgrwt>
</event>
<event>
 6    1  0.1585031E-006  0.3913856E+04  0.7818608E-02  0.8022154E-01
          2   -1    0    0  501    0  0.00000000000E+00  0.00000000000E+00  0.47536997722E+04  0.47536997722E+04  0.00000000000E+00 0. -1.
         -2   -1    0    0    0  501 -0.00000000000E+00 -0.00000000000E+00 -0.80559734899E+03  0.80559734899E+03  0.00000000000E+00 0.  1.
         23    2    1    2    0    0  0.83000342861E+03 -0.81220935031E+03  0.42105854469E+04  0.43687144664E+04  0.89702638852E+02 0.  0.
         11    1    3    3    0    0  0.55072922873E+03 -0.47862748629E+03  0.26565365800E+04  0.27549180668E+04  0.00000000000E+00 0.  1.
        -11    1    3    3    0    0  0.27927419988E+03 -0.33358186401E+03  0.15540488668E+04  0.16137963996E+04  0.00000000000E+00 0. -1.
         22    1    1    2    0    0 -0.83000342861E+03  0.81220935031E+03 -0.26248302363E+03  0.11905826548E+04  0.00000000000E+00 0.  1.
<mgrwt>
<rscale>  0 0.39138564E+04</rscale>
<asrwt>0</asrwt>
<pdfrwt beam="1">  1        2 0.73133841E+00 0.39138564E+04</pdfrwt>
<pdfrwt beam="2">  1       -2 0.12393806E+00 0.39138564E+04</pdfrwt>
<totfact> 0.25863276E-02</totfact>
</mgrwt>
</event>
<event>
 6    1  0.1585031E-006  0.2470854E+04  0.7818608E-02  0.8413443E-01
         -1   -1    0    0    0  501 -0.00000000000E+00  0.00000000000E+00  0.13173718522E+04  0.13173718522E+04  0.00000000000E+00 0.  1.
          1   -1    0    0  501    0  0.00000000000E+00 -0.00000000000E+00 -0.11585791411E+04  0.11585791411E+04  0.00000000000E+00 0. -1.
         23    2    1    2    0    0 -0.69397474192E+03  0.99453182296E+03  0.30630345765E+03  0.12542906847E+04  0.93428177009E+02 0.  0.
         11    1    3    3    0    0 -0.55187205706E+03  0.84383744701E+03  0.23570627789E+03  0.10354621450E+04  0.00000000000E+00 0. -1.
        -11    1    3    3    0    0 -0.14210268487E+03  0.15069437594E+03  0.70597179754E+02  0.21882853968E+03  0.00000000000E+00 0.  1.
         22    1    1    2    0    0  0.69397474192E+03 -0.99453182296E+03 -0.14751074653E+03  0.12216603086E+04  0.00000000000E+00 0. -1.
<mgrwt>
<rscale>  0 0.24708537E+04</rscale>
<asrwt>0</asrwt>
<pdfrwt beam="1">  1        1 0.17824294E+00 0.24708537E+04</pdfrwt>
<pdfrwt beam="2">  1       -1 0.20267259E+00 0.24708537E+04</pdfrwt>
<totfact> 0.14728390E+00</totfact>
</mgrwt>
</event>
<event>
 6    1  0.1585031E-006  0.1478315E+04  0.7818608E-02  0.8899002E-01
         -2   -1    0    0    0  501 -0.00000000000E+00  0.00000000000E+00  0.51869004733E+03  0.51869004733E+03  0.00000000000E+00 0.  1.
          2   -1    0    0  501    0  0.00000000000E+00 -0.00000000000E+00 -0.10533344948E+04  0.10533344948E+04  0.00000000000E+00 0. -1.
         23    2    1    2    0    0  0.53281605328E+03 -0.37100060378E+03  0.10154954005E+03  0.66302664094E+03  0.88077368707E+02 0.  0.
         13    1    3    3    0    0  0.14311079346E+03 -0.13695670626E+03  0.41699510043E+01  0.19812931910E+03  0.00000000000E+00 0. -1.
        -13    1    3    3    0    0  0.38970525982E+03 -0.23404389752E+03  0.97379589042E+02  0.46489732185E+03  0.00000000000E+00 0.  1.
         22    1    1    2    0    0 -0.53281605328E+03  0.37100060378E+03 -0.63619398756E+03  0.90899790123E+03  0.00000000000E+00 0.  1.
<mgrwt>
<rscale>  0 0.14783154E+04</rscale>
<asrwt>0</asrwt>
<pdfrwt beam="1">  1        2 0.16205146E+00 0.14783154E+04</pdfrwt>
<pdfrwt beam="2">  1       -2 0.79798469E-01 0.14783154E+04</pdfrwt>
<totfact> 0.31347256E+01</totfact>
</mgrwt>
</event>
<event>
 6    1  0.1585031E-006  0.2773063E+04  0.7818608E-02  0.8311680E-01
          1   -1    0    0  501    0  0.00000000000E+00  0.00000000000E+00  0.22292597423E+04  0.22292597423E+04  0.00000000000E+00 0. -1.
         -1   -1    0    0    0  501 -0.00000000000E+00 -0.00000000000E+00 -0.86238026460E+03  0.86238026460E+03  0.00000000000E+00 0.  1.
         23    2    1    2    0    0 -0.13074148488E+04 -0.45534816693E+03  0.73386747953E+03  0.15693457745E+04  0.87230398611E+02 0.  0.
         13    1    3    3    0    0 -0.52931137838E+03 -0.14560224760E+03  0.31546361833E+03  0.63315704551E+03  0.00000000000E+00 0.  1.
        -13    1    3    3    0    0 -0.77810347046E+03 -0.30974591934E+03  0.41840386119E+03  0.93618872902E+03  0.00000000000E+00 0. -1.
         22    1    1    2    0    0  0.13074148488E+04  0.45534816693E+03  0.63301199819E+03  0.15222942324E+04  0.00000000000E+00 0.  1.
<mgrwt>
<rscale>  0 0.27730630E+04</rscale>
<asrwt>0</asrwt>
<pdfrwt beam="1">  1        1 0.34296303E+00 0.27730630E+04</pdfrwt>
<pdfrwt beam="2">  1       -1 0.13267389E+00 0.27730630E+04</pdfrwt>
<totfact> 0.86922353E-01</totfact>
</mgrwt>
</event>
<event>
 6    1  0.1585031E-006  0.4555437E+04  0.7818608E-02  0.7901003E-01
          2   -1    0    0  501    0  0.00000000000E+00  0.00000000000E+00  0.33151653532E+04  0.33151653532E+04  0.00000000000E+00 0. -1.
         -2   -1    0    0    0  501 -0.00000000000E+00 -0.00000000000E+00 -0.15649298017E+04  0.15649298017E+04  0.00000000000E+00 0.  1.
         23    2    1    2    0    0  0.19867508801E+04  0.72789753170E+03  0.17760657859E+04  0.27640419710E+04  0.92219660980E+02 0.  0.
         11    1    3    3    0    0  0.12695331503E+04  0.41977710389E+03  0.11045579703E+04  0.17343516213E+04  0.00000000000E+00 0. -1.
        -11    1    3    3    0    0  0.71721772974E+03  0.30812042781E+03  0.67150781555E+03  0.10296903497E+04  0.00000000000E+00 0.  1.
         22    1    1    2    0    0 -0.19867508801E+04 -0.72789753170E+03 -0.25830234380E+02  0.21160531839E+04  0.00000000000E+00 0.  1.
<mgrwt>
<rscale>  0 0.45554368E+04</rscale>
<asrwt>0</asrwt>
<pdfrwt beam="1">  1        2 0.51002544E+00 0.45554368E+04</pdfrwt>
<pdfrwt beam="2">  1       -2 0.24075843E+00 0.45554368E+04</pdfrwt>
<totfact> 0.60069674E-02</totfact>
</mgrwt>
</event>
<event>
 6    1  0.1585031E-006  0.1490855E+04  0.7818608E-02  0.8890557E-01
          1   -1    0    0  501    0  0.00000000000E+00  0.00000000000E+00  0.37195625407E+04  0.37195625407E+04  0.00000000000E+00 0. -1.
         -1   -1    0    0    0  501 -0.00000000000E+00 -0.00000000000E+00 -0.14938910424E+03  0.14938910424E+03  0.00000000000E+00 0.  1.
         23    2    1    2    0    0  0.40795041466E+03  0.60134516094E+03  0.21887652282E+04  0.23080774728E+04  0.92134970793E+02 0.  0.
         13    1    3    3    0    0  0.27724795927E+03  0.39427235586E+03  0.13109896627E+04  0.13967859597E+04  0.00000000000E+00 0. -1.
        -13    1    3    3    0    0  0.13070245540E+03  0.20707280509E+03  0.87777556550E+03  0.91129151310E+03  0.00000000000E+00 0.  1.
         22    1    1    2    0    0 -0.40795041466E+03 -0.60134516094E+03  0.13814082083E+04  0.15608741722E+04  0.00000000000E+00 0.  1.
<mgrwt>
<rscale>  0 0.14908549E+04</rscale>
<asrwt>0</asrwt>
<pdfrwt beam="1">  1        1 0.57224032E+00 0.14908549E+04</pdfrwt>
<pdfrwt beam="2">  1       -1 0.22982942E-01 0.14908549E+04</pdfrwt>
<totfact> 0.26427857E+00</totfact>
</mgrwt>
</event>
<event>
 6    1  0.1585031E-006  0.1688226E+04  0.7818608E-02  0.8768108E-01
          2   -1    0    0  501    0  0.00000000000E+00  0.00000000000E+00  0.10437732210E+04  0.10437732210E+04  0.00000000000E+00 0. -1.
         -2   -1    0    0    0  501 -0.00000000000E+00 -0.00000000000E+00 -0.68264484064E+03  0.68264484064E+03  0.00000000000E+00 0.  1.
         23    2    1    2    0    0 -0.46422646046E+03 -0.60122853811E+03 -0.18976905639E+03  0.78808446026E+03  0.89904727994E+02 0.  0.
         11    1    3    3    0    0 -0.35305366638E+03 -0.44467631611E+03 -0.10163598105E+03  0.57681347947E+03  0.00000000000E+00 0. -1.
        -11    1    3    3    0    0 -0.11117279409E+03 -0.15655222200E+03 -0.88133075342E+02  0.21127098080E+03  0.00000000000E+00 0.  1.
         22    1    1    2    0    0  0.46422646046E+03  0.60122853811E+03  0.55089743672E+03  0.93833360135E+03  0.00000000000E+00 0. -1.
<mgrwt>
<rscale>  0 0.16882256E+04</rscale>
<asrwt>0</asrwt>
<pdfrwt beam="1">  1        2 0.16058050E+00 0.16882256E+04</pdfrwt>
<pdfrwt beam="2">  1       -2 0.10502228E+00 0.16882256E+04</pdfrwt>
<totfact> 0.16531698E+01</totfact>
</mgrwt>
</event>
<event>
 6    1  0.1585031E-006  0.1445536E+04  0.7818608E-02  0.8921501E-01
          2   -1    0    0  501    0  0.00000000000E+00  0.00000000000E+00  0.62520135309E+03  0.62520135309E+03  0.00000000000E+00 0. -1.
         -2   -1    0    0    0  501 -0.00000000000E+00 -0.00000000000E+00 -0.83556087080E+03  0.83556087080E+03  0.00000000000E+00 0.  1.
         23    2    1    2    0    0  0.33913006764E+02 -0.66599969332E+03 -0.37944780247E+03  0.77279672215E+03  0.92349636904E+02 0.  0.
         13    1    3    3    0    0 -0.32420211309E+01 -0.81912735084E+02 -0.83286771774E+02  0.11686271100E+03  0.00000000000E+00 0.  1.
        -13    1    3    3    0    0  0.37155027895E+02 -0.58408695824E+03 -0.29616103070E+03  0.65593401115E+03  0.00000000000E+00 0. -1.
         22    1    1    2    0    0 -0.33913006764E+02  0.66599969332E+03  0.16908828477E+03  0.68796550174E+03  0.00000000000E+00 0. -1.
<mgrwt>
<rscale>  0 0.14455363E+04</rscale>
<asrwt>0</asrwt>
<pdfrwt beam="1">  1        2 0.96184824E-01 0.14455363E+04</pdfrwt>
<pdfrwt beam="2">  1       -2 0.12854783E+00 0.14455363E+04</pdfrwt>
<totfact> 0.20439604E+01</totfact>
</mgrwt>
</event>
<event>
 6    1  0.1585031E-006  0.5196543E+03  0.7818608E-02  0.1008772E+00
         -1   -1    0    0    0  501 -0.00000000000E+00  0.00000000000E+00  0.44278239866E+03  0.44278239866E+03  0.00000000000E+00 0.  1.
          1   -1    0    0  501    0  0.00000000000E+00 -0.00000000000E+00 -0.15246798796E+03  0.15246798796E+03  0.00000000000E+00 0. -1.
         23    2    1    2    0    0  0.16413165749E+03  0.18953328297E+03  0.12348425829E+03  0.29409533339E+03  0.91551279250E+02 0.  0.
         11    1    3    3    0    0  0.12606206294E+03  0.18550641128E+03  0.85111299974E+02  0.23989207099E+03  0.00000000000E+00 0.  1.
        -11    1    3    3    0    0  0.38069594541E+02  0.40268716825E+01  0.38372958319E+02  0.54203262394E+02  0.00000000000E+00 0. -1.
         22    1    1    2    0    0 -0.16413165749E+03 -0.18953328297E+03  0.16683015241E+03  0.30115505324E+03  0.00000000000E+00 0. -1.
<mgrwt>
<rscale>  0 0.51965428E+03</rscale>
<asrwt>0</asrwt>
<pdfrwt beam="1">  1        1 0.23456614E-01 0.51965428E+03</pdfrwt>
<pdfrwt beam="2">  1       -1 0.68120368E-01 0.51965428E+03</pdfrwt>
<totfact> 0.46919462E+02</totfact>
</mgrwt>
</event>
<event>
 6    1  0.1585031E-006  0.1386039E+04  0.7818608E-02  0.8963986E-01
         -1   -1    0    0    0  501 -0.00000000000E+00  0.00000000000E+00  0.32074431029E+03  0.32074431029E+03  0.00000000000E+00 0.  1.
          1   -1    0    0  501    0  0.00000000000E+00 -0.00000000000E+00 -0.14973807011E+04  0.14973807011E+04  0.00000000000E+00 0. -1.
         23    2    1    2    0    0 -0.55883592673E+03 -0.40074746339E+03 -0.66496519950E+03  0.96097652339E+03  0.91657184887E+02 0.  0.
         11    1    3    3    0    0 -0.32172330131E+03 -0.28401066085E+03 -0.42555371974E+03  0.60437066976E+03  0.00000000000E+00 0. -1.
        -11    1    3    3    0    0 -0.23711262542E+03 -0.11673680254E+03 -0.23941147976E+03  0.35660585363E+03  0.00000000000E+00 0.  1.
         22    1    1    2    0    0  0.55883592673E+03  0.40074746339E+03 -0.51167119127E+03  0.85714848795E+03  0.00000000000E+00 0.  1.
<mgrwt>
<rscale>  0 0.13860395E+04</rscale>
<asrwt>0</asrwt>
<pdfrwt beam="1">  1        1 0.23036625E+00 0.13860395E+04</pdfrwt>
<pdfrwt beam="2">  1       -1 0.49345280E-01 0.13860395E+04</pdfrwt>
<totfact> 0.26389876E+01</totfact>
</mgrwt>
</event>
<event>
 6    1  0.1585031E-006  0.6849606E+04  0.7818608E-02  0.7593148E-01
         -2   -1    0    0    0  501 -0.00000000000E+00  0.00000000000E+00  0.28011292083E+04  0.28011292083E+04  0.00000000000E+00 0. -1.
          2   -1    0    0  501    0  0.00000000000E+00 -0.00000000000E+00 -0.41873383739E+04  0.41873383739E+04  0.00000000000E+00 0.  1.
         23    2    1    2    0    0 -0.80868479147E+02 -0.25493987068E+04  0.16375737135E+04  0.30325560088E+04  0.93673911406E+02 0.  0.
         13    1    3    3    0    0 -0.23600427033E+01 -0.14475104546E+04  0.94787113654E+03  0.17302461610E+04  0.00000000000E+00 0.  1.
        -13    1    3    3    0    0 -0.78508436444E+02 -0.11018882522E+04  0.68970257699E+03  0.13023098478E+04  0.00000000000E+00 0. -1.
         22    1    1    2    0    0  0.80868479147E+02  0.25493987068E+04 -0.30237828791E+04  0.39559115735E+04  0.00000000000E+00 0.  1.
<mgrwt>
<rscale>  0 0.68496061E+04</rscale>
<asrwt>0</asrwt>
<pdfrwt beam="1">  1        2 0.64420590E+00 0.68496061E+04</pdfrwt>
<pdfrwt beam="2">  1       -2 0.43094296E+00 0.68496061E+04</pdfrwt>
<totfact> 0.69516214E-04</totfact>
</mgrwt>
</event>
<event>
 6    1  0.1585031E-006  0.1062786E+04  0.7818608E-02  0.9242242E-01
          1   -1    0    0  501    0  0.00000000000E+00  0.00000000000E+00  0.16238415102E+04  0.16238415102E+04  0.00000000000E+00 0. -1.
         -1   -1    0    0    0  501 -0.00000000000E+00 -0.00000000000E+00 -0.17389523690E+03  0.17389523690E+03  0.00000000000E+00 0.  1.
         23    2    1    2    0    0  0.19301459397E+03 -0.21273123328E+03 -0.17871167182E+02  0.30207727728E+03  0.91771955041E+02 0.  0.
         13    1    3    3    0    0  0.69853257054E+02 -0.11636724300E+03  0.29074607517E+02  0.13880254165E+03  0.00000000000E+00 0. -1.
        -13    1    3    3    0    0  0.12316133692E+03 -0.96363990278E+02 -0.46945774698E+02  0.16327473563E+03  0.00000000000E+00 0.  1.
         22    1    1    2    0    0 -0.19301459397E+03  0.21273123328E+03  0.14678174405E+04  0.14956594698E+04  0.00000000000E+00 0. -1.
<mgrwt>
<rscale>  0 0.10627856E+04</rscale>
<asrwt>0</asrwt>
<pdfrwt beam="1">  1        1 0.24982176E+00 0.10627856E+04</pdfrwt>
<pdfrwt beam="2">  1       -1 0.26753114E-01 0.10627856E+04</pdfrwt>
<totfact> 0.66914764E+01</totfact>
</mgrwt>
</event>
<event>
 6    1  0.1585031E-006  0.4030159E+04  0.7818608E-02  0.7998490E-01
         -2   -1    0    0    0  501 -0.00000000000E+00  0.00000000000E+00  0.18742146948E+04  0.18742146948E+04  0.00000000000E+00 0.  1.
          2   -1    0    0  501    0  0.00000000000E+00 -0.00000000000E+00 -0.21665316948E+04  0.21665316948E+04  0.00000000000E+00 0. -1.
         23    2    1    2    0    0  0.70031143231E+03  0.10611697790E+04 -0.17123797778E+04  0.21346782653E+04  0.89941040825E+02 0.  0.
         13    1    3    3    0    0  0.40871546386E+03  0.69673569435E+03 -0.10724388409E+04  0.13426146229E+04  0.00000000000E+00 0. -1.
        -13    1    3    3    0    0  0.29159596845E+03  0.36443408465E+03 -0.63994093689E+03  0.79206364238E+03  0.00000000000E+00 0.  1.
         22    1    1    2    0    0 -0.70031143231E+03 -0.10611697790E+04  0.14200627778E+04  0.19060681244E+04  0.00000000000E+00 0.  1.
<mgrwt>
<rscale>  0 0.40301591E+04</rscale>
<asrwt>0</asrwt>
<pdfrwt beam="1">  1        2 0.33331257E+00 0.40301591E+04</pdfrwt>
<pdfrwt beam="2">  1       -2 0.28834072E+00 0.40301591E+04</pdfrwt>
<totfact> 0.15895231E-01</totfact>
</mgrwt>
</event>
<event>
 6    1  0.1585031E-006  0.2707333E+04  0.7818608E-02  0.8332629E-01
          2   -1    0    0  501    0  0.00000000000E+00  0.00000000000E+00  0.20802317934E+04  0.20802317934E+04  0.00000000000E+00 0. -1.
         -2   -1    0    0    0  501 -0.00000000000E+00 -0.00000000000E+00 -0.88086984774E+03  0.88086984774E+03  0.00000000000E+00 0.  1.
         23    2    1    2    0    0  0.13048765517E+03 -0.12115003683E+04  0.12413349361E+04  0.17418715963E+04  0.91891586706E+02 0.  0.
         13    1    3    3    0    0  0.10953041012E+02 -0.45367239158E+03  0.49506902959E+03  0.67158912443E+03  0.00000000000E+00 0.  1.
        -13    1    3    3    0    0  0.11953461416E+03 -0.75782797668E+03  0.74626590655E+03  0.10702824718E+04  0.00000000000E+00 0. -1.
         22    1    1    2    0    0 -0.13048765517E+03  0.12115003683E+04 -0.41972990471E+02  0.12192300449E+04  0.00000000000E+00 0.  1.
<mgrwt>
<rscale>  0 0.27073333E+04</rscale>
<asrwt>0</asrwt>
<pdfrwt beam="1">  1        2 0.32003566E+00 0.27073333E+04</pdfrwt>
<pdfrwt beam="2">  1       -2 0.13551844E+00 0.27073333E+04</pdfrwt>
<totfact> 0.20644942E+00</totfact>
</mgrwt>
</event>
<event>
 6    1  0.1585031E-006  0.5613910E+03  0.7818608E-02  0.9988912E-01
         -2   -1    0    0    0  501 -0.00000000000E+00  0.00000000000E+00  0.33594105409E+03  0.33594105409E+03  0.00000000000E+00 0. -1.
          2   -1    0    0  501    0  0.00000000000E+00 -0.00000000000E+00 -0.23453505711E+03  0.23453505711E+03  0.00000000000E+00 0.  1.
         23    2    1    2    0    0 -0.26926727461E+02  0.13943078247E+03 -0.18493899061E+03  0.25085220147E+03  0.92511647843E+02 0.  0.
         11    1    3    3    0    0 -0.41672438677E+02  0.16200846337E+02 -0.39528584816E+02  0.59678878884E+02  0.00000000000E+00 0. -1.
        -11    1    3    3    0    0  0.14745711215E+02  0.12322993613E+03 -0.14541040579E+03  0.19117332259E+03  0.00000000000E+00 0.  1.
         22    1    1    2    0    0  0.26926727461E+02 -0.13943078247E+03  0.28634498759E+03  0.31962390973E+03  0.00000000000E+00 0. -1.
<mgrwt>
<rscale>  0 0.56139097E+03</rscale>
<asrwt>0</asrwt>
<pdfrwt beam="1">  1        2 0.36082317E-01 0.56139097E+03</pdfrwt>
<pdfrwt beam="2">  1       -2 0.51683239E-01 0.56139097E+03</pdfrwt>
<totfact> 0.51531190E+02</totfact>
</mgrwt>
</event>
<event>
 6    1  0.1585031E-006  0.1299979E+04  0.7818608E-02  0.9029582E-01
          1   -1    0    0  501    0  0.00000000000E+00  0.00000000000E+00  0.27218821732E+04  0.27218821732E+04  0.00000000000E+00 0. -1.
         -1   -1    0    0    0  501 -0.00000000000E+00 -0.00000000000E+00 -0.15521835188E+03  0.15521835188E+03  0.00000000000E+00 0.  1.
         23    2    1    2    0    0  0.63555764476E+03 -0.11860859410E+03  0.13219043401E+04  0.14744502891E+04  0.92579977454E+02 0.  0.
         13    1    3    3    0    0  0.39438836714E+03 -0.68223095629E+02  0.71425989257E+03  0.81875745435E+03  0.00000000000E+00 0. -1.
        -13    1    3    3    0    0  0.24116927761E+03 -0.50385498467E+02  0.60764444755E+03  0.65569283476E+03  0.00000000000E+00 0.  1.
         22    1    1    2    0    0 -0.63555764476E+03  0.11860859410E+03  0.12447594812E+04  0.14026502360E+04  0.00000000000E+00 0.  1.
<mgrwt>
<rscale>  0 0.12999786E+04</rscale>
<asrwt>0</asrwt>
<pdfrwt beam="1">  1        1 0.41875107E+00 0.12999786E+04</pdfrwt>
<pdfrwt beam="2">  1       -1 0.23879748E-01 0.12999786E+04</pdfrwt>
<totfact> 0.14194938E+01</totfact>
</mgrwt>
</event>
<event>
 6    1  0.1585031E-006  0.3176809E+04  0.7818608E-02  0.8194969E-01
         -2   -1    0    0    0  501 -0.00000000000E+00  0.00000000000E+00  0.25279040803E+04  0.25279040803E+04  0.00000000000E+00 0. -1.
          2   -1    0    0  501    0  0.00000000000E+00 -0.00000000000E+00 -0.99807141529E+03  0.99807141529E+03  0.00000000000E+00 0.  1.
         23    2    1    2    0    0 -0.39337977803E+03  0.45768181506E+03 -0.86434009526E+03  0.10569101867E+04  0.75862038313E+02 0.  0.
         11    1    3    3    0    0 -0.24152549051E+03  0.31903087984E+03 -0.52462585575E+03  0.65980872484E+03  0.00000000000E+00 0. -1.
        -11    1    3    3    0    0 -0.15185428753E+03  0.13865093522E+03 -0.33971423951E+03  0.39710146185E+03  0.00000000000E+00 0.  1.
         22    1    1    2    0    0  0.39337977803E+03 -0.45768181506E+03  0.23941727603E+04  0.24690653089E+04  0.00000000000E+00 0. -1.
<mgrwt>
<rscale>  0 0.31768090E+04</rscale>
<asrwt>0</asrwt>
<pdfrwt beam="1">  1        2 0.15354945E+00 0.31768090E+04</pdfrwt>
<pdfrwt beam="2">  1       -2 0.38890832E+00 0.31768090E+04</pdfrwt>
<totfact> 0.18669831E-01</totfact>
</mgrwt>
</event>
<event>
 6    1  0.1585031E-006  0.2492822E+04  0.7818608E-02  0.8405547E-01
          2   -1    0    0  501    0  0.00000000000E+00  0.00000000000E+00  0.22591216826E+04  0.22591216826E+04  0.00000000000E+00 0. -1.
         -2   -1    0    0    0  501 -0.00000000000E+00 -0.00000000000E+00 -0.68767424911E+03  0.68767424911E+03  0.00000000000E+00 0.  1.
         23    2    1    2    0    0 -0.22659508557E+03 -0.68391867506E+03  0.19866693834E+04  0.21152315297E+04  0.90879582443E+02 0.  0.
         11    1    3    3    0    0 -0.69057238638E+02 -0.33975418717E+03  0.89501247693E+03  0.95981724499E+03  0.00000000000E+00 0.  1.
        -11    1    3    3    0    0 -0.15753784694E+03 -0.34416448789E+03  0.10916569065E+04  0.11554142847E+04  0.00000000000E+00 0. -1.
         22    1    1    2    0    0  0.22659508557E+03  0.68391867506E+03 -0.41522194993E+03  0.83156440196E+03  0.00000000000E+00 0.  1.
<mgrwt>
<rscale>  0 0.24928215E+04</rscale>
<asrwt>0</asrwt>
<pdfrwt beam="1">  1        2 0.34755718E+00 0.24928215E+04</pdfrwt>
<pdfrwt beam="2">  1       -2 0.10579604E+00 0.24928215E+04</pdfrwt>
<totfact> 0.30800581E+00</totfact>
</mgrwt>
</event>
<event>
 6    1  0.1585031E-006  0.8130743E+03  0.7818608E-02  0.9541283E-01
         -1   -1    0    0    0  501 -0.00000000000E+00  0.00000000000E+00  0.25405781171E+03  0.25405781171E+03  0.00000000000E+00 0.  1.
          1   -1    0    0  501    0  0.00000000000E+00 -0.00000000000E+00 -0.65053084599E+03  0.65053084599E+03  0.00000000000E+00 0. -1.
         23    2    1    2    0    0 -0.13278855725E+03 -0.61461908819E+02  0.21540437040E+03  0.27545884159E+03  0.89822956123E+02 0.  0.
         11    1    3    3    0    0 -0.19734029754E+02  0.16992149012E+02  0.93299390932E+01  0.27662480399E+02  0.00000000000E+00 0.  1.
        -11    1    3    3    0    0 -0.11305452750E+03 -0.78454057830E+02  0.20607443131E+03  0.24779636119E+03  0.00000000000E+00 0. -1.
         22    1    1    2    0    0  0.13278855725E+03  0.61461908819E+02 -0.61187740467E+03  0.62912981611E+03  0.00000000000E+00 0. -1.
<mgrwt>
<rscale>  0 0.81307427E+03</rscale>
<asrwt>0</asrwt>
<pdfrwt beam="1">  1        1 0.10008167E+00 0.81307427E+03</pdfrwt>
<pdfrwt beam="2">  1       -1 0.39085818E-01 0.81307427E+03</pdfrwt>
<totfact> 0.19524274E+02</totfact>
</mgrwt>
</event>
<event>
 6    1  0.1585031E-006  0.1541623E+04  0.7818608E-02  0.8857236E-01
          2   -1    0    0  501    0  0.00000000000E+00  0.00000000000E+00  0.11339566546E+04  0.11339566546E+04  0.00000000000E+00 0. -1.
         -2   -1    0    0    0  501 -0.00000000000E+00 -0.00000000000E+00 -0.52396235241E+03  0.52396235241E+03  0.00000000000E+00 0.  1.
         23    2    1    2    0    0  0.16767364451E+03  0.50252369938E+03 -0.29230981842E+03  0.61159341449E+03  0.89201766809E+02 0.  0.
         13    1    3    3    0    0  0.96302993191E+02  0.25062483052E+03 -0.99056944853E+02  0.28618062564E+03  0.00000000000E+00 0.  1.
        -13    1    3    3    0    0  0.71370651315E+02  0.25189886886E+03 -0.19325287357E+03  0.32541278885E+03  0.00000000000E+00 0. -1.
         22    1    1    2    0    0 -0.16767364451E+03 -0.50252369938E+03  0.90230412064E+03  0.10463255925E+04  0.00000000000E+00 0. -1.
<mgrwt>
<rscale>  0 0.15416233E+04</rscale>
<asrwt>0</asrwt>
<pdfrwt beam="1">  1        2 0.17445487E+00 0.15416233E+04</pdfrwt>
<pdfrwt beam="2">  1       -2 0.80609593E-01 0.15416233E+04</pdfrwt>
<totfact> 0.27181700E+01</totfact>
</mgrwt>
</event>
<event>
 6    1  0.2743293E-006  0.3279804E+04  0.7818608E-02  0.8168053E-01
         -1   -1    0    0    0  501 -0.00000000000E+00  0.00000000000E+00  0.14588032053E+04  0.14588032053E+04  0.00000000000E+00 0.  1.
          1   -1    0    0  501    0  0.00000000000E+00 -0.00000000000E+00 -0.18434831248E+04  0.18434831248E+04  0.00000000000E+00 0. -1.
         23    2    1    2    0    0  0.29386005328E+03  0.25799976799E+03  0.14096893847E+04  0.14658008792E+04  0.91817453421E+02 0.  0.
         11    1    3    3    0    0  0.19733413747E+03  0.12534948776E+03  0.72635528745E+03  0.76304997182E+03  0.00000000000E+00 0. -1.
        -11    1    3    3    0    0  0.96525915806E+02  0.13265028022E+03  0.68333409729E+03  0.70275090735E+03  0.00000000000E+00 0.  1.
         22    1    1    2    0    0 -0.29386005328E+03 -0.25799976799E+03 -0.17943693043E+04  0.18364854509E+04  0.00000000000E+00 0. -1.
<mgrwt>
<rscale>  0 0.32798043E+04</rscale>
<asrwt>0</asrwt>
<pdfrwt beam="1">  1        1 0.28361279E+00 0.32798043E+04</pdfrwt>
<pdfrwt beam="2">  1       -1 0.22443126E+00 0.32798043E+04</pdfrwt>
<totfact> 0.32514534E-01</totfact>
</mgrwt>
</event>
<event>
 6    1  0.1585031E-006  0.3865548E+04  0.7818608E-02  0.8032233E-01
         -1   -1    0    0    0  501 -0.00000000000E+00  0.00000000000E+00  0.14190274397E+04  0.14190274397E+04  0.00000000000E+00 0.  1.
          1   -1    0    0  501    0  0.00000000000E+00 -0.00000000000E+00 -0.26325174627E+04  0.26325174627E+04  0.00000000000E+00 0. -1.
         23    2    1    2    0    0  0.58306917328E+02 -0.92429829190E+03 -0.23838551235E+04  0.25590699453E+04  0.91360309527E+02 0.  0.
         13    1    3    3    0    0  0.69288010432E+02 -0.38288921723E+03 -0.99963138715E+03  0.10726918902E+04  0.00000000000E+00 0.  1.
        -13    1    3    3    0    0 -0.10981093104E+02 -0.54140907467E+03 -0.13842237364E+04  0.14863780551E+04  0.00000000000E+00 0. -1.
         22    1    1    2    0    0 -0.58306917328E+02  0.92429829190E+03  0.11703651005E+04  0.14924749571E+04  0.00000000000E+00 0.  1.
<mgrwt>
<rscale>  0 0.38655476E+04</rscale>
<asrwt>0</asrwt>
<pdfrwt beam="1">  1        1 0.40500268E+00 0.38655476E+04</pdfrwt>
<pdfrwt beam="2">  1       -1 0.21831192E+00 0.38655476E+04</pdfrwt>
<totfact> 0.97856076E-02</totfact>
</mgrwt>
</event>
<event>
 6    1  0.1585031E-006  0.2459536E+04  0.7818608E-02  0.8417544E-01
          2   -1    0    0  501    0  0.00000000000E+00  0.00000000000E+00  0.14191543501E+04  0.14191543501E+04  0.00000000000E+00 0. -1.
         -2   -1    0    0    0  501 -0.00000000000E+00 -0.00000000000E+00 -0.10656555826E+04  0.10656555826E+04  0.00000000000E+00 0.  1.
         23    2    1    2    0    0 -0.66015454325E+03 -0.45701268587E+03  0.11166760619E+04  0.13770625794E+04  0.68346941152E+02 0.  0.
         11    1    3    3    0    0 -0.18103526471E+03 -0.91109436769E+02  0.26526531843E+03  0.33382687983E+03  0.00000000000E+00 0.  1.
        -11    1    3    3    0    0 -0.47911927854E+03 -0.36590324910E+03  0.85141074351E+03  0.10432356996E+04  0.00000000000E+00 0. -1.
         22    1    1    2    0    0  0.66015454325E+03  0.45701268587E+03 -0.76317729445E+03  0.11077473533E+04  0.00000000000E+00 0.  1.
<mgrwt>
<rscale>  0 0.24595363E+04</rscale>
<asrwt>0</asrwt>
<pdfrwt beam="1">  1        2 0.21833144E+00 0.24595363E+04</pdfrwt>
<pdfrwt beam="2">  1       -2 0.16394701E+00 0.24595363E+04</pdfrwt>
<totfact> 0.29756244E+00</totfact>
</mgrwt>
</event>
<event>
 6    1  0.1585031E-006  0.2048030E+04  0.7818608E-02  0.8584488E-01
          1   -1    0    0  501    0  0.00000000000E+00  0.00000000000E+00  0.41853748733E+03  0.41853748733E+03  0.00000000000E+00 0. -1.
         -1   -1    0    0    0  501 -0.00000000000E+00 -0.00000000000E+00 -0.25054074166E+04  0.25054074166E+04  0.00000000000E+00 0.  1.
         23    2    1    2    0    0 -0.86701974993E+03 -0.31229974036E+03 -0.16761675304E+04  0.19150193194E+04  0.92233558433E+02 0.  0.
         11    1    3    3    0    0 -0.69866787052E+03 -0.23949587796E+03 -0.14107377124E+04  0.15923805959E+04  0.00000000000E+00 0. -1.
        -11    1    3    3    0    0 -0.16835187941E+03 -0.72803862392E+02 -0.26542981798E+03  0.32263872358E+03  0.00000000000E+00 0.  1.
         22    1    1    2    0    0  0.86701974993E+03  0.31229974036E+03 -0.41070239888E+03  0.10089255845E+04  0.00000000000E+00 0. -1.
<mgrwt>
<rscale>  0 0.20480302E+04</rscale>
<asrwt>0</asrwt>
<pdfrwt beam="1">  1        1 0.64390384E-01 0.20480302E+04</pdfrwt>
<pdfrwt beam="2">  1       -1 0.38544729E+00 0.20480302E+04</pdfrwt>
<totfact> 0.46959263E-01</totfact>
</mgrwt>
</event>
<event>
 6    1  0.1585031E-006  0.2375878E+04  0.7818608E-02  0.8448590E-01
          2   -1    0    0  501    0  0.00000000000E+00  0.00000000000E+00  0.14629515350E+04  0.14629515350E+04  0.00000000000E+00 0. -1.
         -2   -1    0    0    0  501 -0.00000000000E+00 -0.00000000000E+00 -0.96462480780E+03  0.96462480780E+03  0.00000000000E+00 0.  1.
         23    2    1    2    0    0 -0.45520141937E+03 -0.68076534956E+03 -0.62728239635E+03  0.10355829188E+04  0.91098757576E+02 0.  0.
         11    1    3    3    0    0 -0.12970103045E+03 -0.13088891480E+03 -0.12263687881E+03  0.22134603986E+03  0.00000000000E+00 0. -1.
        -11    1    3    3    0    0 -0.32550038891E+03 -0.54987643476E+03 -0.50464551754E+03  0.81423687896E+03  0.00000000000E+00 0.  1.
         22    1    1    2    0    0  0.45520141937E+03  0.68076534956E+03  0.11256091235E+04  0.13919934240E+04  0.00000000000E+00 0. -1.
<mgrwt>
<rscale>  0 0.23758782E+04</rscale>
<asrwt>0</asrwt>
<pdfrwt beam="1">  1        2 0.22506947E+00 0.23758782E+04</pdfrwt>
<pdfrwt beam="2">  1       -2 0.14840382E+00 0.23758782E+04</pdfrwt>
<totfact> 0.37005186E+00</totfact>
</mgrwt>
</event>
<event>
 6    1  0.1585031E-006  0.1952315E+04  0.7818608E-02  0.8629245E-01
         -2   -1    0    0    0  501 -0.00000000000E+00  0.00000000000E+00  0.94629741789E+03  0.94629741789E+03  0.00000000000E+00 0.  1.
          2   -1    0    0  501    0  0.00000000000E+00 -0.00000000000E+00 -0.10069596610E+04  0.10069596610E+04  0.00000000000E+00 0. -1.
         23    2    1    2    0    0  0.41054499638E+03 -0.28974813048E+03 -0.86513855861E+03  0.10047407029E+04  0.92401197465E+02 0.  0.
         11    1    3    3    0    0  0.14097776805E+03 -0.13186249983E+03 -0.40397001739E+03  0.44772114636E+03  0.00000000000E+00 0. -1.
        -11    1    3    3    0    0  0.26956722833E+03 -0.15788563065E+03 -0.46116854122E+03  0.55701955654E+03  0.00000000000E+00 0.  1.
         22    1    1    2    0    0 -0.41054499638E+03  0.28974813048E+03  0.80447631555E+03  0.94851637595E+03  0.00000000000E+00 0.  1.
<mgrwt>
<rscale>  0 0.19523149E+04</rscale>
<asrwt>0</asrwt>
<pdfrwt beam="1">  1        2 0.15491687E+00 0.19523149E+04</pdfrwt>
<pdfrwt beam="2">  1       -2 0.14558422E+00 0.19523149E+04</pdfrwt>
<totfact> 0.75381586E+00</totfact>
</mgrwt>
</event>
<event>
 6    1  0.1585031E-006  0.1690557E+04  0.7818608E-02  0.8766768E-01
         -1   -1    0    0    0  501 -0.00000000000E+00  0.00000000000E+00  0.62663225325E+03  0.62663225325E+03  0.00000000000E+00 0.  1.
          1   -1    0    0  501    0  0.00000000000E+00 -0.00000000000E+00 -0.11402153472E+04  0.11402153472E+04  0.00000000000E+00 0. -1.
         23    2    1    2    0    0  0.75203772433E+03  0.37298584871E+03 -0.33654550275E+03  0.90893065177E+03  0.90624898129E+02 0.  0.
         13    1    3    3    0    0  0.66481224433E+03  0.35027653734E+03 -0.27684859551E+03  0.80082090236E+03  0.00000000000E+00 0.  1.
        -13    1    3    3    0    0  0.87225479992E+02  0.22709311372E+02 -0.59696907246E+02  0.10810974941E+03  0.00000000000E+00 0. -1.
         22    1    1    2    0    0 -0.75203772433E+03 -0.37298584871E+03 -0.17703759122E+03  0.85791694869E+03  0.00000000000E+00 0. -1.
<mgrwt>
<rscale>  0 0.16905570E+04</rscale>
<asrwt>0</asrwt>
<pdfrwt beam="1">  1        1 0.17541775E+00 0.16905570E+04</pdfrwt>
<pdfrwt beam="2">  1       -1 0.96404962E-01 0.16905570E+04</pdfrwt>
<totfact> 0.11671424E+01</totfact>
</mgrwt>
</event>
<event>
 6    1  0.1585031E-006  0.1031670E+04  0.7818608E-02  0.9274476E-01
          1   -1    0    0  501    0  0.00000000000E+00  0.00000000000E+00  0.55586607113E+03  0.55586607113E+03  0.00000000000E+00 0. -1.
         -1   -1    0    0    0  501 -0.00000000000E+00 -0.00000000000E+00 -0.47868643491E+03  0.47868643491E+03  0.00000000000E+00 0.  1.
         23    2    1    2    0    0  0.35186841019E+03 -0.48392528033E+01  0.41110470499E+03  0.54943319287E+03  0.95052398739E+02 0.  0.
         13    1    3    3    0    0  0.84299656015E+02  0.39767825912E+02  0.10881966459E+03  0.14328165055E+03  0.00000000000E+00 0. -1.
        -13    1    3    3    0    0  0.26756875417E+03 -0.44607078716E+02  0.30228504040E+03  0.40615154232E+03  0.00000000000E+00 0.  1.
         22    1    1    2    0    0 -0.35186841019E+03  0.48392528033E+01 -0.33392506877E+03  0.48511931317E+03  0.00000000000E+00 0.  1.
<mgrwt>
<rscale>  0 0.10316696E+04</rscale>
<asrwt>0</asrwt>
<pdfrwt beam="1">  1        1 0.85517857E-01 0.10316696E+04</pdfrwt>
<pdfrwt beam="2">  1       -1 0.73644067E-01 0.10316696E+04</pdfrwt>
<totfact> 0.71064279E+01</totfact>
</mgrwt>
</event>
<event>
 6    1  0.1585031E-006  0.1149900E+04  0.7818608E-02  0.9157876E-01
         -1   -1    0    0    0  501 -0.00000000000E+00  0.00000000000E+00  0.34281573598E+03  0.34281573598E+03  0.00000000000E+00 0.  1.
          1   -1    0    0  501    0  0.00000000000E+00 -0.00000000000E+00 -0.96427179141E+03  0.96427179141E+03  0.00000000000E+00 0. -1.
         23    2    1    2    0    0 -0.22771855552E+03 -0.48071089429E+03 -0.75974839311E+02  0.54518959357E+03  0.92308246181E+02 0.  0.
         11    1    3    3    0    0 -0.14353628872E+03 -0.20195013110E+03 -0.50726806845E+02  0.25290261083E+03  0.00000000000E+00 0.  1.
        -11    1    3    3    0    0 -0.84182266799E+02 -0.27876076319E+03 -0.25248032466E+02  0.29228698274E+03  0.00000000000E+00 0. -1.
         22    1    1    2    0    0  0.22771855552E+03  0.48071089429E+03 -0.54548121612E+03  0.76189793382E+03  0.00000000000E+00 0. -1.
<mgrwt>
<rscale>  0 0.11499001E+04</rscale>
<asrwt>0</asrwt>
<pdfrwt beam="1">  1        1 0.14834951E+00 0.11499001E+04</pdfrwt>
<pdfrwt beam="2">  1       -1 0.52740882E-01 0.11499001E+04</pdfrwt>
<totfact> 0.58093444E+01</totfact>
</mgrwt>
</event>
<event>
 6    1  0.1585031E-006  0.1441123E+04  0.7818608E-02  0.8924578E-01
         -1   -1    0    0    0  501 -0.00000000000E+00  0.00000000000E+00  0.23538829565E+03  0.23538829565E+03  0.00000000000E+00 0.  1.
          1   -1    0    0  501    0  0.00000000000E+00 -0.00000000000E+00 -0.22057556811E+04  0.22057556811E+04  0.00000000000E+00 0. -1.
         23    2    1    2    0    0  0.17834687974E+03  0.22809432077E+02 -0.21660563832E+04  0.21753958562E+04  0.90658678836E+02 0.  0.
         13    1    3    3    0    0  0.11645769248E+03 -0.13057458568E+02 -0.16826487954E+04  0.16867245952E+04  0.00000000000E+00 0.  1.
        -13    1    3    3    0    0  0.61889187257E+02  0.35866890646E+02 -0.48340758779E+03  0.48867126094E+03  0.00000000000E+00 0. -1.
         22    1    1    2    0    0 -0.17834687974E+03 -0.22809432077E+02  0.19568899781E+03  0.26574812054E+03  0.00000000000E+00 0.  1.
<mgrwt>
<rscale>  0 0.14411233E+04</rscale>
<asrwt>0</asrwt>
<pdfrwt beam="1">  1        1 0.33934702E+00 0.14411233E+04</pdfrwt>
<pdfrwt beam="2">  1       -1 0.36213585E-01 0.14411233E+04</pdfrwt>
<totfact> 0.15337511E+01</totfact>
</mgrwt>
</event>
<event>
 6    1  0.1585031E-006  0.4375009E+04  0.7818608E-02  0.7932892E-01
          2   -1    0    0  501    0  0.00000000000E+00  0.00000000000E+00  0.46975583441E+04  0.46975583441E+04  0.00000000000E+00 0. -1.
         -2   -1    0    0    0  501 -0.00000000000E+00 -0.00000000000E+00 -0.10186516405E+04  0.10186516405E+04  0.00000000000E+00 0.  1.
         23    2    1    2    0    0 -0.15260448813E+04 -0.51907938348E+03  0.37705780613E+04  0.41016945701E+04  0.91558965101E+02 0.  0.
         11    1    3    3    0    0 -0.89129142847E+03 -0.33921071178E+03  0.21536737055E+04  0.23553714670E+04  0.00000000000E+00 0.  1.
        -11    1    3    3    0    0 -0.63475345278E+03 -0.17986867170E+03  0.16169043557E+04  0.17463231031E+04  0.00000000000E+00 0. -1.
         22    1    1    2    0    0  0.15260448813E+04  0.51907938348E+03 -0.91671357628E+02  0.16145154145E+04  0.00000000000E+00 0.  1.
<mgrwt>
<rscale>  0 0.43750088E+04</rscale>
<asrwt>0</asrwt>
<pdfrwt beam="1">  1        2 0.72270127E+00 0.43750088E+04</pdfrwt>
<pdfrwt beam="2">  1       -2 0.15671564E+00 0.43750088E+04</pdfrwt>
<totfact> 0.15584010E-02</totfact>
</mgrwt>
</event>
<event>
 6    1  0.1585031E-006  0.3779284E+04  0.7818608E-02  0.8050615E-01
          2   -1    0    0  501    0  0.00000000000E+00  0.00000000000E+00  0.13712449531E+04  0.13712449531E+04  0.00000000000E+00 0. -1.
         -2   -1    0    0    0  501 -0.00000000000E+00 -0.00000000000E+00 -0.26040181225E+04  0.26040181225E+04  0.00000000000E+00 0.  1.
         23    2    1    2    0    0 -0.36286269030E+03  0.36681194582E+03  0.12941292000E+04  0.13962214086E+04  0.91888519971E+02 0.  0.
         13    1    3    3    0    0 -0.27410520716E+03  0.23998615701E+03  0.99119328578E+03  0.10560261123E+04  0.00000000000E+00 0. -1.
        -13    1    3    3    0    0 -0.88757483140E+02  0.12682578881E+03  0.30293591420E+03  0.34019529632E+03  0.00000000000E+00 0.  1.
         22    1    1    2    0    0  0.36286269030E+03 -0.36681194582E+03 -0.25269023693E+04  0.25790416669E+04  0.00000000000E+00 0.  1.
<mgrwt>
<rscale>  0 0.37792839E+04</rscale>
<asrwt>0</asrwt>
<pdfrwt beam="1">  1        2 0.21096077E+00 0.37792839E+04</pdfrwt>
<pdfrwt beam="2">  1       -2 0.40061817E+00 0.37792839E+04</pdfrwt>
<totfact> 0.88718175E-02</totfact>
</mgrwt>
</event>
<event>
 6    1  0.1585031E-006  0.4936079E+04  0.7818608E-02  0.7838444E-01
          2   -1    0    0  501    0  0.00000000000E+00  0.00000000000E+00  0.23998158977E+04  0.23998158977E+04  0.00000000000E+00 0. -1.
         -2   -1    0    0    0  501 -0.00000000000E+00 -0.00000000000E+00 -0.25382021312E+04  0.25382021312E+04  0.00000000000E+00 0.  1.
         23    2    1    2    0    0  0.17092587314E+04 -0.79966181876E+03 -0.16591920081E+04  0.25144102556E+04  0.91194181531E+02 0.  0.
         11    1    3    3    0    0  0.11665522479E+04 -0.53423383649E+03 -0.10724928145E+04  0.16722711432E+04  0.00000000000E+00 0.  1.
        -11    1    3    3    0    0  0.54270648347E+03 -0.26542798226E+03 -0.58669919352E+03  0.84213911241E+03  0.00000000000E+00 0. -1.
         22    1    1    2    0    0 -0.17092587314E+04  0.79966181876E+03  0.15208057745E+04  0.24236077733E+04  0.00000000000E+00 0. -1.
<mgrwt>
<rscale>  0 0.49360785E+04</rscale>
<asrwt>0</asrwt>
<pdfrwt beam="1">  1        2 0.36920245E+00 0.49360785E+04</pdfrwt>
<pdfrwt beam="2">  1       -2 0.39049264E+00 0.49360785E+04</pdfrwt>
<totfact> 0.24923312E-02</totfact>
</mgrwt>
</event>
<event>
 6    1  0.1585031E-006  0.1387224E+04  0.7818608E-02  0.8963119E-01
          1   -1    0    0  501    0  0.00000000000E+00  0.00000000000E+00  0.45545970080E+03  0.45545970080E+03  0.00000000000E+00 0. -1.
         -1   -1    0    0    0  501 -0.00000000000E+00 -0.00000000000E+00 -0.10562899474E+04  0.10562899474E+04  0.00000000000E+00 0.  1.
         23    2    1    2    0    0  0.25533805337E+03  0.77120391886E+02 -0.99573430263E+03  0.10352055370E+04  0.94966447458E+02 0.  0.
         13    1    3    3    0    0  0.75717017449E+02  0.53678316830E+02 -0.47174482950E+03  0.48078853209E+03  0.00000000000E+00 0. -1.
        -13    1    3    3    0    0  0.17962103592E+03  0.23442075056E+02 -0.52398947314E+03  0.55441700496E+03  0.00000000000E+00 0.  1.
         22    1    1    2    0    0 -0.25533805337E+03 -0.77120391886E+02  0.39490405607E+03  0.47654411112E+03  0.00000000000E+00 0. -1.
<mgrwt>
<rscale>  0 0.13872239E+04</rscale>
<asrwt>0</asrwt>
<pdfrwt beam="1">  1        1 0.70070724E-01 0.13872239E+04</pdfrwt>
<pdfrwt beam="2">  1       -1 0.16250614E+00 0.13872239E+04</pdfrwt>
<totfact> 0.13754452E+01</totfact>
</mgrwt>
</event>
<event>
 6    1  0.1585031E-006  0.1584793E+04  0.7818608E-02  0.8829945E-01
         -1   -1    0    0    0  501 -0.00000000000E+00  0.00000000000E+00  0.70601181981E+03  0.70601181981E+03  0.00000000000E+00 0.  1.
          1   -1    0    0  501    0  0.00000000000E+00 -0.00000000000E+00 -0.88935072930E+03  0.88935072930E+03  0.00000000000E+00 0. -1.
         23    2    1    2    0    0 -0.93812708396E+02  0.16550210820E+03 -0.86170592408E+03  0.89082470160E+03  0.12181862470E+03 0.  0.
         11    1    3    3    0    0 -0.84686876788E+02  0.13013408716E+03 -0.82334054863E+03  0.83785225832E+03  0.00000000000E+00 0.  1.
        -11    1    3    3    0    0 -0.91258316082E+01  0.35368021043E+02 -0.38365375443E+02  0.52972443288E+02  0.00000000000E+00 0. -1.
         22    1    1    2    0    0  0.93812708396E+02 -0.16550210820E+03  0.67836701459E+03  0.70453784750E+03  0.00000000000E+00 0.  1.
<mgrwt>
<rscale>  0 0.15847929E+04</rscale>
<asrwt>0</asrwt>
<pdfrwt beam="1">  1        1 0.13682319E+00 0.15847929E+04</pdfrwt>
<pdfrwt beam="2">  1       -1 0.10861720E+00 0.15847929E+04</pdfrwt>
<totfact> 0.14031323E+01</totfact>
</mgrwt>
</event>
<event>
 6    1  0.1585031E-006  0.2487997E+04  0.7818608E-02  0.8407274E-01
         -2   -1    0    0    0  501 -0.00000000000E+00  0.00000000000E+00  0.80874098638E+03  0.80874098638E+03  0.00000000000E+00 0. -1.
          2   -1    0    0  501    0  0.00000000000E+00 -0.00000000000E+00 -0.19135078680E+04  0.19135078680E+04  0.00000000000E+00 0.  1.
         23    2    1    2    0    0  0.93886865393E+03 -0.21006266217E+02  0.33674235452E+03  0.10018231831E+04  0.91316287242E+02 0.  0.
         11    1    3    3    0    0  0.33466188384E+03 -0.51278013524E+02  0.12139991332E+03  0.35967478382E+03  0.00000000000E+00 0. -1.
        -11    1    3    3    0    0  0.60420677009E+03  0.30271747307E+02  0.21534244120E+03  0.64214839928E+03  0.00000000000E+00 0.  1.
         22    1    1    2    0    0 -0.93886865393E+03  0.21006266217E+02 -0.14415092362E+04  0.17204256713E+04  0.00000000000E+00 0.  1.
<mgrwt>
<rscale>  0 0.24879970E+04</rscale>
<asrwt>0</asrwt>
<pdfrwt beam="1">  1        2 0.29438582E+00 0.24879970E+04</pdfrwt>
<pdfrwt beam="2">  1       -2 0.12442169E+00 0.24879970E+04</pdfrwt>
<totfact> 0.32323831E+00</totfact>
</mgrwt>
</event>
<event>
 6    1  0.1585031E-006  0.3958962E+04  0.7818608E-02  0.8012877E-01
         -3   -1    0    0    0  501 -0.00000000000E+00  0.00000000000E+00  0.16230512581E+04  0.16230512581E+04  0.00000000000E+00 0.  1.
          3   -1    0    0  501    0  0.00000000000E+00 -0.00000000000E+00 -0.24141845668E+04  0.24141845668E+04  0.00000000000E+00 0. -1.
         23    2    1    2    0    0 -0.63472881350E+03 -0.18738196541E+04 -0.38697909957E+03  0.20179732398E+04  0.91555504034E+02 0.  0.
         11    1    3    3    0    0 -0.55610683050E+03 -0.15487935191E+04 -0.30429950149E+03  0.16735036177E+04  0.00000000000E+00 0.  1.
        -11    1    3    3    0    0 -0.78621983003E+02 -0.32502613495E+03 -0.82679598085E+02  0.34446962210E+03  0.00000000000E+00 0. -1.
         22    1    1    2    0    0  0.63472881350E+03  0.18738196541E+04 -0.40415420908E+03  0.20192625851E+04  0.00000000000E+00 0. -1.
<mgrwt>
<rscale>  0 0.39589621E+04</rscale>
<asrwt>0</asrwt>
<pdfrwt beam="1">  1        3 0.37141301E+00 0.39589621E+04</pdfrwt>
<pdfrwt beam="2">  1       -3 0.24970019E+00 0.39589621E+04</pdfrwt>
<totfact> 0.23663064E-03</totfact>
</mgrwt>
</event>
<event>
 6    1  0.1910818E-006  0.2762707E+04  0.7818608E-02  0.8314941E-01
         -2   -1    0    0    0  501 -0.00000000000E+00  0.00000000000E+00  0.76797486872E+03  0.76797486872E+03  0.00000000000E+00 0. -1.
          2   -1    0    0  501    0  0.00000000000E+00 -0.00000000000E+00 -0.24846355626E+04  0.24846355626E+04  0.00000000000E+00 0.  1.
         23    2    1    2    0    0 -0.10307057517E+04  0.66140054625E+03 -0.11042408335E+03  0.12327586847E+04  0.87723813681E+02 0.  0.
         11    1    3    3    0    0 -0.30531623108E+03  0.19761505818E+03  0.73326958895E+01  0.36376294562E+03  0.00000000000E+00 0. -1.
        -11    1    3    3    0    0 -0.72538952060E+03  0.46378548807E+03 -0.11775677924E+03  0.86899573912E+03  0.00000000000E+00 0.  1.
         22    1    1    2    0    0  0.10307057517E+04 -0.66140054625E+03 -0.16062366105E+04  0.20198517466E+04  0.00000000000E+00 0.  1.
<mgrwt>
<rscale>  0 0.27627071E+04</rscale>
<asrwt>0</asrwt>
<pdfrwt beam="1">  1        2 0.38225163E+00 0.27627071E+04</pdfrwt>
<pdfrwt beam="2">  1       -2 0.11814998E+00 0.27627071E+04</pdfrwt>
<totfact> 0.17111369E+00</totfact>
</mgrwt>
</event>
<event>
 6    1  0.1585031E-006  0.1560005E+04  0.7818608E-02  0.8845503E-01
          2   -1    0    0  501    0  0.00000000000E+00  0.00000000000E+00  0.26555948282E+04  0.26555948282E+04  0.00000000000E+00 0. -1.
         -2   -1    0    0    0  501 -0.00000000000E+00 -0.00000000000E+00 -0.22910257824E+03  0.22910257824E+03  0.00000000000E+00 0.  1.
         23    2    1    2    0    0 -0.74672659562E+02 -0.36923489204E+03  0.24748187133E+04  0.25049002782E+04  0.88810634598E+02 0.  0.
         11    1    3    3    0    0 -0.60451611637E+02 -0.16696189516E+03  0.92675199741E+03  0.94361005532E+03  0.00000000000E+00 0. -1.
        -11    1    3    3    0    0 -0.14221047925E+02 -0.20227299688E+03  0.15480667158E+04  0.15612902229E+04  0.00000000000E+00 0.  1.
         22    1    1    2    0    0  0.74672659562E+02  0.36923489204E+03 -0.48326463249E+02  0.37979712826E+03  0.00000000000E+00 0.  1.
<mgrwt>
<rscale>  0 0.15600046E+04</rscale>
<asrwt>0</asrwt>
<pdfrwt beam="1">  1        2 0.40855303E+00 0.15600046E+04</pdfrwt>
<pdfrwt beam="2">  1       -2 0.35246552E-01 0.15600046E+04</pdfrwt>
<totfact> 0.20585746E+01</totfact>
</mgrwt>
</event>
<event>
 6    1  0.1585031E-006  0.7030936E+03  0.7818608E-02  0.9711956E-01
          1   -1    0    0  501    0  0.00000000000E+00  0.00000000000E+00  0.89210192356E+03  0.89210192356E+03  0.00000000000E+00 0. -1.
         -1   -1    0    0    0  501 -0.00000000000E+00 -0.00000000000E+00 -0.13853255361E+03  0.13853255361E+03  0.00000000000E+00 0.  1.
         23    2    1    2    0    0 -0.24773656808E+03  0.23131872286E+03  0.28386350894E+03  0.45140623668E+03  0.91144610933E+02 0.  0.
         13    1    3    3    0    0 -0.14210152713E+03  0.14252847280E+03  0.22356416144E+03  0.30081247289E+03  0.00000000000E+00 0. -1.
        -13    1    3    3    0    0 -0.10563504095E+03  0.88790250063E+02  0.60299347497E+02  0.15059376379E+03  0.00000000000E+00 0.  1.
         22    1    1    2    0    0  0.24773656808E+03 -0.23131872286E+03  0.46970586102E+03  0.57922824049E+03  0.00000000000E+00 0.  1.
<mgrwt>
<rscale>  0 0.70309361E+03</rscale>
<asrwt>0</asrwt>
<pdfrwt beam="1">  1        1 0.13724645E+00 0.70309361E+03</pdfrwt>
<pdfrwt beam="2">  1       -1 0.21312701E-01 0.70309361E+03</pdfrwt>
<totfact> 0.34339232E+02</totfact>
</mgrwt>
</event>
<event>
 6    1  0.1585031E-006  0.1316598E+04  0.7818608E-02  0.9016505E-01
         -1   -1    0    0    0  501 -0.00000000000E+00  0.00000000000E+00  0.34186056090E+03  0.34186056090E+03  0.00000000000E+00 0.  1.
          1   -1    0    0  501    0  0.00000000000E+00 -0.00000000000E+00 -0.12676447787E+04  0.12676447787E+04  0.00000000000E+00 0. -1.
         23    2    1    2    0    0  0.10234419226E+03 -0.51418707029E+03  0.15552501366E+02  0.53201868271E+03  0.89102870412E+02 0.  0.
         13    1    3    3    0    0  0.58347558282E+02 -0.28109861747E+03  0.52806969778E+02  0.29190657129E+03  0.00000000000E+00 0.  1.
        -13    1    3    3    0    0  0.43996633977E+02 -0.23308845281E+03 -0.37254468412E+02  0.24011211142E+03  0.00000000000E+00 0. -1.
         22    1    1    2    0    0 -0.10234419226E+03  0.51418707029E+03 -0.94133671920E+03  0.10774866569E+04  0.00000000000E+00 0. -1.
<mgrwt>
<rscale>  0 0.13165983E+04</rscale>
<asrwt>0</asrwt>
<pdfrwt beam="1">  1        1 0.19502228E+00 0.13165983E+04</pdfrwt>
<pdfrwt beam="2">  1       -1 0.52593932E-01 0.13165983E+04</pdfrwt>
<totfact> 0.34109713E+01</totfact>
</mgrwt>
</event>
<event>
 6    1  0.1585031E-006  0.6009549E+03  0.7818608E-02  0.9903427E-01
         -1   -1    0    0    0  501 -0.00000000000E+00  0.00000000000E+00  0.75608278185E+02  0.75608278185E+02  0.00000000000E+00 0.  1.
          1   -1    0    0  501    0  0.00000000000E+00 -0.00000000000E+00 -0.11941379077E+04  0.11941379077E+04  0.00000000000E+00 0. -1.
         23    2    1    2    0    0 -0.19675159242E+03 -0.13831083789E+03 -0.21757200968E+03  0.33724111365E+03  0.92481956857E+02 0.  0.
         13    1    3    3    0    0 -0.19867752397E+03 -0.10687550647E+03 -0.18313772531E+03  0.29057625306E+03  0.00000000000E+00 0. -1.
        -13    1    3    3    0    0  0.19259315474E+01 -0.31435331416E+02 -0.34434284369E+02  0.46664860587E+02  0.00000000000E+00 0.  1.
         22    1    1    2    0    0  0.19675159242E+03  0.13831083789E+03 -0.90095761979E+03  0.93250507219E+03  0.00000000000E+00 0. -1.
<mgrwt>
<rscale>  0 0.60095494E+03</rscale>
<asrwt>0</asrwt>
<pdfrwt beam="1">  1        1 0.18371352E+00 0.60095494E+03</pdfrwt>
<pdfrwt beam="2">  1       -1 0.11632043E-01 0.60095494E+03</pdfrwt>
<totfact> 0.54529904E+02</totfact>
</mgrwt>
</event>
<event>
 6    1  0.1585031E-006  0.3963490E+04  0.7818608E-02  0.8011952E-01
          2   -1    0    0  501    0  0.00000000000E+00  0.00000000000E+00  0.24604658490E+04  0.24604658490E+04  0.00000000000E+00 0. -1.
         -2   -1    0    0    0  501 -0.00000000000E+00 -0.00000000000E+00 -0.15961667761E+04  0.15961667761E+04  0.00000000000E+00 0.  1.
         23    2    1    2    0    0  0.25484542298E+03 -0.13401631362E+04  0.19020642035E+04  0.23425906514E+04  0.94336124625E+02 0.  0.
         11    1    3    3    0    0  0.22985444996E+03 -0.98788390436E+03  0.14108249038E+04  0.17375772172E+04  0.00000000000E+00 0.  1.
        -11    1    3    3    0    0  0.24990973018E+02 -0.35227923187E+03  0.49123929978E+03  0.60501343422E+03  0.00000000000E+00 0. -1.
         22    1    1    2    0    0 -0.25484542298E+03  0.13401631362E+04 -0.10377651307E+04  0.17140419737E+04  0.00000000000E+00 0.  1.
<mgrwt>
<rscale>  0 0.39634903E+04</rscale>
<asrwt>0</asrwt>
<pdfrwt beam="1">  1        2 0.37853321E+00 0.39634903E+04</pdfrwt>
<pdfrwt beam="2">  1       -2 0.24556412E+00 0.39634903E+04</pdfrwt>
<totfact> 0.19869385E-01</totfact>
</mgrwt>
</event>
<event>
 6    1  0.1585031E-006  0.1439824E+04  0.7818608E-02  0.8925486E-01
         -1   -1    0    0    0  501 -0.00000000000E+00  0.00000000000E+00  0.13351838091E+04  0.13351838091E+04  0.00000000000E+00 0.  1.
          1   -1    0    0  501    0  0.00000000000E+00 -0.00000000000E+00 -0.38816617111E+03  0.38816617111E+03  0.00000000000E+00 0. -1.
         23    2    1    2    0    0 -0.62756144002E+03  0.11867410580E+03  0.85329302550E+02  0.65077192160E+03  0.91137805992E+02 0.  0.
         13    1    3    3    0    0 -0.13140410569E+03  0.41773066227E+02 -0.15218471575E+02  0.13872141122E+03  0.00000000000E+00 0. -1.
        -13    1    3    3    0    0 -0.49615733434E+03  0.76901039577E+02  0.10054777412E+03  0.51205051039E+03  0.00000000000E+00 0.  1.
         22    1    1    2    0    0  0.62756144002E+03 -0.11867410580E+03  0.86168833546E+03  0.10725780586E+04  0.00000000000E+00 0.  1.
<mgrwt>
<rscale>  0 0.14398239E+04</rscale>
<asrwt>0</asrwt>
<pdfrwt beam="1">  1        1 0.59717873E-01 0.14398239E+04</pdfrwt>
<pdfrwt beam="2">  1       -1 0.20541289E+00 0.14398239E+04</pdfrwt>
<totfact> 0.83850498E+00</totfact>
</mgrwt>
</event>
<event>
 6    1  0.1585031E-006  0.2339947E+04  0.7818608E-02  0.8462335E-01
         -1   -1    0    0    0  501 -0.00000000000E+00  0.00000000000E+00  0.10945017716E+04  0.10945017716E+04  0.00000000000E+00 0.  1.
          1   -1    0    0  501    0  0.00000000000E+00 -0.00000000000E+00 -0.12506490482E+04  0.12506490482E+04  0.00000000000E+00 0. -1.
         23    2    1    2    0    0 -0.75583476072E+02 -0.10476898519E+04 -0.59055805767E+03  0.12084540201E+04  0.90749168708E+02 0.  0.
         13    1    3    3    0    0  0.43813737549E+00 -0.59958640539E+03 -0.34847372701E+03  0.69349692711E+03  0.00000000000E+00 0.  1.
        -13    1    3    3    0    0 -0.76021613447E+02 -0.44810344654E+03 -0.24208433066E+03  0.51495709303E+03  0.00000000000E+00 0. -1.
         22    1    1    2    0    0  0.75583476072E+02  0.10476898519E+04  0.43441078104E+03  0.11366967997E+04  0.00000000000E+00 0.  1.
<mgrwt>
<rscale>  0 0.23399467E+04</rscale>
<asrwt>0</asrwt>
<pdfrwt beam="1">  1        1 0.19240754E+00 0.23399467E+04</pdfrwt>
<pdfrwt beam="2">  1       -1 0.16838489E+00 0.23399467E+04</pdfrwt>
<totfact> 0.22364126E+00</totfact>
</mgrwt>
</event>
<event>
 6    1  0.1585031E-006  0.2198866E+04  0.7818608E-02  0.8518900E-01
          1   -1    0    0  501    0  0.00000000000E+00  0.00000000000E+00  0.16810651571E+04  0.16810651571E+04  0.00000000000E+00 0. -1.
         -1   -1    0    0    0  501 -0.00000000000E+00 -0.00000000000E+00 -0.71903963168E+03  0.71903963168E+03  0.00000000000E+00 0.  1.
         23    2    1    2    0    0  0.10142577090E+04  0.40212170794E+03  0.35197593419E+03  0.11500723604E+04  0.91426514400E+02 0.  0.
         11    1    3    3    0    0  0.32868945766E+03  0.12003598643E+03  0.15698787520E+03  0.38352391135E+03  0.00000000000E+00 0. -1.
        -11    1    3    3    0    0  0.68556825136E+03  0.28208572151E+03  0.19498805900E+03  0.76654844903E+03  0.00000000000E+00 0.  1.
         22    1    1    2    0    0 -0.10142577090E+04 -0.40212170794E+03  0.61004959124E+03  0.12500324284E+04  0.00000000000E+00 0.  1.
<mgrwt>
<rscale>  0 0.21988656E+04</rscale>
<asrwt>0</asrwt>
<pdfrwt beam="1">  1        1 0.25862541E+00 0.21988656E+04</pdfrwt>
<pdfrwt beam="2">  1       -1 0.11062148E+00 0.21988656E+04</pdfrwt>
<totfact> 0.33711992E+00</totfact>
</mgrwt>
</event>
<event>
 6    1  0.1585031E-006  0.2477261E+04  0.7818608E-02  0.8411131E-01
          2   -1    0    0  501    0  0.00000000000E+00  0.00000000000E+00  0.12207002033E+04  0.12207002033E+04  0.00000000000E+00 0. -1.
         -2   -1    0    0    0  501 -0.00000000000E+00 -0.00000000000E+00 -0.12568240824E+04  0.12568240824E+04  0.00000000000E+00 0.  1.
         23    2    1    2    0    0  0.24793350274E+03 -0.79352658351E+03  0.89765589310E+03  0.12272842593E+04  0.96359172587E+02 0.  0.
         13    1    3    3    0    0  0.36327534927E+02 -0.24123585243E+03  0.22911312039E+03  0.33467483955E+03  0.00000000000E+00 0. -1.
        -13    1    3    3    0    0  0.21160596782E+03 -0.55229073107E+03  0.66854277271E+03  0.89260941973E+03  0.00000000000E+00 0.  1.
         22    1    1    2    0    0 -0.24793350274E+03  0.79352658351E+03 -0.93377977222E+03  0.12502400264E+04  0.00000000000E+00 0.  1.
<mgrwt>
<rscale>  0 0.24772609E+04</rscale>
<asrwt>0</asrwt>
<pdfrwt beam="1">  1        2 0.18780003E+00 0.24772609E+04</pdfrwt>
<pdfrwt beam="2">  1       -2 0.19335755E+00 0.24772609E+04</pdfrwt>
<totfact> 0.24210936E+00</totfact>
</mgrwt>
</event>
<event>
 6    1  0.1585031E-006  0.8388253E+03  0.7818608E-02  0.9505459E-01
          1   -1    0    0  501    0  0.00000000000E+00  0.00000000000E+00  0.16582803604E+04  0.16582803604E+04  0.00000000000E+00 0. -1.
         -1   -1    0    0    0  501 -0.00000000000E+00 -0.00000000000E+00 -0.10607795329E+03  0.10607795329E+03  0.00000000000E+00 0.  1.
         23    2    1    2    0    0  0.23248058755E+03  0.11031354294E+03  0.14695979614E+04  0.14940995566E+04  0.79993846162E+02 0.  0.
         13    1    3    3    0    0  0.11405598032E+03  0.24170461329E+02  0.81671695580E+03  0.82499670529E+03  0.00000000000E+00 0. -1.
        -13    1    3    3    0    0  0.11842460723E+03  0.86143081613E+02  0.65288100560E+03  0.66910285128E+03  0.00000000000E+00 0.  1.
         22    1    1    2    0    0 -0.23248058755E+03 -0.11031354294E+03  0.82604445686E+02  0.27025875710E+03  0.00000000000E+00 0.  1.
<mgrwt>
<rscale>  0 0.83882534E+03</rscale>
<asrwt>0</asrwt>
<pdfrwt beam="1">  1        1 0.25512004E+00 0.83882534E+03</pdfrwt>
<pdfrwt beam="2">  1       -1 0.16319686E-01 0.83882534E+03</pdfrwt>
<totfact> 0.14805676E+02</totfact>
</mgrwt>
</event>
<event>
 6    1  0.1585031E-006  0.1262512E+04  0.7818608E-02  0.9059833E-01
         -2   -1    0    0    0  501 -0.00000000000E+00  0.00000000000E+00  0.45402477219E+03  0.45402477219E+03  0.00000000000E+00 0.  1.
          2   -1    0    0  501    0  0.00000000000E+00 -0.00000000000E+00 -0.87767086688E+03  0.87767086688E+03  0.00000000000E+00 0. -1.
         23    2    1    2    0    0  0.32174874870E+03 -0.83714180174E+02  0.34910703100E+03  0.49045981332E+03  0.90248479992E+02 0.  0.
         13    1    3    3    0    0  0.10837485373E+03 -0.27548423863E+02  0.18228759152E+03  0.21385226350E+03  0.00000000000E+00 0.  1.
        -13    1    3    3    0    0  0.21337389496E+03 -0.56165756311E+02  0.16681943948E+03  0.27660754983E+03  0.00000000000E+00 0. -1.
         22    1    1    2    0    0 -0.32174874870E+03  0.83714180174E+02 -0.77275312569E+03  0.84123582574E+03  0.00000000000E+00 0. -1.
<mgrwt>
<rscale>  0 0.12625123E+04</rscale>
<asrwt>0</asrwt>
<pdfrwt beam="1">  1        2 0.13502628E+00 0.12625123E+04</pdfrwt>
<pdfrwt beam="2">  1       -2 0.69849966E-01 0.12625123E+04</pdfrwt>
<totfact> 0.55754789E+01</totfact>
</mgrwt>
</event>
<event>
 6    1  0.1585031E-006  0.2547660E+04  0.7818608E-02  0.8386201E-01
         -1   -1    0    0    0  501 -0.00000000000E+00  0.00000000000E+00  0.10333945607E+04  0.10333945607E+04  0.00000000000E+00 0.  1.
          1   -1    0    0  501    0  0.00000000000E+00 -0.00000000000E+00 -0.15702061366E+04  0.15702061366E+04  0.00000000000E+00 0. -1.
         23    2    1    2    0    0  0.99310659842E+03  0.12292148632E+03 -0.10715255959E+04  0.14690128908E+04  0.91985666702E+02 0.  0.
         13    1    3    3    0    0  0.66959026927E+03  0.12615600160E+03 -0.72597556570E+03  0.99564400638E+03  0.00000000000E+00 0. -1.
        -13    1    3    3    0    0  0.32351632915E+03 -0.32345152810E+01 -0.34555003021E+03  0.47336888437E+03  0.00000000000E+00 0.  1.
         22    1    1    2    0    0 -0.99310659842E+03 -0.12292148632E+03  0.53471401999E+03  0.11345878066E+04  0.00000000000E+00 0.  1.
<mgrwt>
<rscale>  0 0.25476597E+04</rscale>
<asrwt>0</asrwt>
<pdfrwt beam="1">  1        1 0.24157017E+00 0.25476597E+04</pdfrwt>
<pdfrwt beam="2">  1       -1 0.15898378E+00 0.25476597E+04</pdfrwt>
<totfact> 0.15397149E+00</totfact>
</mgrwt>
</event>
<event>
 6    1  0.1585031E-006  0.2187709E+04  0.7818608E-02  0.8523561E-01
          2   -1    0    0  501    0  0.00000000000E+00  0.00000000000E+00  0.18054949400E+04  0.18054949400E+04  0.00000000000E+00 0.  1.
         -2   -1    0    0    0  501 -0.00000000000E+00 -0.00000000000E+00 -0.66270921823E+03  0.66270921823E+03  0.00000000000E+00 0. -1.
         23    2    1    2    0    0 -0.10162486998E+02  0.27360693918E+03  0.17649788679E+04  0.17884333554E+04  0.91539222647E+02 0.  0.
         11    1    3    3    0    0 -0.21424152506E+02  0.13051643668E+03  0.58549508546E+03  0.60024830666E+03  0.00000000000E+00 0. -1.
        -11    1    3    3    0    0  0.11261665508E+02  0.14309050251E+03  0.11794837825E+04  0.11881850488E+04  0.00000000000E+00 0.  1.
         22    1    1    2    0    0  0.10162486998E+02 -0.27360693918E+03 -0.62219314612E+03  0.67977080284E+03  0.00000000000E+00 0. -1.
<mgrwt>
<rscale>  0 0.21877094E+04</rscale>
<asrwt>0</asrwt>
<pdfrwt beam="1">  1        2 0.27776845E+00 0.21877094E+04</pdfrwt>
<pdfrwt beam="2">  1       -2 0.10195526E+00 0.21877094E+04</pdfrwt>
<totfact> 0.61838343E+00</totfact>
</mgrwt>
</event>
<event>
 6    1  0.1585031E-006  0.2609708E+04  0.7818608E-02  0.8364911E-01
         -1   -1    0    0    0  501 -0.00000000000E+00  0.00000000000E+00  0.13060980305E+04  0.13060980305E+04  0.00000000000E+00 0.  1.
          1   -1    0    0  501    0  0.00000000000E+00 -0.00000000000E+00 -0.13036114515E+04  0.13036114515E+04  0.00000000000E+00 0. -1.
         23    2    1    2    0    0  0.92564605123E+03  0.88306226929E+03 -0.24753457839E+03  0.13062026110E+04  0.90952239762E+02 0.  0.
         13    1    3    3    0    0  0.69458389819E+03  0.65321538238E+03 -0.22397209076E+03  0.97943893369E+03  0.00000000000E+00 0.  1.
        -13    1    3    3    0    0  0.23106215304E+03  0.22984688692E+03 -0.23562487630E+02  0.32676367732E+03  0.00000000000E+00 0. -1.
         22    1    1    2    0    0 -0.92564605123E+03 -0.88306226929E+03  0.25002115742E+03  0.13035068710E+04  0.00000000000E+00 0.  1.
<mgrwt>
<rscale>  0 0.26097083E+04</rscale>
<asrwt>0</asrwt>
<pdfrwt beam="1">  1        1 0.20055561E+00 0.26097083E+04</pdfrwt>
<pdfrwt beam="2">  1       -1 0.20093816E+00 0.26097083E+04</pdfrwt>
<totfact> 0.11733564E+00</totfact>
</mgrwt>
</event>
<event>
 6    1  0.1585031E-006  0.2160549E+04  0.7818608E-02  0.8535030E-01
          2   -1    0    0  501    0  0.00000000000E+00  0.00000000000E+00  0.15970814361E+04  0.15970814361E+04  0.00000000000E+00 0.  1.
         -2   -1    0    0    0  501 -0.00000000000E+00 -0.00000000000E+00 -0.73070383766E+03  0.73070383766E+03  0.00000000000E+00 0. -1.
         23    2    1    2    0    0  0.28467735627E+03 -0.82124058396E+03  0.11215500375E+04  0.14219208978E+04  0.92234803978E+02 0.  0.
         13    1    3    3    0    0  0.18558916578E+01 -0.89861656963E+02  0.11217719147E+03  0.14374381382E+03  0.00000000000E+00 0.  1.
        -13    1    3    3    0    0  0.28282146462E+03 -0.73137892700E+03  0.10093728460E+04  0.12781770840E+04  0.00000000000E+00 0. -1.
         22    1    1    2    0    0 -0.28467735627E+03  0.82124058396E+03 -0.25517243908E+03  0.90586437594E+03  0.00000000000E+00 0. -1.
<mgrwt>
<rscale>  0 0.21605495E+04</rscale>
<asrwt>0</asrwt>
<pdfrwt beam="1">  1        2 0.24570484E+00 0.21605495E+04</pdfrwt>
<pdfrwt beam="2">  1       -2 0.11241598E+00 0.21605495E+04</pdfrwt>
<totfact> 0.63983750E+00</totfact>
</mgrwt>
</event>
<event>
 6    1  0.1585031E-006  0.1449637E+04  0.7818608E-02  0.8918652E-01
          1   -1    0    0  501    0  0.00000000000E+00  0.00000000000E+00  0.12640326730E+04  0.12640326730E+04  0.00000000000E+00 0. -1.
         -1   -1    0    0    0  501 -0.00000000000E+00 -0.00000000000E+00 -0.41562370772E+03  0.41562370772E+03  0.00000000000E+00 0.  1.
         23    2    1    2    0    0 -0.42065700243E+03 -0.11694061256E+03  0.10917395950E+04  0.11798191912E+04  0.97213990958E+02 0.  0.
         13    1    3    3    0    0 -0.19533834818E+03 -0.49973122360E+02  0.37866550162E+03  0.42900110180E+03  0.00000000000E+00 0. -1.
        -13    1    3    3    0    0 -0.22531865425E+03 -0.66967490200E+02  0.71307409343E+03  0.75081808943E+03  0.00000000000E+00 0.  1.
         22    1    1    2    0    0  0.42065700243E+03  0.11694061256E+03 -0.24333062981E+03  0.49983718945E+03  0.00000000000E+00 0.  1.
<mgrwt>
<rscale>  0 0.14496371E+04</rscale>
<asrwt>0</asrwt>
<pdfrwt beam="1">  1        1 0.19446656E+00 0.14496371E+04</pdfrwt>
<pdfrwt beam="2">  1       -1 0.63942110E-01 0.14496371E+04</pdfrwt>
<totfact> 0.23127427E+01</totfact>
</mgrwt>
</event>
<event>
 6    1  0.1585031E-006  0.2519108E+04  0.7818608E-02  0.8396210E-01
         -2   -1    0    0    0  501 -0.00000000000E+00  0.00000000000E+00  0.41388646702E+03  0.41388646702E+03  0.00000000000E+00 0.  1.
          2   -1    0    0  501    0  0.00000000000E+00 -0.00000000000E+00 -0.38331203194E+04  0.38331203194E+04  0.00000000000E+00 0. -1.
         23    2    1    2    0    0 -0.32131895407E+03 -0.22285104048E+03 -0.37275158512E+04  0.37490647746E+04  0.90574868341E+02 0.  0.
         13    1    3    3    0    0 -0.24159050387E+03 -0.14179265522E+03 -0.29515625260E+04  0.29648258758E+04  0.00000000000E+00 0.  1.
        -13    1    3    3    0    0 -0.79728450191E+02 -0.81058385258E+02 -0.77595332513E+03  0.78423889879E+03  0.00000000000E+00 0. -1.
         22    1    1    2    0    0  0.32131895407E+03  0.22285104048E+03  0.30828199872E+03  0.49794201190E+03  0.00000000000E+00 0.  1.
<mgrwt>
<rscale>  0 0.25191083E+04</rscale>
<asrwt>0</asrwt>
<pdfrwt beam="1">  1        2 0.58971081E+00 0.25191083E+04</pdfrwt>
<pdfrwt beam="2">  1       -2 0.63674842E-01 0.25191083E+04</pdfrwt>
<totfact> 0.94371795E-01</totfact>
</mgrwt>
</event>
<event>
 6    1  0.1585031E-006  0.1645690E+04  0.7818608E-02  0.8792961E-01
          1   -1    0    0  501    0  0.00000000000E+00  0.00000000000E+00  0.22101293837E+04  0.22101293837E+04  0.00000000000E+00 0. -1.
         -1   -1    0    0    0  501 -0.00000000000E+00 -0.00000000000E+00 -0.30635016376E+03  0.30635016376E+03  0.00000000000E+00 0.  1.
         23    2    1    2    0    0  0.32085292202E+03  0.21764998327E+03 -0.15128654247E+03  0.42516096805E+03  0.86925934214E+02 0.  0.
         11    1    3    3    0    0  0.22457435472E+03  0.13811996892E+03 -0.14318252871E+03  0.30002000456E+03  0.00000000000E+00 0. -1.
        -11    1    3    3    0    0  0.96278567302E+02  0.79530014353E+02 -0.81040137604E+01  0.12514096349E+03  0.00000000000E+00 0.  1.
         22    1    1    2    0    0 -0.32085292202E+03 -0.21764998327E+03  0.20550657624E+04  0.20913185794E+04  0.00000000000E+00 0. -1.
<mgrwt>
<rscale>  0 0.16456895E+04</rscale>
<asrwt>0</asrwt>
<pdfrwt beam="1">  1        1 0.34001990E+00 0.16456895E+04</pdfrwt>
<pdfrwt beam="2">  1       -1 0.47130796E-01 0.16456895E+04</pdfrwt>
<totfact> 0.92101345E+00</totfact>
</mgrwt>
</event>
<event>
 6    1  0.1585031E-006  0.1819863E+04  0.7818608E-02  0.8695807E-01
          1   -1    0    0  501    0  0.00000000000E+00  0.00000000000E+00  0.90254061211E+03  0.90254061211E+03  0.00000000000E+00 0. -1.
         -1   -1    0    0    0  501 -0.00000000000E+00 -0.00000000000E+00 -0.91738257295E+03  0.91738257295E+03  0.00000000000E+00 0.  1.
         23    2    1    2    0    0  0.42134165177E+03  0.78537027697E+03 -0.17809935676E+03  0.91383917307E+03  0.95117789553E+02 0.  0.
         11    1    3    3    0    0  0.10488305246E+03  0.12372374922E+03 -0.18558347531E+02  0.16325572908E+03  0.00000000000E+00 0. -1.
        -11    1    3    3    0    0  0.31645859931E+03  0.66164652775E+03 -0.15954100923E+03  0.75058344398E+03  0.00000000000E+00 0.  1.
         22    1    1    2    0    0 -0.42134165177E+03 -0.78537027697E+03  0.16325739593E+03  0.90608401199E+03  0.00000000000E+00 0. -1.
<mgrwt>
<rscale>  0 0.18198627E+04</rscale>
<asrwt>0</asrwt>
<pdfrwt beam="1">  1        1 0.13885240E+00 0.18198627E+04</pdfrwt>
<pdfrwt beam="2">  1       -1 0.14113578E+00 0.18198627E+04</pdfrwt>
<totfact> 0.70014322E+00</totfact>
</mgrwt>
</event>
<event>
 6    1  0.1585031E-006  0.2846481E+04  0.7818608E-02  0.8288981E-01
          2   -1    0    0  501    0  0.00000000000E+00  0.00000000000E+00  0.18699344004E+04  0.18699344004E+04  0.00000000000E+00 0. -1.
         -2   -1    0    0    0  501 -0.00000000000E+00 -0.00000000000E+00 -0.10832536906E+04  0.10832536906E+04  0.00000000000E+00 0.  1.
         23    2    1    2    0    0  0.15553617130E+03  0.76097584026E+03 -0.84179609122E+03  0.11489673668E+04  0.90717257045E+02 0.  0.
         11    1    3    3    0    0  0.40283733520E+02  0.27804782595E+03 -0.36502577851E+03  0.46062695501E+03  0.00000000000E+00 0.  1.
        -11    1    3    3    0    0  0.11525243778E+03  0.48292801431E+03 -0.47677031270E+03  0.68834041178E+03  0.00000000000E+00 0. -1.
         22    1    1    2    0    0 -0.15553617130E+03 -0.76097584026E+03  0.16284768011E+04  0.18042207242E+04  0.00000000000E+00 0. -1.
<mgrwt>
<rscale>  0 0.28464809E+04</rscale>
<asrwt>0</asrwt>
<pdfrwt beam="1">  1        2 0.28768222E+00 0.28464809E+04</pdfrwt>
<pdfrwt beam="2">  1       -2 0.16665441E+00 0.28464809E+04</pdfrwt>
<totfact> 0.15408154E+00</totfact>
</mgrwt>
</event>
<event>
 6    1  0.1585031E-006  0.4729307E+04  0.7818608E-02  0.7871677E-01
          2   -1    0    0  501    0  0.00000000000E+00  0.00000000000E+00  0.24731004080E+04  0.24731004080E+04  0.00000000000E+00 0.  1.
         -2   -1    0    0    0  501 -0.00000000000E+00 -0.00000000000E+00 -0.22609623895E+04  0.22609623895E+04  0.00000000000E+00 0. -1.
         23    2    1    2    0    0 -0.76963236292E+03 -0.19406059130E+04 -0.10039640464E+04  0.23180351661E+04  0.84011554119E+02 0.  0.
         13    1    3    3    0    0 -0.60006005966E+03 -0.15338026573E+04 -0.82866767876E+03  0.18437225356E+04  0.00000000000E+00 0. -1.
        -13    1    3    3    0    0 -0.16957230326E+03 -0.40680325571E+03 -0.17529636768E+03  0.47431263046E+03  0.00000000000E+00 0.  1.
         22    1    1    2    0    0  0.76963236292E+03  0.19406059130E+04  0.12161020649E+04  0.24160276314E+04  0.00000000000E+00 0.  1.
<mgrwt>
<rscale>  0 0.47293074E+04</rscale>
<asrwt>0</asrwt>
<pdfrwt beam="1">  1        2 0.38047699E+00 0.47293074E+04</pdfrwt>
<pdfrwt beam="2">  1       -2 0.34784037E+00 0.47293074E+04</pdfrwt>
<totfact> 0.43088300E-02</totfact>
</mgrwt>
</event>
<event>
 6    1  0.1585031E-006  0.6795882E+03  0.7818608E-02  0.9752790E-01
          1   -1    0    0  501    0  0.00000000000E+00  0.00000000000E+00  0.29614210315E+03  0.29614210315E+03  0.00000000000E+00 0. -1.
         -1   -1    0    0    0  501 -0.00000000000E+00 -0.00000000000E+00 -0.38988051299E+03  0.38988051299E+03  0.00000000000E+00 0.  1.
         23    2    1    2    0    0  0.29636964547E+03 -0.86625840521E+02  0.79807083108E+02  0.33182346153E+03  0.91644072932E+02 0.  0.
         13    1    3    3    0    0  0.91494449595E+02  0.91107243447E+01  0.47169803569E+02  0.10334035985E+03  0.00000000000E+00 0. -1.
        -13    1    3    3    0    0  0.20487519588E+03 -0.95736564866E+02  0.32637279538E+02  0.22848310168E+03  0.00000000000E+00 0.  1.
         22    1    1    2    0    0 -0.29636964547E+03  0.86625840521E+02 -0.17354549295E+03  0.35419915461E+03  0.00000000000E+00 0.  1.
<mgrwt>
<rscale>  0 0.67958821E+03</rscale>
<asrwt>0</asrwt>
<pdfrwt beam="1">  1        1 0.45560324E-01 0.67958821E+03</pdfrwt>
<pdfrwt beam="2">  1       -1 0.59981617E-01 0.67958821E+03</pdfrwt>
<totfact> 0.25492017E+02</totfact>
</mgrwt>
</event>
<event>
 6    1  0.1585031E-006  0.1294185E+04  0.7818608E-02  0.9034189E-01
         -1   -1    0    0    0  501 -0.00000000000E+00  0.00000000000E+00  0.49464248732E+03  0.49464248732E+03  0.00000000000E+00 0.  1.
          1   -1    0    0  501    0  0.00000000000E+00 -0.00000000000E+00 -0.84652816162E+03  0.84652816162E+03  0.00000000000E+00 0. -1.
         23    2    1    2    0    0 -0.39370440949E+03 -0.37467495149E+03  0.18113475211E+03  0.57992479095E+03  0.90102627138E+02 0.  0.
         11    1    3    3    0    0 -0.33845676413E+03 -0.27168743463E+03  0.14032243223E+03  0.45613312565E+03  0.00000000000E+00 0. -1.
        -11    1    3    3    0    0 -0.55247645355E+02 -0.10298751686E+03  0.40812319876E+02  0.12379166531E+03  0.00000000000E+00 0.  1.
         22    1    1    2    0    0  0.39370440949E+03  0.37467495149E+03 -0.53302042641E+03  0.76124585798E+03  0.00000000000E+00 0. -1.
<mgrwt>
<rscale>  0 0.12941851E+04</rscale>
<asrwt>0</asrwt>
<pdfrwt beam="1">  1        1 0.13023510E+00 0.12941851E+04</pdfrwt>
<pdfrwt beam="2">  1       -1 0.76098845E-01 0.12941851E+04</pdfrwt>
<totfact> 0.34382326E+01</totfact>
</mgrwt>
</event>
<event>
 6    1  0.1585031E-006  0.6369768E+03  0.7818608E-02  0.9831528E-01
          1   -1    0    0  501    0  0.00000000000E+00  0.00000000000E+00  0.20835516126E+03  0.20835516126E+03  0.00000000000E+00 0. -1.
         -1   -1    0    0    0  501 -0.00000000000E+00 -0.00000000000E+00 -0.48683635141E+03  0.48683635141E+03  0.00000000000E+00 0.  1.
         23    2    1    2    0    0 -0.23494249603E+03  0.63971469592E+01  0.81821550755E+02  0.26500903392E+03  0.91083049789E+02 0.  0.
         11    1    3    3    0    0 -0.18405690079E+03 -0.32992749269E+02  0.52008707966E+02  0.19408856210E+03  0.00000000000E+00 0.  1.
        -11    1    3    3    0    0 -0.50885595242E+02  0.39389896228E+02  0.29812842789E+02  0.70920471820E+02  0.00000000000E+00 0. -1.
         22    1    1    2    0    0  0.23494249603E+03 -0.63971469592E+01 -0.36030274091E+03  0.43018247876E+03  0.00000000000E+00 0.  1.
<mgrwt>
<rscale>  0 0.63697682E+03</rscale>
<asrwt>0</asrwt>
<pdfrwt beam="1">  1        1 0.32054640E-01 0.63697682E+03</pdfrwt>
<pdfrwt beam="2">  1       -1 0.74897900E-01 0.63697682E+03</pdfrwt>
<totfact> 0.25671821E+02</totfact>
</mgrwt>
</event>
<event>
 6    1  0.1585031E-006  0.1400928E+04  0.7818608E-02  0.8953147E-01
          2   -1    0    0  501    0  0.00000000000E+00  0.00000000000E+00  0.26870565105E+04  0.26870565105E+04  0.00000000000E+00 0. -1.
         -2   -1    0    0    0  501 -0.00000000000E+00 -0.00000000000E+00 -0.18259745861E+03  0.18259745861E+03  0.00000000000E+00 0.  1.
         23    2    1    2    0    0 -0.40419883405E+03 -0.69957505571E+02  0.10172131583E+03  0.43215127612E+03  0.90203931867E+02 0.  0.
         13    1    3    3    0    0 -0.15495562083E+03 -0.53219884063E+01 -0.68001004542E+00  0.15504847758E+03  0.00000000000E+00 0.  1.
        -13    1    3    3    0    0 -0.24924321322E+03 -0.64635517164E+02  0.10240132587E+03  0.27710279854E+03  0.00000000000E+00 0. -1.
         22    1    1    2    0    0  0.40419883405E+03  0.69957505571E+02  0.24027377361E+04  0.24375026930E+04  0.00000000000E+00 0. -1.
<mgrwt>
<rscale>  0 0.14009278E+04</rscale>
<asrwt>0</asrwt>
<pdfrwt beam="1">  1        2 0.41339328E+00 0.14009278E+04</pdfrwt>
<pdfrwt beam="2">  1       -2 0.28091919E-01 0.14009278E+04</pdfrwt>
<totfact> 0.30647323E+01</totfact>
</mgrwt>
</event>
<event>
 6    1  0.1585031E-006  0.6926214E+03  0.7818608E-02  0.9729934E-01
         -2   -1    0    0    0  501 -0.00000000000E+00  0.00000000000E+00  0.37875623157E+03  0.37875623157E+03  0.00000000000E+00 0.  1.
          2   -1    0    0  501    0  0.00000000000E+00 -0.00000000000E+00 -0.31664458529E+03  0.31664458529E+03  0.00000000000E+00 0. -1.
         23    2    1    2    0    0 -0.13256104891E+02  0.23094102209E+03 -0.21850543933E+03  0.33173142203E+03  0.93763688861E+02 0.  0.
         11    1    3    3    0    0 -0.45575127906E+02  0.64456728777E+02 -0.84025558195E+02  0.11529118179E+03  0.00000000000E+00 0.  1.
        -11    1    3    3    0    0  0.32319023015E+02  0.16648429331E+03 -0.13447988114E+03  0.21644024025E+03  0.00000000000E+00 0. -1.
         22    1    1    2    0    0  0.13256104891E+02 -0.23094102209E+03  0.28061708561E+03  0.36366939483E+03  0.00000000000E+00 0.  1.
<mgrwt>
<rscale>  0 0.69262143E+03</rscale>
<asrwt>0</asrwt>
<pdfrwt beam="1">  1        2 0.48714552E-01 0.69262143E+03</pdfrwt>
<pdfrwt beam="2">  1       -2 0.58270190E-01 0.69262143E+03</pdfrwt>
<totfact> 0.28754019E+02</totfact>
</mgrwt>
</event>
<event>
 6    1  0.1585031E-006  0.4317003E+03  0.7818608E-02  0.1033324E+00
          1   -1    0    0  501    0  0.00000000000E+00  0.00000000000E+00  0.91443962633E+03  0.91443962633E+03  0.00000000000E+00 0. -1.
         -1   -1    0    0    0  501 -0.00000000000E+00 -0.00000000000E+00 -0.50950640329E+02  0.50950640329E+02  0.00000000000E+00 0.  1.
         23    2    1    2    0    0 -0.19166432290E+02 -0.18236236620E+03  0.24030105971E+03  0.31578532810E+03  0.91391407749E+02 0.  0.
         13    1    3    3    0    0 -0.48602929529E+02 -0.79145137454E+02  0.78430961480E+02  0.12156320685E+03  0.00000000000E+00 0. -1.
        -13    1    3    3    0    0  0.29436497239E+02 -0.10321722874E+03  0.16187009823E+03  0.19422212125E+03  0.00000000000E+00 0.  1.
         22    1    1    2    0    0  0.19166432290E+02  0.18236236620E+03  0.62318792629E+03  0.64960493856E+03  0.00000000000E+00 0. -1.
<mgrwt>
<rscale>  0 0.43170029E+03</rscale>
<asrwt>0</asrwt>
<pdfrwt beam="1">  1        1 0.14068301E+00 0.43170029E+03</pdfrwt>
<pdfrwt beam="2">  1       -1 0.78385607E-02 0.43170029E+03</pdfrwt>
<totfact> 0.16534290E+03</totfact>
</mgrwt>
</event>
<event>
 6    1  0.1585031E-006  0.3430538E+04  0.7818608E-02  0.8130452E-01
          2   -1    0    0  501    0  0.00000000000E+00  0.00000000000E+00  0.16502734332E+04  0.16502734332E+04  0.00000000000E+00 0. -1.
         -2   -1    0    0    0  501 -0.00000000000E+00 -0.00000000000E+00 -0.17828244798E+04  0.17828244798E+04  0.00000000000E+00 0.  1.
         23    2    1    2    0    0 -0.40106705958E+02 -0.11750075846E+04 -0.13145253971E+04  0.17659702224E+04  0.91773825248E+02 0.  0.
         13    1    3    3    0    0 -0.35587779114E+02 -0.20848669536E+03 -0.20585979278E+03  0.29514648303E+03  0.00000000000E+00 0. -1.
        -13    1    3    3    0    0 -0.45189268444E+01 -0.96652088928E+03 -0.11086656043E+04  0.14708237394E+04  0.00000000000E+00 0.  1.
         22    1    1    2    0    0  0.40106705958E+02  0.11750075846E+04  0.11819743504E+04  0.16671276906E+04  0.00000000000E+00 0. -1.
<mgrwt>
<rscale>  0 0.34305381E+04</rscale>
<asrwt>0</asrwt>
<pdfrwt beam="1">  1        2 0.25388822E+00 0.34305381E+04</pdfrwt>
<pdfrwt beam="2">  1       -2 0.27428069E+00 0.34305381E+04</pdfrwt>
<totfact> 0.39421329E-01</totfact>
</mgrwt>
</event>
<event>
 6    1  0.1585031E-006  0.2435713E+04  0.7818608E-02  0.8426253E-01
          3   -1    0    0  501    0  0.00000000000E+00  0.00000000000E+00  0.62723892925E+03  0.62723892925E+03  0.00000000000E+00 0. -1.
         -3   -1    0    0    0  501 -0.00000000000E+00 -0.00000000000E+00 -0.23646090880E+04  0.23646090880E+04  0.00000000000E+00 0.  1.
         23    2    1    2    0    0  0.83251912680E+03 -0.33074457396E+03  0.14013358891E+03  0.91158351673E+03  0.94164831730E+02 0.  0.
         13    1    3    3    0    0  0.40151786869E+03 -0.15341303812E+03  0.20000921316E+02  0.43029315123E+03  0.00000000000E+00 0. -1.
        -13    1    3    3    0    0  0.43100125812E+03 -0.17733153585E+03  0.12013266760E+03  0.48129036550E+03  0.00000000000E+00 0.  1.
         22    1    1    2    0    0 -0.83251912680E+03  0.33074457396E+03 -0.18775037477E+04  0.20802645006E+04  0.00000000000E+00 0.  1.
<mgrwt>
<rscale>  0 0.24357133E+04</rscale>
<asrwt>0</asrwt>
<pdfrwt beam="1">  1        3 0.96498298E-01 0.24357133E+04</pdfrwt>
<pdfrwt beam="2">  1       -3 0.36378601E+00 0.24357133E+04</pdfrwt>
<totfact> 0.37285381E-02</totfact>
</mgrwt>
</event>
<event>
 6    1  0.1585031E-006  0.3144242E+04  0.7818608E-02  0.8203700E-01
          2   -1    0    0  501    0  0.00000000000E+00  0.00000000000E+00  0.24406720605E+04  0.24406720605E+04  0.00000000000E+00 0. -1.
         -2   -1    0    0    0  501 -0.00000000000E+00 -0.00000000000E+00 -0.10126575824E+04  0.10126575824E+04  0.00000000000E+00 0.  1.
         23    2    1    2    0    0 -0.26008943899E+03 -0.10993407370E+03  0.24116935476E+04  0.24299252612E+04  0.92406660324E+02 0.  0.
         11    1    3    3    0    0 -0.87234167514E+02  0.52405030436E+01  0.59207647568E+03  0.59849128307E+03  0.00000000000E+00 0.  1.
        -11    1    3    3    0    0 -0.17285527148E+03 -0.11517457674E+03  0.18196170719E+04  0.18314339782E+04  0.00000000000E+00 0. -1.
         22    1    1    2    0    0  0.26008943899E+03  0.10993407370E+03 -0.98367906946E+03  0.10234043817E+04  0.00000000000E+00 0.  1.
<mgrwt>
<rscale>  0 0.31442424E+04</rscale>
<asrwt>0</asrwt>
<pdfrwt beam="1">  1        2 0.37548801E+00 0.31442424E+04</pdfrwt>
<pdfrwt beam="2">  1       -2 0.15579347E+00 0.31442424E+04</pdfrwt>
<totfact> 0.86275536E-01</totfact>
</mgrwt>
</event>
<event>
 6    1  0.1585031E-006  0.1727788E+04  0.7818608E-02  0.8745673E-01
          1   -1    0    0  501    0  0.00000000000E+00  0.00000000000E+00  0.26156512690E+04  0.26156512690E+04  0.00000000000E+00 0. -1.
         -1   -1    0    0    0  501 -0.00000000000E+00 -0.00000000000E+00 -0.28532590189E+03  0.28532590189E+03  0.00000000000E+00 0.  1.
         23    2    1    2    0    0  0.34185361385E+03 -0.48721572451E+03  0.12324709823E+03  0.61505557546E+03  0.94130006723E+02 0.  0.
         11    1    3    3    0    0  0.21800732033E+03 -0.38219061943E+03  0.97062021397E+02  0.45057507398E+03  0.00000000000E+00 0. -1.
        -11    1    3    3    0    0  0.12384629353E+03 -0.10502510508E+03  0.26185076834E+02  0.16448050148E+03  0.00000000000E+00 0.  1.
         22    1    1    2    0    0 -0.34185361385E+03  0.48721572451E+03  0.22070782688E+04  0.22859215954E+04  0.00000000000E+00 0. -1.
<mgrwt>
<rscale>  0 0.17277882E+04</rscale>
<asrwt>0</asrwt>
<pdfrwt beam="1">  1        1 0.40240787E+00 0.17277882E+04</pdfrwt>
<pdfrwt beam="2">  1       -1 0.43896294E-01 0.17277882E+04</pdfrwt>
<totfact> 0.54894082E+00</totfact>
</mgrwt>
</event>
<event>
 6    1  0.1585031E-006  0.1091229E+04  0.7818608E-02  0.9213783E-01
         -1   -1    0    0    0  501 -0.00000000000E+00  0.00000000000E+00  0.10944150590E+04  0.10944150590E+04  0.00000000000E+00 0.  1.
          1   -1    0    0  501    0  0.00000000000E+00 -0.00000000000E+00 -0.27201293284E+03  0.27201293284E+03  0.00000000000E+00 0. -1.
         23    2    1    2    0    0 -0.11278893523E+03 -0.37054346389E+03  0.88825469377E+03  0.97354077749E+03  0.93602574215E+02 0.  0.
         13    1    3    3    0    0 -0.11297654404E+03 -0.21752864087E+03  0.56643950035E+03  0.61720022412E+03  0.00000000000E+00 0. -1.
        -13    1    3    3    0    0  0.18760881230E+00 -0.15301482302E+03  0.32181519342E+03  0.35634055337E+03  0.00000000000E+00 0.  1.
         22    1    1    2    0    0  0.11278893523E+03  0.37054346389E+03 -0.65852567597E+02  0.39288721435E+03  0.00000000000E+00 0. -1.
<mgrwt>
<rscale>  0 0.10912288E+04</rscale>
<asrwt>0</asrwt>
<pdfrwt beam="1">  1        1 0.41848144E-01 0.10912288E+04</pdfrwt>
<pdfrwt beam="2">  1       -1 0.16837155E+00 0.10912288E+04</pdfrwt>
<totfact> 0.25132625E+01</totfact>
</mgrwt>
</event>
<event>
 6    1  0.1585031E-006  0.1862962E+04  0.7818608E-02  0.8673516E-01
          1   -1    0    0  501    0  0.00000000000E+00  0.00000000000E+00  0.52071741872E+03  0.52071741872E+03  0.00000000000E+00 0. -1.
         -1   -1    0    0    0  501 -0.00000000000E+00 -0.00000000000E+00 -0.16662714643E+04  0.16662714643E+04  0.00000000000E+00 0.  1.
         23    2    1    2    0    0  0.45514379303E+03 -0.73380105108E+03 -0.97738572284E+03  0.13072727699E+04  0.89774098664E+02 0.  0.
         11    1    3    3    0    0  0.24933961668E+03 -0.48415587852E+03 -0.60903716706E+03  0.81700883104E+03  0.00000000000E+00 0.  1.
        -11    1    3    3    0    0  0.20580417635E+03 -0.24964517257E+03 -0.36834855578E+03  0.49026393884E+03  0.00000000000E+00 0. -1.
         22    1    1    2    0    0 -0.45514379303E+03  0.73380105108E+03 -0.16816832272E+03  0.87971611311E+03  0.00000000000E+00 0. -1.
<mgrwt>
<rscale>  0 0.18629617E+04</rscale>
<asrwt>0</asrwt>
<pdfrwt beam="1">  1        1 0.80110373E-01 0.18629617E+04</pdfrwt>
<pdfrwt beam="2">  1       -1 0.25634945E+00 0.18629617E+04</pdfrwt>
<totfact> 0.24920942E+00</totfact>
</mgrwt>
</event>
<event>
 6    1  0.1585031E-006  0.2827084E+04  0.7818608E-02  0.8294909E-01
         -1   -1    0    0    0  501 -0.00000000000E+00  0.00000000000E+00  0.88150959889E+03  0.88150959889E+03  0.00000000000E+00 0.  1.
          1   -1    0    0  501    0  0.00000000000E+00 -0.00000000000E+00 -0.22666808595E+04  0.22666808595E+04  0.00000000000E+00 0. -1.
         23    2    1    2    0    0  0.12280789820E+04  0.46048086169E+03 -0.11076241910E+03  0.13194371931E+04  0.91790973391E+02 0.  0.
         13    1    3    3    0    0  0.73666965350E+03  0.24941818468E+03 -0.27987305936E+02  0.77825117959E+03  0.00000000000E+00 0. -1.
        -13    1    3    3    0    0  0.49140932855E+03  0.21106267701E+03 -0.82775113160E+02  0.54118601347E+03  0.00000000000E+00 0.  1.
         22    1    1    2    0    0 -0.12280789820E+04 -0.46048086169E+03 -0.12744088415E+04  0.18287532653E+04  0.00000000000E+00 0. -1.
<mgrwt>
<rscale>  0 0.28270840E+04</rscale>
<asrwt>0</asrwt>
<pdfrwt beam="1">  1        1 0.34872013E+00 0.28270840E+04</pdfrwt>
<pdfrwt beam="2">  1       -1 0.13561686E+00 0.28270840E+04</pdfrwt>
<totfact> 0.77114773E-01</totfact>
</mgrwt>
</event>
<event>
 6    1  0.1585031E-006  0.1352522E+04  0.7818608E-02  0.8988921E-01
         -1   -1    0    0    0  501 -0.00000000000E+00  0.00000000000E+00  0.19254290791E+03  0.19254290791E+03  0.00000000000E+00 0. -1.
          1   -1    0    0  501    0  0.00000000000E+00 -0.00000000000E+00 -0.23752061907E+04  0.23752061907E+04  0.00000000000E+00 0.  1.
         23    2    1    2    0    0  0.26359960319E+03  0.58753648026E+03 -0.72334244398E+03  0.97266252509E+03  0.90356128845E+02 0.  0.
         11    1    3    3    0    0  0.26048528615E+03  0.56797645860E+03 -0.71863254839E+03  0.95230382832E+03  0.00000000000E+00 0. -1.
        -11    1    3    3    0    0  0.31143170430E+01  0.19560021651E+02 -0.47098955856E+01  0.20358696767E+02  0.00000000000E+00 0.  1.
         22    1    1    2    0    0 -0.26359960319E+03 -0.58753648026E+03 -0.14593208388E+04  0.15950865735E+04  0.00000000000E+00 0.  1.
<mgrwt>
<rscale>  0 0.13525222E+04</rscale>
<asrwt>0</asrwt>
<pdfrwt beam="1">  1        1 0.36541633E+00 0.13525222E+04</pdfrwt>
<pdfrwt beam="2">  1       -1 0.29621987E-01 0.13525222E+04</pdfrwt>
<totfact> 0.16925274E+01</totfact>
</mgrwt>
</event>
<event>
 6    1  0.1585031E-006  0.1491234E+04  0.7818608E-02  0.8890303E-01
          1   -1    0    0  501    0  0.00000000000E+00  0.00000000000E+00  0.17647670758E+04  0.17647670758E+04  0.00000000000E+00 0. -1.
         -1   -1    0    0    0  501 -0.00000000000E+00 -0.00000000000E+00 -0.31502451994E+03  0.31502451994E+03  0.00000000000E+00 0.  1.
         23    2    1    2    0    0 -0.57846841914E+03 -0.30175576679E+03  0.23327580494E+03  0.69940266111E+03  0.95206231253E+02 0.  0.
         11    1    3    3    0    0 -0.11312923228E+03 -0.66418839768E+02  0.82092663668E+01  0.13144229733E+03  0.00000000000E+00 0. -1.
        -11    1    3    3    0    0 -0.46533918686E+03 -0.23533692702E+03  0.22506653857E+03  0.56796036378E+03  0.00000000000E+00 0.  1.
         22    1    1    2    0    0  0.57846841914E+03  0.30175576679E+03  0.12164667509E+04  0.13803889346E+04  0.00000000000E+00 0. -1.
<mgrwt>
<rscale>  0 0.14912343E+04</rscale>
<asrwt>0</asrwt>
<pdfrwt beam="1">  1        1 0.27150262E+00 0.14912343E+04</pdfrwt>
<pdfrwt beam="2">  1       -1 0.48465312E-01 0.14912343E+04</pdfrwt>
<totfact> 0.17752632E+01</totfact>
</mgrwt>
</event>
<event>
 6    1  0.1585031E-006  0.3131623E+04  0.7818608E-02  0.8207112E-01
         -2   -1    0    0    0  501 -0.00000000000E+00  0.00000000000E+00  0.17504931633E+04  0.17504931633E+04  0.00000000000E+00 0.  1.
          2   -1    0    0  501    0  0.00000000000E+00 -0.00000000000E+00 -0.14006146844E+04  0.14006146844E+04  0.00000000000E+00 0. -1.
         23    2    1    2    0    0 -0.48951200432E+03 -0.13588035967E+04  0.78029399709E+03  0.16440488790E+04  0.89826377261E+02 0.  0.
         11    1    3    3    0    0 -0.43012409866E+03 -0.11792899826E+04  0.71109821378E+03  0.14427031133E+04  0.00000000000E+00 0. -1.
        -11    1    3    3    0    0 -0.59387905669E+02 -0.17951361405E+03  0.69195783311E+02  0.20134576578E+03  0.00000000000E+00 0.  1.
         22    1    1    2    0    0  0.48951200432E+03  0.13588035967E+04 -0.43041551827E+03  0.15070589687E+04  0.00000000000E+00 0. -1.
<mgrwt>
<rscale>  0 0.31316235E+04</rscale>
<asrwt>0</asrwt>
<pdfrwt beam="1">  1        2 0.21547918E+00 0.31316235E+04</pdfrwt>
<pdfrwt beam="2">  1       -2 0.26930664E+00 0.31316235E+04</pdfrwt>
<totfact> 0.59923395E-01</totfact>
</mgrwt>
</event>
<event>
 6    1  0.1585031E-006  0.1666252E+04  0.7818608E-02  0.8780850E-01
          1   -1    0    0  501    0  0.00000000000E+00  0.00000000000E+00  0.17037131552E+04  0.17037131552E+04  0.00000000000E+00 0. -1.
         -1   -1    0    0    0  501 -0.00000000000E+00 -0.00000000000E+00 -0.40740358096E+03  0.40740358096E+03  0.00000000000E+00 0.  1.
         23    2    1    2    0    0  0.99659757016E+02 -0.72666665231E+03  0.15561667463E+03  0.75496158945E+03  0.88170070692E+02 0.  0.
         11    1    3    3    0    0  0.94233868797E+02 -0.45096254061E+03  0.68481684101E+02  0.46576493655E+03  0.00000000000E+00 0. -1.
        -11    1    3    3    0    0  0.54258882188E+01 -0.27570411171E+03  0.87134990526E+02  0.28919665290E+03  0.00000000000E+00 0.  1.
         22    1    1    2    0    0 -0.99659757016E+02  0.72666665231E+03  0.11406928997E+04  0.13561551468E+04  0.00000000000E+00 0. -1.
<mgrwt>
<rscale>  0 0.16662519E+04</rscale>
<asrwt>0</asrwt>
<pdfrwt beam="1">  1        1 0.26210971E+00 0.16662519E+04</pdfrwt>
<pdfrwt beam="2">  1       -1 0.62677475E-01 0.16662519E+04</pdfrwt>
<totfact> 0.11674383E+01</totfact>
</mgrwt>
</event>
<event>
 6    1  0.1585031E-006  0.3837862E+04  0.7818608E-02  0.8038078E-01
         -1   -1    0    0    0  501 -0.00000000000E+00  0.00000000000E+00  0.14729636401E+04  0.14729636401E+04  0.00000000000E+00 0.  1.
          1   -1    0    0  501    0  0.00000000000E+00 -0.00000000000E+00 -0.24999230218E+04  0.24999230218E+04  0.00000000000E+00 0. -1.
         23    2    1    2    0    0 -0.69900895933E+03  0.12206921273E+04 -0.18632831725E+04  0.23363842091E+04  0.90355946107E+02 0.  0.
         11    1    3    3    0    0 -0.59237334108E+03  0.96287950811E+03 -0.15031120795E+04  0.18807947910E+04  0.00000000000E+00 0.  1.
        -11    1    3    3    0    0 -0.10663561825E+03  0.25781261915E+03 -0.36017109300E+03  0.45558941812E+03  0.00000000000E+00 0. -1.
         22    1    1    2    0    0  0.69900895933E+03 -0.12206921273E+04  0.83632379082E+03  0.16365024528E+04  0.00000000000E+00 0.  1.
<mgrwt>
<rscale>  0 0.38378618E+04</rscale>
<asrwt>0</asrwt>
<pdfrwt beam="1">  1        1 0.38460354E+00 0.38378618E+04</pdfrwt>
<pdfrwt beam="2">  1       -1 0.22660979E+00 0.38378618E+04</pdfrwt>
<totfact> 0.10683647E-01</totfact>
</mgrwt>
</event>
<event>
 6    1  0.1585031E-006  0.5091615E+04  0.7818608E-02  0.7814528E-01
          2   -1    0    0  501    0  0.00000000000E+00  0.00000000000E+00  0.24182180287E+04  0.24182180287E+04  0.00000000000E+00 0. -1.
         -2   -1    0    0    0  501 -0.00000000000E+00 -0.00000000000E+00 -0.26801290924E+04  0.26801290924E+04  0.00000000000E+00 0.  1.
         23    2    1    2    0    0 -0.14294270858E+04 -0.17340305388E+04  0.10650486001E+04  0.24885682699E+04  0.92302819409E+02 0.  0.
         11    1    3    3    0    0 -0.12128370862E+04 -0.14468960221E+04  0.86084680792E+03  0.20749793066E+04  0.00000000000E+00 0.  1.
        -11    1    3    3    0    0 -0.21658999964E+03 -0.28713451668E+03  0.20420179216E+03  0.41358896326E+03  0.00000000000E+00 0. -1.
         22    1    1    2    0    0  0.14294270858E+04  0.17340305388E+04 -0.13269596637E+04  0.26097788512E+04  0.00000000000E+00 0.  1.
<mgrwt>
<rscale>  0 0.50916153E+04</rscale>
<asrwt>0</asrwt>
<pdfrwt beam="1">  1        2 0.37203354E+00 0.50916153E+04</pdfrwt>
<pdfrwt beam="2">  1       -2 0.41232755E+00 0.50916153E+04</pdfrwt>
<totfact> 0.17300515E-02</totfact>
</mgrwt>
</event>
<event>
 6    1  0.1585031E-006  0.1350870E+04  0.7818608E-02  0.8990170E-01
         -1   -1    0    0    0  501 -0.00000000000E+00  0.00000000000E+00  0.75263338627E+03  0.75263338627E+03  0.00000000000E+00 0.  1.
          1   -1    0    0  501    0  0.00000000000E+00 -0.00000000000E+00 -0.60615453504E+03  0.60615453504E+03  0.00000000000E+00 0. -1.
         23    2    1    2    0    0  0.39511372546E+03 -0.53296105729E+03 -0.36652660390E+02  0.67052961575E+03  0.90023349434E+02 0.  0.
         13    1    3    3    0    0  0.17930053663E+03 -0.28957414133E+03  0.16199813699E+02  0.34097551192E+03  0.00000000000E+00 0.  1.
        -13    1    3    3    0    0  0.21581318882E+03 -0.24338691596E+03 -0.52852474089E+02  0.32955410383E+03  0.00000000000E+00 0. -1.
         22    1    1    2    0    0 -0.39511372546E+03  0.53296105729E+03  0.18313151161E+03  0.68825830557E+03  0.00000000000E+00 0. -1.
<mgrwt>
<rscale>  0 0.13508696E+04</rscale>
<asrwt>0</asrwt>
<pdfrwt beam="1">  1        1 0.93254543E-01 0.13508696E+04</pdfrwt>
<pdfrwt beam="2">  1       -1 0.11578975E+00 0.13508696E+04</pdfrwt>
<totfact> 0.22309818E+01</totfact>
</mgrwt>
</event>
<event>
 6    1  0.1585031E-006  0.1432003E+04  0.7818608E-02  0.8930974E-01
         -2   -1    0    0    0  501 -0.00000000000E+00  0.00000000000E+00  0.22478399032E+03  0.22478399032E+03  0.00000000000E+00 0.  1.
          2   -1    0    0  501    0  0.00000000000E+00 -0.00000000000E+00 -0.22806699244E+04  0.22806699244E+04  0.00000000000E+00 0. -1.
         23    2    1    2    0    0  0.65287182437E+03 -0.26898127927E+03 -0.85694623278E+03  0.11140341524E+04  0.90126018299E+02 0.  0.
         11    1    3    3    0    0  0.29024364752E+03 -0.15298294963E+03 -0.44801209551E+03  0.55530171576E+03  0.00000000000E+00 0. -1.
        -11    1    3    3    0    0  0.36262817684E+03 -0.11599832965E+03 -0.40893413727E+03  0.55873243664E+03  0.00000000000E+00 0.  1.
         22    1    1    2    0    0 -0.65287182437E+03  0.26898127927E+03 -0.11989397013E+04  0.13914197623E+04  0.00000000000E+00 0. -1.
<mgrwt>
<rscale>  0 0.14320029E+04</rscale>
<asrwt>0</asrwt>
<pdfrwt beam="1">  1        2 0.35087227E+00 0.14320029E+04</pdfrwt>
<pdfrwt beam="2">  1       -2 0.34582154E-01 0.14320029E+04</pdfrwt>
<totfact> 0.35457500E+01</totfact>
</mgrwt>
</event>
<event>
 6    1  0.1585031E-006  0.2225790E+04  0.7818608E-02  0.8507770E-01
         -1   -1    0    0    0  501 -0.00000000000E+00  0.00000000000E+00  0.83757812767E+03  0.83757812767E+03  0.00000000000E+00 0.  1.
          1   -1    0    0  501    0  0.00000000000E+00 -0.00000000000E+00 -0.14787096811E+04  0.14787096811E+04  0.00000000000E+00 0. -1.
         23    2    1    2    0    0  0.80571592719E+03  0.48360819323E+03  0.29294682574E+03  0.99131329643E+03  0.11759748761E+03 0.  0.
         13    1    3    3    0    0  0.48703897123E+03  0.26779495599E+03  0.11634559760E+03  0.56785332264E+03  0.00000000000E+00 0.  1.
        -13    1    3    3    0    0  0.31867695596E+03  0.21581323724E+03  0.17660122814E+03  0.42345997379E+03  0.00000000000E+00 0. -1.
         22    1    1    2    0    0 -0.80571592719E+03 -0.48360819323E+03 -0.93407837914E+03  0.13249745123E+04  0.00000000000E+00 0. -1.
<mgrwt>
<rscale>  0 0.22257896E+04</rscale>
<asrwt>0</asrwt>
<pdfrwt beam="1">  1        1 0.22749380E+00 0.22257896E+04</pdfrwt>
<pdfrwt beam="2">  1       -1 0.12885817E+00 0.22257896E+04</pdfrwt>
<totfact> 0.31928805E+00</totfact>
</mgrwt>
</event>
<event>
 6    1  0.1585031E-006  0.1026524E+04  0.7818608E-02  0.9279922E-01
          1   -1    0    0  501    0  0.00000000000E+00  0.00000000000E+00  0.26101243803E+04  0.26101243803E+04  0.00000000000E+00 0. -1.
         -1   -1    0    0    0  501 -0.00000000000E+00 -0.00000000000E+00 -0.10092933750E+03  0.10092933750E+03  0.00000000000E+00 0.  1.
         23    2    1    2    0    0 -0.34199537120E+03 -0.36530266489E+03  0.15127300302E+04  0.15959979380E+04  0.91926071813E+02 0.  0.
         11    1    3    3    0    0 -0.94223952142E+02 -0.14920796418E+03  0.44180904271E+03  0.47574825270E+03  0.00000000000E+00 0.  1.
        -11    1    3    3    0    0 -0.24777141906E+03 -0.21609470071E+03  0.10709209875E+04  0.11202496853E+04  0.00000000000E+00 0. -1.
         22    1    1    2    0    0  0.34199537120E+03  0.36530266489E+03  0.99646501252E+03  0.11150557798E+04  0.00000000000E+00 0.  1.
<mgrwt>
<rscale>  0 0.10265245E+04</rscale>
<asrwt>0</asrwt>
<pdfrwt beam="1">  1        1 0.40155755E+00 0.10265245E+04</pdfrwt>
<pdfrwt beam="2">  1       -1 0.15527592E-01 0.10265245E+04</pdfrwt>
<totfact> 0.35817086E+01</totfact>
</mgrwt>
</event>
<event>
 6    1  0.1585031E-006  0.7617982E+03  0.7818608E-02  0.9617021E-01
         -1   -1    0    0    0  501 -0.00000000000E+00  0.00000000000E+00  0.16480879170E+03  0.16480879170E+03  0.00000000000E+00 0.  1.
          1   -1    0    0  501    0  0.00000000000E+00 -0.00000000000E+00 -0.88031789356E+03  0.88031789356E+03  0.00000000000E+00 0. -1.
         23    2    1    2    0    0  0.28226939595E+03  0.24732315383E+03 -0.35002192282E+03  0.52127018548E+03  0.91446735931E+02 0.  0.
         13    1    3    3    0    0  0.17287651074E+03  0.15847121791E+03 -0.27566573842E+03  0.36192680780E+03  0.00000000000E+00 0. -1.
        -13    1    3    3    0    0  0.10939288521E+03  0.88851935920E+02 -0.74356184399E+02  0.15934337768E+03  0.00000000000E+00 0.  1.
         22    1    1    2    0    0 -0.28226939595E+03 -0.24732315383E+03 -0.36548717905E+03  0.52385649977E+03  0.00000000000E+00 0.  1.
<mgrwt>
<rscale>  0 0.76179821E+03</rscale>
<asrwt>0</asrwt>
<pdfrwt beam="1">  1        1 0.13543352E+00 0.76179821E+03</pdfrwt>
<pdfrwt beam="2">  1       -1 0.25355199E-01 0.76179821E+03</pdfrwt>
<totfact> 0.26096045E+02</totfact>
</mgrwt>
</event>
<event>
 6    1  0.1585031E-006  0.6772945E+03  0.7818608E-02  0.9756869E-01
          1   -1    0    0  501    0  0.00000000000E+00  0.00000000000E+00  0.81882326412E+03  0.81882326412E+03  0.00000000000E+00 0. -1.
         -1   -1    0    0    0  501 -0.00000000000E+00 -0.00000000000E+00 -0.14005701734E+03  0.14005701734E+03  0.00000000000E+00 0.  1.
         23    2    1    2    0    0 -0.20749904189E+03  0.25916017487E+03  0.34623019662E+03  0.48898659850E+03  0.94935219169E+02 0.  0.
         13    1    3    3    0    0 -0.16032415398E+03  0.22445720313E+03  0.32597572236E+03  0.42701878407E+03  0.00000000000E+00 0.  1.
        -13    1    3    3    0    0 -0.47174887911E+02  0.34702971742E+02  0.20254474258E+02  0.61967814425E+02  0.00000000000E+00 0. -1.
         22    1    1    2    0    0  0.20749904189E+03 -0.25916017487E+03  0.33253605017E+03  0.46989368296E+03  0.00000000000E+00 0.  1.
<mgrwt>
<rscale>  0 0.67729445E+03</rscale>
<asrwt>0</asrwt>
<pdfrwt beam="1">  1        1 0.12597281E+00 0.67729445E+03</pdfrwt>
<pdfrwt beam="2">  1       -1 0.21547234E-01 0.67729445E+03</pdfrwt>
<totfact> 0.38854098E+02</totfact>
</mgrwt>
</event>
<event>
 6    1  0.1585031E-006  0.2340780E+04  0.7818608E-02  0.8462014E-01
         -3   -1    0    0    0  501 -0.00000000000E+00  0.00000000000E+00  0.15395893554E+04  0.15395893554E+04  0.00000000000E+00 0.  1.
          3   -1    0    0  501    0  0.00000000000E+00 -0.00000000000E+00 -0.88972571584E+03  0.88972571584E+03  0.00000000000E+00 0. -1.
         23    2    1    2    0    0  0.98354870537E+03 -0.12039015766E+02  0.98036906269E+03  0.13916509500E+04  0.89754519968E+02 0.  0.
         11    1    3    3    0    0  0.86670711650E+03 -0.20811774624E+02  0.82240464755E+03  0.11949743763E+04  0.00000000000E+00 0.  1.
        -11    1    3    3    0    0  0.11684158887E+03  0.87727588581E+01  0.15796441514E+03  0.19667657369E+03  0.00000000000E+00 0. -1.
         22    1    1    2    0    0 -0.98354870537E+03  0.12039015766E+02 -0.33050542315E+03  0.10376641212E+04  0.00000000000E+00 0. -1.
<mgrwt>
<rscale>  0 0.23407796E+04</rscale>
<asrwt>0</asrwt>
<pdfrwt beam="1">  1        3 0.13688088E+00 0.23407796E+04</pdfrwt>
<pdfrwt beam="2">  1       -3 0.23685990E+00 0.23407796E+04</pdfrwt>
<totfact> 0.84077828E-02</totfact>
</mgrwt>
</event>
<event>
 6    1  0.1585031E-006  0.1654463E+04  0.7818608E-02  0.8787771E-01
          2   -1    0    0  501    0  0.00000000000E+00  0.00000000000E+00  0.44042126536E+04  0.44042126536E+04  0.00000000000E+00 0. -1.
         -2   -1    0    0    0  501 -0.00000000000E+00 -0.00000000000E+00 -0.15537670607E+03  0.15537670607E+03  0.00000000000E+00 0.  1.
         23    2    1    2    0    0  0.23675727246E+03  0.47100046902E+03  0.38787590645E+04  0.39154990343E+04  0.92007387020E+02 0.  0.
         11    1    3    3    0    0  0.14925495445E+03  0.38282836579E+03  0.29886886081E+04  0.30168019814E+04  0.00000000000E+00 0.  1.
        -11    1    3    3    0    0  0.87502318007E+02  0.88172103228E+02  0.89007045643E+03  0.89869705288E+03  0.00000000000E+00 0. -1.
         22    1    1    2    0    0 -0.23675727246E+03 -0.47100046902E+03  0.37007688303E+03  0.64409032537E+03  0.00000000000E+00 0.  1.
<mgrwt>
<rscale>  0 0.16544631E+04</rscale>
<asrwt>0</asrwt>
<pdfrwt beam="1">  1        2 0.67757108E+00 0.16544631E+04</pdfrwt>
<pdfrwt beam="2">  1       -2 0.23904112E-01 0.16544631E+04</pdfrwt>
<totfact> 0.23196056E+00</totfact>
</mgrwt>
</event>
<event>
 6    1  0.1585031E-006  0.3752151E+03  0.7818608E-02  0.1052717E+00
          1   -1    0    0  501    0  0.00000000000E+00  0.00000000000E+00  0.73653384616E+03  0.73653384616E+03  0.00000000000E+00 0. -1.
         -1   -1    0    0    0  501 -0.00000000000E+00 -0.00000000000E+00 -0.47786808232E+02  0.47786808232E+02  0.00000000000E+00 0.  1.
         23    2    1    2    0    0 -0.10382482096E+03 -0.29651852121E+02  0.72169885510E+02  0.15836042349E+03  0.90612943738E+02 0.  0.
         11    1    3    3    0    0 -0.48339368332E+02  0.31359409872E+02  0.21113657310E+02  0.61366877412E+02  0.00000000000E+00 0.  1.
        -11    1    3    3    0    0 -0.55485452629E+02 -0.61011261994E+02  0.51056228201E+02  0.96993546082E+02  0.00000000000E+00 0. -1.
         22    1    1    2    0    0  0.10382482096E+03  0.29651852121E+02  0.61657715241E+03  0.62596023089E+03  0.00000000000E+00 0. -1.
<mgrwt>
<rscale>  0 0.37521515E+03</rscale>
<asrwt>0</asrwt>
<pdfrwt beam="1">  1        1 0.11331289E+00 0.37521515E+03</pdfrwt>
<pdfrwt beam="2">  1       -1 0.73518172E-02 0.37521515E+03</pdfrwt>
<totfact> 0.25702512E+03</totfact>
</mgrwt>
</event>
<event>
 6    1  0.1585031E-006  0.1394934E+04  0.7818608E-02  0.8957493E-01
          1   -1    0    0  501    0  0.00000000000E+00  0.00000000000E+00  0.65055426907E+03  0.65055426907E+03  0.00000000000E+00 0. -1.
         -1   -1    0    0    0  501 -0.00000000000E+00 -0.00000000000E+00 -0.74776322115E+03  0.74776322115E+03  0.00000000000E+00 0.  1.
         23    2    1    2    0    0 -0.27419362322E+03  0.59103889185E+03 -0.28989000788E+03  0.71888014655E+03  0.90792806638E+02 0.  0.
         11    1    3    3    0    0 -0.15953486715E+03  0.32907502620E+03 -0.21112108166E+03  0.42227225557E+03  0.00000000000E+00 0.  1.
        -11    1    3    3    0    0 -0.11465875607E+03  0.26196386566E+03 -0.78768926218E+02  0.29660789098E+03  0.00000000000E+00 0. -1.
         22    1    1    2    0    0  0.27419362322E+03 -0.59103889185E+03  0.19268105580E+03  0.67943734366E+03  0.00000000000E+00 0. -1.
<mgrwt>
<rscale>  0 0.13949345E+04</rscale>
<asrwt>0</asrwt>
<pdfrwt beam="1">  1        1 0.10008527E+00 0.13949345E+04</pdfrwt>
<pdfrwt beam="2">  1       -1 0.11504050E+00 0.13949345E+04</pdfrwt>
<totfact> 0.20357176E+01</totfact>
</mgrwt>
</event>
<event>
 6    1  0.1585031E-006  0.3578397E+04  0.7818608E-02  0.8095458E-01
         -1   -1    0    0    0  501 -0.00000000000E+00  0.00000000000E+00  0.15803814047E+04  0.15803814047E+04  0.00000000000E+00 0.  1.
          1   -1    0    0  501    0  0.00000000000E+00 -0.00000000000E+00 -0.20256072726E+04  0.20256072726E+04  0.00000000000E+00 0. -1.
         23    2    1    2    0    0 -0.13555175391E+04  0.47465323151E+03 -0.12955177051E+04  0.19369411353E+04  0.10320536966E+03 0.  0.
         11    1    3    3    0    0 -0.35930207944E+03  0.89481564017E+02 -0.29474490149E+03  0.47326471614E+03  0.00000000000E+00 0.  1.
        -11    1    3    3    0    0 -0.99621545968E+03  0.38517166749E+03 -0.10007728037E+04  0.14636764192E+04  0.00000000000E+00 0. -1.
         22    1    1    2    0    0  0.13555175391E+04 -0.47465323151E+03  0.85029183716E+03  0.16690475420E+04  0.00000000000E+00 0.  1.
<mgrwt>
<rscale>  0 0.35783974E+04</rscale>
<asrwt>0</asrwt>
<pdfrwt beam="1">  1        1 0.31163189E+00 0.35783974E+04</pdfrwt>
<pdfrwt beam="2">  1       -1 0.24313560E+00 0.35783974E+04</pdfrwt>
<totfact> 0.17943766E-01</totfact>
</mgrwt>
</event>
<event>
 6    1  0.1585031E-006  0.1722946E+04  0.7818608E-02  0.8748385E-01
         -2   -1    0    0    0  501 -0.00000000000E+00  0.00000000000E+00  0.46167818198E+03  0.46167818198E+03  0.00000000000E+00 0.  1.
          2   -1    0    0  501    0  0.00000000000E+00 -0.00000000000E+00 -0.16074735033E+04  0.16074735033E+04  0.00000000000E+00 0. -1.
         23    2    1    2    0    0  0.61984816681E+03  0.81327486211E+02 -0.12821280600E+04  0.14292981665E+04  0.90636507943E+02 0.  0.
         11    1    3    3    0    0  0.18289790101E+03  0.30273045037E+02 -0.29258566746E+03  0.34637331343E+03  0.00000000000E+00 0. -1.
        -11    1    3    3    0    0  0.43695026580E+03  0.51054441174E+02 -0.98954239253E+03  0.10829248530E+04  0.00000000000E+00 0.  1.
         22    1    1    2    0    0 -0.61984816681E+03 -0.81327486211E+02  0.13633273864E+03  0.63985351882E+03  0.00000000000E+00 0.  1.
<mgrwt>
<rscale>  0 0.17229457E+04</rscale>
<asrwt>0</asrwt>
<pdfrwt beam="1">  1        2 0.24730362E+00 0.17229457E+04</pdfrwt>
<pdfrwt beam="2">  1       -2 0.71027412E-01 0.17229457E+04</pdfrwt>
<totfact> 0.18887751E+01</totfact>
</mgrwt>
</event>
<event>
 6    1  0.1585031E-006  0.2982422E+04  0.7818608E-02  0.8248768E-01
          2   -1    0    0  501    0  0.00000000000E+00  0.00000000000E+00  0.21265416330E+04  0.21265416330E+04  0.00000000000E+00 0. -1.
         -2   -1    0    0    0  501 -0.00000000000E+00 -0.00000000000E+00 -0.10456934893E+04  0.10456934893E+04  0.00000000000E+00 0.  1.
         23    2    1    2    0    0  0.11310678004E+04 -0.78453775792E+02  0.15689387940E+04  0.19378519375E+04  0.90729424497E+02 0.  0.
         11    1    3    3    0    0  0.66128828012E+03 -0.57152859785E+02  0.99122999511E+03  0.11929398736E+04  0.00000000000E+00 0.  1.
        -11    1    3    3    0    0  0.46977952027E+03 -0.21300916007E+02  0.57770879890E+03  0.74491206395E+03  0.00000000000E+00 0. -1.
         22    1    1    2    0    0 -0.11310678004E+04  0.78453775792E+02 -0.48809065028E+03  0.12343831848E+04  0.00000000000E+00 0.  1.
<mgrwt>
<rscale>  0 0.29824223E+04</rscale>
<asrwt>0</asrwt>
<pdfrwt beam="1">  1        2 0.32716025E+00 0.29824223E+04</pdfrwt>
<pdfrwt beam="2">  1       -2 0.16087592E+00 0.29824223E+04</pdfrwt>
<totfact> 0.12080389E+00</totfact>
</mgrwt>
</event>
<event>
 6    1  0.1585031E-006  0.2392082E+04  0.7818608E-02  0.8442474E-01
          1   -1    0    0  501    0  0.00000000000E+00  0.00000000000E+00  0.65151619391E+03  0.65151619391E+03  0.00000000000E+00 0. -1.
         -1   -1    0    0    0  501 -0.00000000000E+00 -0.00000000000E+00 -0.21956695097E+04  0.21956695097E+04  0.00000000000E+00 0.  1.
         23    2    1    2    0    0  0.32884135688E+03 -0.11465454091E+04 -0.70111264292E+03  0.13865623472E+04  0.91066960654E+02 0.  0.
         13    1    3    3    0    0  0.95504384206E+02 -0.21817100366E+03 -0.16067114314E+03  0.28728886243E+03  0.00000000000E+00 0. -1.
        -13    1    3    3    0    0  0.23333697267E+03 -0.92837440548E+03 -0.54044149977E+03  0.10992734847E+04  0.00000000000E+00 0.  1.
         22    1    1    2    0    0 -0.32884135688E+03  0.11465454091E+04 -0.84304067286E+03  0.14606233564E+04  0.00000000000E+00 0. -1.
<mgrwt>
<rscale>  0 0.23920821E+04</rscale>
<asrwt>0</asrwt>
<pdfrwt beam="1">  1        1 0.10023326E+00 0.23920821E+04</pdfrwt>
<pdfrwt beam="2">  1       -1 0.33779531E+00 0.23920821E+04</pdfrwt>
<totfact> 0.50943224E-01</totfact>
</mgrwt>
</event>
<event>
 6    1  0.1585031E-006  0.1701979E+04  0.7818608E-02  0.8760236E-01
         -1   -1    0    0    0  501 -0.00000000000E+00  0.00000000000E+00  0.62549742412E+03  0.62549742412E+03  0.00000000000E+00 0.  1.
          1   -1    0    0  501    0  0.00000000000E+00 -0.00000000000E+00 -0.11577719730E+04  0.11577719730E+04  0.00000000000E+00 0. -1.
         23    2    1    2    0    0  0.77906491969E+03  0.73897326924E+01  0.85085438122E+02  0.78922205880E+03  0.92925610447E+02 0.  0.
         13    1    3    3    0    0  0.23784951539E+03  0.21808899895E+02 -0.12133207804E+02  0.23915525254E+03  0.00000000000E+00 0. -1.
        -13    1    3    3    0    0  0.54121540430E+03 -0.14419167202E+02  0.97218645926E+02  0.55006680626E+03  0.00000000000E+00 0.  1.
         22    1    1    2    0    0 -0.77906491969E+03 -0.73897326924E+01 -0.61735998696E+03  0.99404733828E+03  0.00000000000E+00 0.  1.
<mgrwt>
<rscale>  0 0.17019793E+04</rscale>
<asrwt>0</asrwt>
<pdfrwt beam="1">  1        1 0.17811876E+00 0.17019793E+04</pdfrwt>
<pdfrwt beam="2">  1       -1 0.96230374E-01 0.17019793E+04</pdfrwt>
<totfact> 0.11361692E+01</totfact>
</mgrwt>
</event>
<event>
 6    1  0.1585031E-006  0.1602201E+04  0.7818608E-02  0.8819197E-01
         -1   -1    0    0    0  501 -0.00000000000E+00  0.00000000000E+00  0.39415826959E+03  0.39415826959E+03  0.00000000000E+00 0.  1.
          1   -1    0    0  501    0  0.00000000000E+00 -0.00000000000E+00 -0.16281827561E+04  0.16281827561E+04  0.00000000000E+00 0. -1.
         23    2    1    2    0    0  0.19616401391E+03 -0.34171260239E+03 -0.14955513775E+04  0.15494307406E+04  0.93882234743E+02 0.  0.
         13    1    3    3    0    0  0.99168016892E+02 -0.12233361150E+03 -0.74577282774E+03  0.76221841927E+03  0.00000000000E+00 0.  1.
        -13    1    3    3    0    0  0.96995997020E+02 -0.21937899089E+03 -0.74977854979E+03  0.78721232130E+03  0.00000000000E+00 0. -1.
         22    1    1    2    0    0 -0.19616401391E+03  0.34171260239E+03  0.26152689107E+03  0.47291028508E+03  0.00000000000E+00 0.  1.
<mgrwt>
<rscale>  0 0.16022006E+04</rscale>
<asrwt>0</asrwt>
<pdfrwt beam="1">  1        1 0.25048965E+00 0.16022006E+04</pdfrwt>
<pdfrwt beam="2">  1       -1 0.60639735E-01 0.16022006E+04</pdfrwt>
<totfact> 0.14120050E+01</totfact>
</mgrwt>
</event>
<event>
 6    1  0.1585031E-006  0.1220991E+04  0.7818608E-02  0.9094679E-01
         -2   -1    0    0    0  501 -0.00000000000E+00  0.00000000000E+00  0.12537167442E+03  0.12537167442E+03  0.00000000000E+00 0.  1.
          2   -1    0    0  501    0  0.00000000000E+00 -0.00000000000E+00 -0.29727974033E+04  0.29727974033E+04  0.00000000000E+00 0. -1.
         23    2    1    2    0    0  0.28030523229E+03 -0.20383656984E+02 -0.27970615126E+04  0.28126466250E+04  0.91877172994E+02 0.  0.
         11    1    3    3    0    0  0.86662722178E+02  0.36051393436E+02 -0.92618312725E+03  0.93092712689E+03  0.00000000000E+00 0. -1.
        -11    1    3    3    0    0  0.19364251012E+03 -0.56435050419E+02 -0.18708783854E+04  0.18817194981E+04  0.00000000000E+00 0.  1.
         22    1    1    2    0    0 -0.28030523229E+03  0.20383656984E+02 -0.50364216226E+02  0.28552245271E+03  0.00000000000E+00 0.  1.
<mgrwt>
<rscale>  0 0.12209907E+04</rscale>
<asrwt>0</asrwt>
<pdfrwt beam="1">  1        2 0.45735341E+00 0.12209907E+04</pdfrwt>
<pdfrwt beam="2">  1       -2 0.19287951E-01 0.12209907E+04</pdfrwt>
<totfact> 0.41188621E+01</totfact>
</mgrwt>
</event>
<event>
 6    1  0.1585031E-006  0.2930540E+04  0.7818608E-02  0.8263848E-01
         -1   -1    0    0    0  501 -0.00000000000E+00  0.00000000000E+00  0.11837180031E+04  0.11837180031E+04  0.00000000000E+00 0.  1.
          1   -1    0    0  501    0  0.00000000000E+00 -0.00000000000E+00 -0.18137908431E+04  0.18137908431E+04  0.00000000000E+00 0. -1.
         23    2    1    2    0    0  0.14435484405E+04 -0.13278085301E+03 -0.10752794555E+03  0.14565623768E+04  0.92459956117E+02 0.  0.
         13    1    3    3    0    0  0.93047490792E+03 -0.41369050108E+02 -0.74179179693E+02  0.93434335406E+03  0.00000000000E+00 0. -1.
        -13    1    3    3    0    0  0.51307353254E+03 -0.91411802901E+02 -0.33348765854E+02  0.52221902271E+03  0.00000000000E+00 0.  1.
         22    1    1    2    0    0 -0.14435484405E+04  0.13278085301E+03 -0.52254489448E+03  0.15409464694E+04  0.00000000000E+00 0. -1.
<mgrwt>
<rscale>  0 0.29305405E+04</rscale>
<asrwt>0</asrwt>
<pdfrwt beam="1">  1        1 0.27904474E+00 0.29305405E+04</pdfrwt>
<pdfrwt beam="2">  1       -1 0.18211046E+00 0.29305405E+04</pdfrwt>
<totfact> 0.68604864E-01</totfact>
</mgrwt>
</event>
<event>
 6    1  0.1585031E-006  0.2068023E+04  0.7818608E-02  0.8575462E-01
          1   -1    0    0  501    0  0.00000000000E+00  0.00000000000E+00  0.21370346578E+04  0.21370346578E+04  0.00000000000E+00 0. -1.
         -1   -1    0    0    0  501 -0.00000000000E+00 -0.00000000000E+00 -0.50030980820E+03  0.50030980820E+03  0.00000000000E+00 0.  1.
         23    2    1    2    0    0 -0.39220327657E+03 -0.63929195298E+03 -0.83770801497E+02  0.76047928792E+03  0.93774137526E+02 0.  0.
         11    1    3    3    0    0 -0.31981165212E+03 -0.44639278934E+03 -0.75288656515E+02  0.55426924595E+03  0.00000000000E+00 0.  1.
        -11    1    3    3    0    0 -0.72391624442E+02 -0.19289916364E+03 -0.84821449822E+01  0.20621004196E+03  0.00000000000E+00 0. -1.
         22    1    1    2    0    0  0.39220327657E+03  0.63929195298E+03  0.17204956511E+04  0.18768651781E+04  0.00000000000E+00 0. -1.
<mgrwt>
<rscale>  0 0.20680226E+04</rscale>
<asrwt>0</asrwt>
<pdfrwt beam="1">  1        1 0.32877456E+00 0.20680226E+04</pdfrwt>
<pdfrwt beam="2">  1       -1 0.76970741E-01 0.20680226E+04</pdfrwt>
<totfact> 0.37544881E+00</totfact>
</mgrwt>
</event>
<event>
 6    1  0.1585031E-006  0.1576517E+04  0.7818608E-02  0.8835106E-01
          1   -1    0    0  501    0  0.00000000000E+00  0.00000000000E+00  0.24784836275E+04  0.24784836275E+04  0.00000000000E+00 0. -1.
         -1   -1    0    0    0  501 -0.00000000000E+00 -0.00000000000E+00 -0.25069816670E+03  0.25069816670E+03  0.00000000000E+00 0.  1.
         23    2    1    2    0    0  0.21746024958E+03  0.33877148017E+03  0.22853501113E+04  0.23225262091E+04  0.96165403150E+02 0.  0.
         13    1    3    3    0    0  0.20798113432E+03  0.25569155278E+03  0.18738508412E+04  0.19026169602E+04  0.00000000000E+00 0.  1.
        -13    1    3    3    0    0  0.94791152627E+01  0.83079927390E+02  0.41149927012E+03  0.41990924885E+03  0.00000000000E+00 0. -1.
         22    1    1    2    0    0 -0.21746024958E+03 -0.33877148017E+03 -0.57564650478E+02  0.40665558512E+03  0.00000000000E+00 0.  1.
<mgrwt>
<rscale>  0 0.15765168E+04</rscale>
<asrwt>0</asrwt>
<pdfrwt beam="1">  1        1 0.38130516E+00 0.15765168E+04</pdfrwt>
<pdfrwt beam="2">  1       -1 0.38568950E-01 0.15765168E+04</pdfrwt>
<totfact> 0.87935617E+00</totfact>
</mgrwt>
</event>
<event>
 6    1  0.1585031E-006  0.1135035E+04  0.7818608E-02  0.9171701E-01
          1   -1    0    0  501    0  0.00000000000E+00  0.00000000000E+00  0.21588193880E+04  0.21588193880E+04  0.00000000000E+00 0. -1.
         -1   -1    0    0    0  501 -0.00000000000E+00 -0.00000000000E+00 -0.14919091313E+03  0.14919091313E+03  0.00000000000E+00 0.  1.
         23    2    1    2    0    0 -0.83397159240E+02 -0.41476376333E+03  0.25411352069E+03  0.50223710943E+03  0.93189952000E+02 0.  0.
         11    1    3    3    0    0 -0.93627614906E+02 -0.35131719773E+03  0.24223069621E+03  0.43688169323E+03  0.00000000000E+00 0. -1.
        -11    1    3    3    0    0  0.10230455667E+02 -0.63446565600E+02  0.11882824484E+02  0.65355416205E+02  0.00000000000E+00 0.  1.
         22    1    1    2    0    0  0.83397159240E+02  0.41476376333E+03  0.17555149542E+04  0.18057731917E+04  0.00000000000E+00 0. -1.
<mgrwt>
<rscale>  0 0.11350352E+04</rscale>
<asrwt>0</asrwt>
<pdfrwt beam="1">  1        1 0.33212604E+00 0.11350352E+04</pdfrwt>
<pdfrwt beam="2">  1       -1 0.22952450E-01 0.11350352E+04</pdfrwt>
<totfact> 0.37602608E+01</totfact>
</mgrwt>
</event>
<event>
 6    1  0.1585031E-006  0.2370564E+04  0.7818608E-02  0.8450607E-01
          2   -1    0    0  501    0  0.00000000000E+00  0.00000000000E+00  0.24893836850E+04  0.24893836850E+04  0.00000000000E+00 0. -1.
         -2   -1    0    0    0  501 -0.00000000000E+00 -0.00000000000E+00 -0.56435400170E+03  0.56435400170E+03  0.00000000000E+00 0.  1.
         23    2    1    2    0    0 -0.31865052673E+03  0.85289740187E+03 -0.10257588346E+02  0.91497426826E+03  0.90003095260E+02 0.  0.
         11    1    3    3    0    0 -0.12006890981E+03  0.44960748838E+03 -0.84458800799E+01  0.46544040392E+03  0.00000000000E+00 0.  1.
        -11    1    3    3    0    0 -0.19858161692E+03  0.40328991349E+03 -0.18117082665E+01  0.44953386434E+03  0.00000000000E+00 0. -1.
         22    1    1    2    0    0  0.31865052673E+03 -0.85289740187E+03  0.19352872717E+04  0.21387634185E+04  0.00000000000E+00 0. -1.
<mgrwt>
<rscale>  0 0.23705642E+04</rscale>
<asrwt>0</asrwt>
<pdfrwt beam="1">  1        2 0.38298210E+00 0.23705642E+04</pdfrwt>
<pdfrwt beam="2">  1       -2 0.86823694E-01 0.23705642E+04</pdfrwt>
<totfact> 0.36529068E+00</totfact>
</mgrwt>
</event>
<event>
 6    1  0.1585031E-006  0.2959683E+04  0.7818608E-02  0.8255338E-01
          2   -1    0    0  501    0  0.00000000000E+00  0.00000000000E+00  0.20547847746E+04  0.20547847746E+04  0.00000000000E+00 0. -1.
         -2   -1    0    0    0  501 -0.00000000000E+00 -0.00000000000E+00 -0.10657717592E+04  0.10657717592E+04  0.00000000000E+00 0.  1.
         23    2    1    2    0    0  0.10588651706E+04 -0.28871922050E+03 -0.54941984964E+03  0.12307602702E+04  0.91402591093E+02 0.  0.
         11    1    3    3    0    0  0.27123401379E+03 -0.47241159428E+02 -0.10455268896E+03  0.29450107326E+03  0.00000000000E+00 0.  1.
        -11    1    3    3    0    0  0.78763115685E+03 -0.24147806107E+03 -0.44486716068E+03  0.93625919695E+03  0.00000000000E+00 0. -1.
         22    1    1    2    0    0 -0.10588651706E+04  0.28871922050E+03  0.15384328650E+04  0.18897962636E+04  0.00000000000E+00 0. -1.
<mgrwt>
<rscale>  0 0.29596835E+04</rscale>
<asrwt>0</asrwt>
<pdfrwt beam="1">  1        2 0.31612073E+00 0.29596835E+04</pdfrwt>
<pdfrwt beam="2">  1       -2 0.16396489E+00 0.29596835E+04</pdfrwt>
<totfact> 0.12600267E+00</totfact>
</mgrwt>
</event>
<event>
 6    1  0.1585031E-006  0.5358752E+03  0.7818608E-02  0.1004817E+00
         -2   -1    0    0    0  501 -0.00000000000E+00  0.00000000000E+00  0.33733092668E+02  0.33733092668E+02  0.00000000000E+00 0.  1.
          2   -1    0    0  501    0  0.00000000000E+00 -0.00000000000E+00 -0.21281939630E+04  0.21281939630E+04  0.00000000000E+00 0. -1.
         23    2    1    2    0    0  0.14966310318E+03 -0.42893097853E+02 -0.19178155519E+04  0.19264648914E+04  0.94929575049E+02 0.  0.
         11    1    3    3    0    0  0.13871634131E+03 -0.30702773940E+01 -0.15937274527E+04  0.15997558699E+04  0.00000000000E+00 0. -1.
        -11    1    3    3    0    0  0.10946761868E+02 -0.39822820459E+02 -0.32408809923E+03  0.32670902144E+03  0.00000000000E+00 0.  1.
         22    1    1    2    0    0 -0.14966310318E+03  0.42893097853E+02 -0.17664531841E+03  0.23546216429E+03  0.00000000000E+00 0.  1.
<mgrwt>
<rscale>  0 0.53587522E+03</rscale>
<asrwt>0</asrwt>
<pdfrwt beam="1">  1        2 0.32741447E+00 0.53587522E+03</pdfrwt>
<pdfrwt beam="2">  1       -2 0.51897063E-02 0.53587522E+03</pdfrwt>
<totfact> 0.11488095E+03</totfact>
</mgrwt>
</event>
<event>
 6    1  0.1585031E-006  0.1738721E+04  0.7818608E-02  0.8739584E-01
          1   -1    0    0  501    0  0.00000000000E+00  0.00000000000E+00  0.19276799147E+04  0.19276799147E+04  0.00000000000E+00 0. -1.
         -1   -1    0    0    0  501 -0.00000000000E+00 -0.00000000000E+00 -0.39207093520E+03  0.39207093520E+03  0.00000000000E+00 0.  1.
         23    2    1    2    0    0  0.32929769031E+01  0.33738310329E+03 -0.29529174022E+03  0.45802164092E+03  0.93532933407E+02 0.  0.
         11    1    3    3    0    0 -0.76552532076E+01  0.20639614731E+03 -0.11981912956E+03  0.23877729443E+03  0.00000000000E+00 0.  1.
        -11    1    3    3    0    0  0.10948230111E+02  0.13098695598E+03 -0.17547261066E+03  0.21924434650E+03  0.00000000000E+00 0. -1.
         22    1    1    2    0    0 -0.32929769031E+01 -0.33738310329E+03  0.18309007197E+04  0.18617292090E+04  0.00000000000E+00 0. -1.
<mgrwt>
<rscale>  0 0.17387205E+04</rscale>
<asrwt>0</asrwt>
<pdfrwt beam="1">  1        1 0.29656614E+00 0.17387205E+04</pdfrwt>
<pdfrwt beam="2">  1       -1 0.60318606E-01 0.17387205E+04</pdfrwt>
<totfact> 0.88217016E+00</totfact>
</mgrwt>
</event>
<event>
 6    1  0.1585031E-006  0.1013861E+04  0.7818608E-02  0.9293472E-01
         -1   -1    0    0    0  501 -0.00000000000E+00  0.00000000000E+00  0.73272969167E+03  0.73272969167E+03  0.00000000000E+00 0.  1.
          1   -1    0    0  501    0  0.00000000000E+00 -0.00000000000E+00 -0.35071379824E+03  0.35071379824E+03  0.00000000000E+00 0. -1.
         23    2    1    2    0    0  0.12269773368E+03 -0.24235515271E+03 -0.25910661230E+03  0.38714698609E+03  0.94635080185E+02 0.  0.
         11    1    3    3    0    0  0.76744481277E+02 -0.57340938513E+02 -0.10384367139E+03  0.14128413472E+03  0.00000000000E+00 0. -1.
        -11    1    3    3    0    0  0.45953252405E+02 -0.18501421420E+03 -0.15526294092E+03  0.24586285137E+03  0.00000000000E+00 0.  1.
         22    1    1    2    0    0 -0.12269773368E+03  0.24235515271E+03  0.64112250573E+03  0.69629650383E+03  0.00000000000E+00 0.  1.
<mgrwt>
<rscale>  0 0.10138608E+04</rscale>
<asrwt>0</asrwt>
<pdfrwt beam="1">  1        1 0.53955969E-01 0.10138608E+04</pdfrwt>
<pdfrwt beam="2">  1       -1 0.11272764E+00 0.10138608E+04</pdfrwt>
<totfact> 0.51545658E+01</totfact>
</mgrwt>
</event>
<event>
 6    1  0.1585031E-006  0.4511165E+04  0.7818608E-02  0.7908685E-01
         -1   -1    0    0    0  501 -0.00000000000E+00  0.00000000000E+00  0.39270135973E+04  0.39270135973E+04  0.00000000000E+00 0.  1.
          1   -1    0    0  501    0  0.00000000000E+00 -0.00000000000E+00 -0.12955525765E+04  0.12955525765E+04  0.00000000000E+00 0. -1.
         23    2    1    2    0    0  0.64256601985E+03  0.94786125595E+03 -0.93213860075E+03  0.14794960018E+04  0.93241610179E+02 0.  0.
         11    1    3    3    0    0  0.43267631985E+03  0.55806468599E+03 -0.58044316558E+03  0.91408930634E+03  0.00000000000E+00 0.  1.
        -11    1    3    3    0    0  0.20988970000E+03  0.38979656996E+03 -0.35169543517E+03  0.56540669543E+03  0.00000000000E+00 0. -1.
         22    1    1    2    0    0 -0.64256601985E+03 -0.94786125595E+03  0.35635996215E+04  0.37430701720E+04  0.00000000000E+00 0.  1.
<mgrwt>
<rscale>  0 0.45111651E+04</rscale>
<asrwt>0</asrwt>
<pdfrwt beam="1">  1        1 0.19931578E+00 0.45111651E+04</pdfrwt>
<pdfrwt beam="2">  1       -1 0.60415593E+00 0.45111651E+04</pdfrwt>
<totfact> 0.29210137E-03</totfact>
</mgrwt>
</event>
<event>
 6    1  0.1585031E-006  0.1052775E+04  0.7818608E-02  0.9252483E-01
          1   -1    0    0  501    0  0.00000000000E+00  0.00000000000E+00  0.13371443811E+03  0.13371443811E+03  0.00000000000E+00 0. -1.
         -1   -1    0    0    0  501 -0.00000000000E+00 -0.00000000000E+00 -0.20722065918E+04  0.20722065918E+04  0.00000000000E+00 0.  1.
         23    2    1    2    0    0 -0.10575917461E+03  0.28196953920E+03 -0.18710955758E+04  0.18973207662E+04  0.90197626570E+02 0.  0.
         13    1    3    3    0    0 -0.15297701470E+02  0.12978166692E+03 -0.60859572195E+03  0.62246771283E+03  0.00000000000E+00 0.  1.
        -13    1    3    3    0    0 -0.90461473143E+02  0.15218787228E+03 -0.12624998539E+04  0.12748530534E+04  0.00000000000E+00 0. -1.
         22    1    1    2    0    0  0.10575917461E+03 -0.28196953920E+03 -0.67396577834E+02  0.30860026370E+03  0.00000000000E+00 0. -1.
<mgrwt>
<rscale>  0 0.10527753E+04</rscale>
<asrwt>0</asrwt>
<pdfrwt beam="1">  1        1 0.20571452E-01 0.10527753E+04</pdfrwt>
<pdfrwt beam="2">  1       -1 0.31880101E+00 0.10527753E+04</pdfrwt>
<totfact> 0.63776965E+00</totfact>
</mgrwt>
</event>
<event>
 6    1  0.1585031E-006  0.2363947E+04  0.7818608E-02  0.8453126E-01
         -2   -1    0    0    0  501 -0.00000000000E+00  0.00000000000E+00  0.83854216494E+03  0.83854216494E+03  0.00000000000E+00 0.  1.
          2   -1    0    0  501    0  0.00000000000E+00 -0.00000000000E+00 -0.16660602377E+04  0.16660602377E+04  0.00000000000E+00 0. -1.
         23    2    1    2    0    0  0.45241050813E+03  0.33443139858E+03 -0.15135828906E+04  0.16173569110E+04  0.91600123247E+02 0.  0.
         13    1    3    3    0    0  0.16409990020E+03  0.13122217257E+03 -0.69359275143E+03  0.72471990496E+03  0.00000000000E+00 0. -1.
        -13    1    3    3    0    0  0.28831060793E+03  0.20320922601E+03 -0.81999013919E+03  0.89263700604E+03  0.00000000000E+00 0.  1.
         22    1    1    2    0    0 -0.45241050813E+03 -0.33443139858E+03  0.68606481782E+03  0.88724549166E+03  0.00000000000E+00 0.  1.
<mgrwt>
<rscale>  0 0.23639473E+04</rscale>
<asrwt>0</asrwt>
<pdfrwt beam="1">  1        2 0.25631696E+00 0.23639473E+04</pdfrwt>
<pdfrwt beam="2">  1       -2 0.12900649E+00 0.23639473E+04</pdfrwt>
<totfact> 0.40915256E+00</totfact>
</mgrwt>
</event>
<event>
 6    1  0.1585031E-006  0.5272218E+04  0.7818608E-02  0.7787834E-01
          2   -1    0    0  501    0  0.00000000000E+00  0.00000000000E+00  0.19180593299E+04  0.19180593299E+04  0.00000000000E+00 0. -1.
         -2   -1    0    0    0  501 -0.00000000000E+00 -0.00000000000E+00 -0.36229693673E+04  0.36229693673E+04  0.00000000000E+00 0.  1.
         23    2    1    2    0    0  0.14120002853E+04  0.15026716899E+02  0.14856551265E+04  0.20519490659E+04  0.96711976902E+02 0.  0.
         11    1    3    3    0    0  0.50434026951E+03  0.14095835511E+02  0.59773400318E+03  0.78220440972E+03  0.00000000000E+00 0. -1.
        -11    1    3    3    0    0  0.90766001577E+03  0.93088138728E+00  0.88792112332E+03  0.12697446562E+04  0.00000000000E+00 0.  1.
         22    1    1    2    0    0 -0.14120002853E+04 -0.15026716899E+02 -0.31905651639E+04  0.34890796312E+04  0.00000000000E+00 0.  1.
<mgrwt>
<rscale>  0 0.52722178E+04</rscale>
<asrwt>0</asrwt>
<pdfrwt beam="1">  1        2 0.29508605E+00 0.52722178E+04</pdfrwt>
<pdfrwt beam="2">  1       -2 0.55737990E+00 0.52722178E+04</pdfrwt>
<totfact> 0.41956282E-03</totfact>
</mgrwt>
</event>
<event>
 6    1  0.1585031E-006  0.2620444E+04  0.7818608E-02  0.8361290E-01
         -2   -1    0    0    0  501 -0.00000000000E+00  0.00000000000E+00  0.55071362431E+03  0.55071362431E+03  0.00000000000E+00 0.  1.
          2   -1    0    0  501    0  0.00000000000E+00 -0.00000000000E+00 -0.31171957580E+04  0.31171957580E+04  0.00000000000E+00 0. -1.
         23    2    1    2    0    0  0.19347532392E+03 -0.31370608785E+03 -0.30423778863E+04  0.30659783415E+04  0.91190884949E+02 0.  0.
         11    1    3    3    0    0  0.14495756985E+03 -0.18486267028E+03 -0.16184928490E+04  0.16354528444E+04  0.00000000000E+00 0. -1.
        -11    1    3    3    0    0  0.48517754063E+02 -0.12884341757E+03 -0.14238850372E+04  0.14305254971E+04  0.00000000000E+00 0.  1.
         22    1    1    2    0    0 -0.19347532392E+03  0.31370608785E+03  0.47589575257E+03  0.60193104076E+03  0.00000000000E+00 0.  1.
<mgrwt>
<rscale>  0 0.26204444E+04</rscale>
<asrwt>0</asrwt>
<pdfrwt beam="1">  1        2 0.47956857E+00 0.26204444E+04</pdfrwt>
<pdfrwt beam="2">  1       -2 0.84725175E-01 0.26204444E+04</pdfrwt>
<totfact> 0.15726003E+00</totfact>
</mgrwt>
</event>
<event>
 6    1  0.2177532E-006  0.2466974E+04  0.7818608E-02  0.8414847E-01
          1   -1    0    0  501    0  0.00000000000E+00  0.00000000000E+00  0.13160794941E+04  0.13160794941E+04  0.00000000000E+00 0. -1.
         -1   -1    0    0    0  501 -0.00000000000E+00 -0.00000000000E+00 -0.11560776728E+04  0.11560776728E+04  0.00000000000E+00 0.  1.
         23    2    1    2    0    0 -0.35545663874E+03  0.51426568965E+02 -0.11006433522E+04  0.11613481163E+04  0.91211536261E+02 0.  0.
         11    1    3    3    0    0 -0.17381675536E+03 -0.20075410237E+02 -0.54654754230E+03  0.57387237478E+03  0.00000000000E+00 0. -1.
        -11    1    3    3    0    0 -0.18163988337E+03  0.71501979202E+02 -0.55409580991E+03  0.58747574147E+03  0.00000000000E+00 0.  1.
         22    1    1    2    0    0  0.35545663874E+03 -0.51426568965E+02  0.12606451735E+04  0.13108090507E+04  0.00000000000E+00 0. -1.
<mgrwt>
<rscale>  0 0.24669740E+04</rscale>
<asrwt>0</asrwt>
<pdfrwt beam="1">  1        1 0.20247377E+00 0.24669740E+04</pdfrwt>
<pdfrwt beam="2">  1       -1 0.17785810E+00 0.24669740E+04</pdfrwt>
<totfact> 0.16926303E+00</totfact>
</mgrwt>
</event>
<event>
 6    1  0.1585031E-006  0.1840206E+04  0.7818608E-02  0.8685206E-01
          1   -1    0    0  501    0  0.00000000000E+00  0.00000000000E+00  0.77131327047E+03  0.77131327047E+03  0.00000000000E+00 0. -1.
         -1   -1    0    0    0  501 -0.00000000000E+00 -0.00000000000E+00 -0.10975943760E+04  0.10975943760E+04  0.00000000000E+00 0.  1.
         23    2    1    2    0    0 -0.49630861274E+03 -0.10886536885E+03 -0.93982241626E+03  0.10722854979E+04  0.91411746337E+02 0.  0.
         13    1    3    3    0    0 -0.15870039615E+03  0.65765651325E+01 -0.31437690020E+03  0.35222422166E+03  0.00000000000E+00 0. -1.
        -13    1    3    3    0    0 -0.33760821659E+03 -0.11544193398E+03 -0.62544551606E+03  0.72006127627E+03  0.00000000000E+00 0.  1.
         22    1    1    2    0    0  0.49630861274E+03  0.10886536885E+03  0.61354131071E+03  0.79662214855E+03  0.00000000000E+00 0. -1.
<mgrwt>
<rscale>  0 0.18402055E+04</rscale>
<asrwt>0</asrwt>
<pdfrwt beam="1">  1        1 0.11866358E+00 0.18402055E+04</pdfrwt>
<pdfrwt beam="2">  1       -1 0.16886067E+00 0.18402055E+04</pdfrwt>
<totfact> 0.55287839E+00</totfact>
</mgrwt>
</event>
<event>
 6    1  0.1889536E-006  0.2771492E+04  0.7818608E-02  0.8312174E-01
         -2   -1    0    0    0  501 -0.00000000000E+00  0.00000000000E+00  0.65760905521E+03  0.65760905521E+03  0.00000000000E+00 0.  1.
          2   -1    0    0  501    0  0.00000000000E+00 -0.00000000000E+00 -0.29201126198E+04  0.29201126198E+04  0.00000000000E+00 0. -1.
         23    2    1    2    0    0 -0.60303463594E+03 -0.20057459136E+03  0.45507914137E+03  0.78681918610E+03  0.90035925407E+02 0.  0.
         13    1    3    3    0    0 -0.42242297670E+03 -0.15993283259E+03  0.36609168012E+03  0.58141448248E+03  0.00000000000E+00 0.  1.
        -13    1    3    3    0    0 -0.18061165924E+03 -0.40641758777E+02  0.88987461243E+02  0.20540470362E+03  0.00000000000E+00 0. -1.
         22    1    1    2    0    0  0.60303463594E+03  0.20057459136E+03 -0.27175827060E+04  0.27909024889E+04  0.00000000000E+00 0. -1.
<mgrwt>
<rscale>  0 0.27714924E+04</rscale>
<asrwt>0</asrwt>
<pdfrwt beam="1">  1        2 0.44924810E+00 0.27714924E+04</pdfrwt>
<pdfrwt beam="2">  1       -2 0.10117062E+00 0.27714924E+04</pdfrwt>
<totfact> 0.13676780E+00</totfact>
</mgrwt>
</event>
<event>
 6    1  0.1585031E-006  0.1693150E+04  0.7818608E-02  0.8765281E-01
          1   -1    0    0  501    0  0.00000000000E+00  0.00000000000E+00  0.61780856064E+03  0.61780856064E+03  0.00000000000E+00 0. -1.
         -1   -1    0    0    0  501 -0.00000000000E+00 -0.00000000000E+00 -0.11600512207E+04  0.11600512207E+04  0.00000000000E+00 0.  1.
         23    2    1    2    0    0 -0.67010357539E+03 -0.44467645243E+03 -0.27201189561E+01  0.80942779022E+03  0.91596940076E+02 0.  0.
         11    1    3    3    0    0 -0.18419045843E+03 -0.16746773817E+03  0.18259311070E+02  0.24960963672E+03  0.00000000000E+00 0.  1.
        -11    1    3    3    0    0 -0.48591311696E+03 -0.27720871426E+03 -0.20979430027E+02  0.55981815349E+03  0.00000000000E+00 0. -1.
         22    1    1    2    0    0  0.67010357539E+03  0.44467645243E+03 -0.53952254113E+03  0.96843199115E+03  0.00000000000E+00 0.  1.
<mgrwt>
<rscale>  0 0.16931504E+04</rscale>
<asrwt>0</asrwt>
<pdfrwt beam="1">  1        1 0.95047471E-01 0.16931504E+04</pdfrwt>
<pdfrwt beam="2">  1       -1 0.17846942E+00 0.16931504E+04</pdfrwt>
<totfact> 0.66702401E+00</totfact>
</mgrwt>
</event>
<event>
 6    1  0.1585031E-006  0.1635501E+04  0.7818608E-02  0.8799030E-01
         -1   -1    0    0    0  501 -0.00000000000E+00  0.00000000000E+00  0.23903441269E+03  0.23903441269E+03  0.00000000000E+00 0.  1.
          1   -1    0    0  501    0  0.00000000000E+00 -0.00000000000E+00 -0.27975720387E+04  0.27975720387E+04  0.00000000000E+00 0. -1.
         23    2    1    2    0    0 -0.14030108638E+03 -0.67084674980E+03 -0.46356327049E+03  0.83237476963E+03  0.90758442169E+02 0.  0.
         11    1    3    3    0    0 -0.48038778243E+02 -0.26440495621E+03 -0.12988682816E+03  0.29847662088E+03  0.00000000000E+00 0. -1.
        -11    1    3    3    0    0 -0.92262308135E+02 -0.40644179359E+03 -0.33367644233E+03  0.53389814875E+03  0.00000000000E+00 0.  1.
         22    1    1    2    0    0  0.14030108638E+03  0.67084674980E+03 -0.20949743555E+04  0.22042316818E+04  0.00000000000E+00 0. -1.
<mgrwt>
<rscale>  0 0.16355011E+04</rscale>
<asrwt>0</asrwt>
<pdfrwt beam="1">  1        1 0.43039569E+00 0.16355011E+04</pdfrwt>
<pdfrwt beam="2">  1       -1 0.36774526E-01 0.16355011E+04</pdfrwt>
<totfact> 0.57011960E+00</totfact>
</mgrwt>
</event>
<event>
 6    1  0.1585031E-006  0.2631114E+04  0.7818608E-02  0.8357709E-01
          2   -1    0    0  501    0  0.00000000000E+00  0.00000000000E+00  0.32885255581E+04  0.32885255581E+04  0.00000000000E+00 0.  1.
         -2   -1    0    0    0  501 -0.00000000000E+00 -0.00000000000E+00 -0.52628137161E+03  0.52628137161E+03  0.00000000000E+00 0. -1.
         23    2    1    2    0    0  0.80965046249E+03 -0.71465546795E+03  0.24679247542E+04  0.26954811338E+04  0.93271865699E+02 0.  0.
         11    1    3    3    0    0  0.26100075560E+03 -0.18798994182E+03  0.66454243362E+03  0.73829415461E+03  0.00000000000E+00 0. -1.
        -11    1    3    3    0    0  0.54864970689E+03 -0.52666552613E+03  0.18033823206E+04  0.19571869792E+04  0.00000000000E+00 0.  1.
         22    1    1    2    0    0 -0.80965046249E+03  0.71465546795E+03  0.29431943235E+03  0.11193257960E+04  0.00000000000E+00 0. -1.
<mgrwt>
<rscale>  0 0.26311136E+04</rscale>
<asrwt>0</asrwt>
<pdfrwt beam="1">  1        2 0.50592700E+00 0.26311136E+04</pdfrwt>
<pdfrwt beam="2">  1       -2 0.80966367E-01 0.26311136E+04</pdfrwt>
<totfact> 0.13458874E+00</totfact>
</mgrwt>
</event>
<event>
 6    1  0.1585031E-006  0.1433733E+04  0.7818608E-02  0.8929756E-01
         -2   -1    0    0    0  501 -0.00000000000E+00  0.00000000000E+00  0.14110119054E+04  0.14110119054E+04  0.00000000000E+00 0. -1.
          2   -1    0    0  501    0  0.00000000000E+00 -0.00000000000E+00 -0.36420521226E+03  0.36420521226E+03  0.00000000000E+00 0.  1.
         23    2    1    2    0    0  0.53110173049E+03  0.28966331882E+03  0.99518094739E+03  0.11680605448E+04  0.89478666703E+02 0.  0.
         11    1    3    3    0    0  0.53472003169E+02  0.63352722059E+02  0.12767121427E+03  0.15222602100E+03  0.00000000000E+00 0. -1.
        -11    1    3    3    0    0  0.47762972732E+03  0.22631059676E+03  0.86750973312E+03  0.10158345238E+04  0.00000000000E+00 0.  1.
         22    1    1    2    0    0 -0.53110173049E+03 -0.28966331882E+03  0.51625745754E+02  0.60715657291E+03  0.00000000000E+00 0.  1.
<mgrwt>
<rscale>  0 0.14337334E+04</rscale>
<asrwt>0</asrwt>
<pdfrwt beam="1">  1        2 0.56031572E-01 0.14337334E+04</pdfrwt>
<pdfrwt beam="2">  1       -2 0.21707875E+00 0.14337334E+04</pdfrwt>
<totfact> 0.88459432E+00</totfact>
</mgrwt>
</event>
<event>
 6    1  0.1585031E-006  0.5628604E+03  0.7818608E-02  0.9985603E-01
         -3   -1    0    0    0  501 -0.00000000000E+00  0.00000000000E+00  0.66596520764E+03  0.66596520764E+03  0.00000000000E+00 0.  1.
          3   -1    0    0  501    0  0.00000000000E+00 -0.00000000000E+00 -0.11892957632E+03  0.11892957632E+03  0.00000000000E+00 0. -1.
         23    2    1    2    0    0 -0.99181235023E+02 -0.69551743124E+02  0.62353817985E+03  0.64162230830E+03  0.90581247608E+02 0.  0.
         13    1    3    3    0    0 -0.31782420460E+02  0.16810250432E+02  0.89268794358E+02  0.96237333795E+02  0.00000000000E+00 0.  1.
        -13    1    3    3    0    0 -0.67398814563E+02 -0.86361993557E+02  0.53426938549E+03  0.54538497450E+03  0.00000000000E+00 0. -1.
         22    1    1    2    0    0  0.99181235023E+02  0.69551743124E+02 -0.76502548532E+02  0.14327247567E+03  0.00000000000E+00 0. -1.
<mgrwt>
<rscale>  0 0.56286041E+03</rscale>
<asrwt>0</asrwt>
<pdfrwt beam="1">  1        3 0.18296858E-01 0.56286041E+03</pdfrwt>
<pdfrwt beam="2">  1       -3 0.10245618E+00 0.56286041E+03</pdfrwt>
<totfact> 0.58344586E+01</totfact>
</mgrwt>
</event>
<event>
 6    1  0.1585031E-006  0.7154534E+03  0.7818608E-02  0.9691164E-01
          1   -1    0    0  501    0  0.00000000000E+00  0.00000000000E+00  0.24246557062E+03  0.24246557062E+03  0.00000000000E+00 0. -1.
         -1   -1    0    0    0  501 -0.00000000000E+00 -0.00000000000E+00 -0.52777962459E+03  0.52777962459E+03  0.00000000000E+00 0.  1.
         23    2    1    2    0    0 -0.10309224854E+03  0.66969694916E+02  0.21048080674E+03  0.25943652687E+03  0.88837997068E+02 0.  0.
         13    1    3    3    0    0 -0.85504146200E+02  0.48659090719E+01  0.13767040509E+03  0.16213505644E+03  0.00000000000E+00 0.  1.
        -13    1    3    3    0    0 -0.17588102338E+02  0.62103785844E+02  0.72810401653E+02  0.97301470436E+02  0.00000000000E+00 0. -1.
         22    1    1    2    0    0  0.10309224854E+03 -0.66969694916E+02 -0.49579486071E+03  0.51080866834E+03  0.00000000000E+00 0.  1.
<mgrwt>
<rscale>  0 0.71545339E+03</rscale>
<asrwt>0</asrwt>
<pdfrwt beam="1">  1        1 0.37302395E-01 0.71545339E+03</pdfrwt>
<pdfrwt beam="2">  1       -1 0.81196865E-01 0.71545339E+03</pdfrwt>
<totfact> 0.17746798E+02</totfact>
</mgrwt>
</event>
<event>
 6    1  0.1585031E-006  0.1780938E+04  0.7818608E-02  0.8716502E-01
          1   -1    0    0  501    0  0.00000000000E+00  0.00000000000E+00  0.40295756388E+03  0.40295756388E+03  0.00000000000E+00 0. -1.
         -1   -1    0    0    0  501 -0.00000000000E+00 -0.00000000000E+00 -0.19677885050E+04  0.19677885050E+04  0.00000000000E+00 0.  1.
         23    2    1    2    0    0  0.36187203796E+03 -0.31327089964E+03  0.21321776097E+03  0.52940220761E+03  0.75596662700E+02 0.  0.
         11    1    3    3    0    0  0.16940397009E+03 -0.19573967337E+03  0.12122575645E+03  0.28584507839E+03  0.00000000000E+00 0.  1.
        -11    1    3    3    0    0  0.19246806788E+03 -0.11753122627E+03  0.91992004519E+02  0.24355712923E+03  0.00000000000E+00 0. -1.
         22    1    1    2    0    0 -0.36187203796E+03  0.31327089964E+03 -0.17780487021E+04  0.18413438613E+04  0.00000000000E+00 0.  1.
<mgrwt>
<rscale>  0 0.17809382E+04</rscale>
<asrwt>0</asrwt>
<pdfrwt beam="1">  1        1 0.61993473E-01 0.17809382E+04</pdfrwt>
<pdfrwt beam="2">  1       -1 0.30273669E+00 0.17809382E+04</pdfrwt>
<totfact> 0.17823860E+00</totfact>
</mgrwt>
</event>
<event>
 6    1  0.1585031E-006  0.2092857E+04  0.7818608E-02  0.8564396E-01
          1   -1    0    0  501    0  0.00000000000E+00  0.00000000000E+00  0.12706362291E+04  0.12706362291E+04  0.00000000000E+00 0. -1.
         -1   -1    0    0    0  501 -0.00000000000E+00 -0.00000000000E+00 -0.86178296022E+03  0.86178296022E+03  0.00000000000E+00 0.  1.
         23    2    1    2    0    0 -0.45320116214E+03 -0.57174610093E+02 -0.75220223295E+03  0.88473729568E+03  0.91058518078E+02 0.  0.
         11    1    3    3    0    0 -0.19390594656E+03  0.14005883374E+02 -0.27126440986E+03  0.33373651424E+03  0.00000000000E+00 0.  1.
        -11    1    3    3    0    0 -0.25929521557E+03 -0.71180493468E+02 -0.48093782308E+03  0.55100078144E+03  0.00000000000E+00 0. -1.
         22    1    1    2    0    0  0.45320116214E+03  0.57174610093E+02  0.11610555019E+04  0.12476818937E+04  0.00000000000E+00 0. -1.
<mgrwt>
<rscale>  0 0.20928570E+04</rscale>
<asrwt>0</asrwt>
<pdfrwt beam="1">  1        1 0.19548250E+00 0.20928570E+04</pdfrwt>
<pdfrwt beam="2">  1       -1 0.13258199E+00 0.20928570E+04</pdfrwt>
<totfact> 0.42159862E+00</totfact>
</mgrwt>
</event>
<event>
 6    1  0.1585031E-006  0.2983184E+04  0.7818608E-02  0.8248549E-01
          2   -1    0    0  501    0  0.00000000000E+00  0.00000000000E+00  0.26309035953E+04  0.26309035953E+04  0.00000000000E+00 0. -1.
         -2   -1    0    0    0  501 -0.00000000000E+00 -0.00000000000E+00 -0.84565852844E+03  0.84565852844E+03  0.00000000000E+00 0.  1.
         23    2    1    2    0    0  0.27624508539E+03  0.65885105543E+03  0.24175595077E+04  0.25225088693E+04  0.89782859886E+02 0.  0.
         11    1    3    3    0    0  0.34822465270E+02  0.95643615969E+02  0.24802815687E+03  0.26810123455E+03  0.00000000000E+00 0. -1.
        -11    1    3    3    0    0  0.24142262012E+03  0.56320743946E+03  0.21695313508E+04  0.22544076347E+04  0.00000000000E+00 0.  1.
         22    1    1    2    0    0 -0.27624508539E+03 -0.65885105543E+03 -0.63231444078E+03  0.95405325452E+03  0.00000000000E+00 0.  1.
<mgrwt>
<rscale>  0 0.29831836E+04</rscale>
<asrwt>0</asrwt>
<pdfrwt beam="1">  1        2 0.40475440E+00 0.29831836E+04</pdfrwt>
<pdfrwt beam="2">  1       -2 0.13010131E+00 0.29831836E+04</pdfrwt>
<totfact> 0.10839584E+00</totfact>
</mgrwt>
</event>
<event>
 6    1  0.1585031E-006  0.1670267E+04  0.7818608E-02  0.8778506E-01
         -2   -1    0    0    0  501 -0.00000000000E+00  0.00000000000E+00  0.35937112106E+03  0.35937112106E+03  0.00000000000E+00 0.  1.
          2   -1    0    0  501    0  0.00000000000E+00 -0.00000000000E+00 -0.19407457307E+04  0.19407457307E+04  0.00000000000E+00 0. -1.
         23    2    1    2    0    0 -0.65337041844E+03  0.36176233477E+03 -0.12995904286E+04  0.15018893057E+04  0.94717021546E+02 0.  0.
         11    1    3    3    0    0 -0.36180264345E+03  0.19634465693E+03 -0.62150194784E+03  0.74546431724E+03  0.00000000000E+00 0. -1.
        -11    1    3    3    0    0 -0.29156777499E+03  0.16541767784E+03 -0.67808848071E+03  0.75642498850E+03  0.00000000000E+00 0.  1.
         22    1    1    2    0    0  0.65337041844E+03 -0.36176233477E+03 -0.28178418111E+03  0.79822754605E+03  0.00000000000E+00 0.  1.
<mgrwt>
<rscale>  0 0.16702670E+04</rscale>
<asrwt>0</asrwt>
<pdfrwt beam="1">  1        2 0.29857627E+00 0.16702670E+04</pdfrwt>
<pdfrwt beam="2">  1       -2 0.55287865E-01 0.16702670E+04</pdfrwt>
<totfact> 0.21142829E+01</totfact>
</mgrwt>
</event>
<event>
 6    1  0.1585031E-006  0.2174061E+04  0.7818608E-02  0.8529302E-01
         -2   -1    0    0    0  501 -0.00000000000E+00  0.00000000000E+00  0.17873928171E+04  0.17873928171E+04  0.00000000000E+00 0.  1.
          2   -1    0    0  501    0  0.00000000000E+00 -0.00000000000E+00 -0.66109461911E+03  0.66109461911E+03  0.00000000000E+00 0. -1.
         23    2    1    2    0    0  0.60206897692E+03  0.84094154650E+03  0.93391179065E+03  0.13964977655E+04  0.91351183012E+02 0.  0.
         11    1    3    3    0    0  0.30939362613E+03  0.35536250084E+03  0.43517001797E+03  0.64138901412E+03  0.00000000000E+00 0. -1.
        -11    1    3    3    0    0  0.29267535079E+03  0.48557904566E+03  0.49874177268E+03  0.75510875135E+03  0.00000000000E+00 0.  1.
         22    1    1    2    0    0 -0.60206897692E+03 -0.84094154650E+03  0.19238640732E+03  0.10519896707E+04  0.00000000000E+00 0.  1.
<mgrwt>
<rscale>  0 0.21740614E+04</rscale>
<asrwt>0</asrwt>
<pdfrwt beam="1">  1        2 0.10170687E+00 0.21740614E+04</pdfrwt>
<pdfrwt beam="2">  1       -2 0.27498351E+00 0.21740614E+04</pdfrwt>
<totfact> 0.18225793E+00</totfact>
</mgrwt>
</event>
<event>
 6    1  0.1585031E-006  0.9825430E+03  0.7818608E-02  0.9327901E-01
          2   -1    0    0  501    0  0.00000000000E+00  0.00000000000E+00  0.57085638888E+03  0.57085638888E+03  0.00000000000E+00 0. -1.
         -2   -1    0    0    0  501 -0.00000000000E+00 -0.00000000000E+00 -0.42278182620E+03  0.42278182620E+03  0.00000000000E+00 0.  1.
         23    2    1    2    0    0  0.24677559496E+03 -0.20255542897E+03 -0.29725309908E+03  0.44569330689E+03  0.91412377821E+02 0.  0.
         13    1    3    3    0    0  0.35454489946E+01 -0.24215246129E+02 -0.35868196507E+01  0.24734866663E+02  0.00000000000E+00 0. -1.
        -13    1    3    3    0    0  0.24323014597E+03 -0.17834018284E+03 -0.29366627943E+03  0.42095844023E+03  0.00000000000E+00 0.  1.
         22    1    1    2    0    0 -0.24677559496E+03  0.20255542897E+03  0.44532766176E+03  0.54794490818E+03  0.00000000000E+00 0. -1.
<mgrwt>
<rscale>  0 0.98254304E+03</rscale>
<asrwt>0</asrwt>
<pdfrwt beam="1">  1        2 0.87824060E-01 0.98254304E+03</pdfrwt>
<pdfrwt beam="2">  1       -2 0.65043358E-01 0.98254304E+03</pdfrwt>
<totfact> 0.11480746E+02</totfact>
</mgrwt>
</event>
<event>
 6    1  0.1745021E-006  0.3768081E+04  0.7818608E-02  0.8053040E-01
         -1   -1    0    0    0  501 -0.00000000000E+00  0.00000000000E+00  0.17571713858E+04  0.17571713858E+04  0.00000000000E+00 0.  1.
          1   -1    0    0  501    0  0.00000000000E+00 -0.00000000000E+00 -0.20200695425E+04  0.20200695425E+04  0.00000000000E+00 0. -1.
         23    2    1    2    0    0  0.74693838520E+03 -0.13141554011E+04 -0.12570258056E+04  0.19680391287E+04  0.90237279181E+02 0.  0.
         13    1    3    3    0    0  0.37169786164E+03 -0.60744206817E+03 -0.54168802171E+03  0.89474637714E+03  0.00000000000E+00 0.  1.
        -13    1    3    3    0    0  0.37524052356E+03 -0.70671333291E+03 -0.71533778392E+03  0.10732927516E+04  0.00000000000E+00 0. -1.
         22    1    1    2    0    0 -0.74693838520E+03  0.13141554011E+04  0.99412764891E+03  0.18092017996E+04  0.00000000000E+00 0.  1.
<mgrwt>
<rscale>  0 0.37680809E+04</rscale>
<asrwt>0</asrwt>
<pdfrwt beam="1">  1        1 0.31077993E+00 0.37680809E+04</pdfrwt>
<pdfrwt beam="2">  1       -1 0.27033406E+00 0.37680809E+04</pdfrwt>
<totfact> 0.11845733E-01</totfact>
</mgrwt>
</event>
<event>
 6    1  0.1585031E-006  0.1192842E+04  0.7818608E-02  0.9119145E-01
         -1   -1    0    0    0  501 -0.00000000000E+00  0.00000000000E+00  0.31396190941E+03  0.31396190941E+03  0.00000000000E+00 0.  1.
          1   -1    0    0  501    0  0.00000000000E+00 -0.00000000000E+00 -0.11329965374E+04  0.11329965374E+04  0.00000000000E+00 0. -1.
         23    2    1    2    0    0 -0.87669055787E+02 -0.50647637893E+03 -0.53726015490E+02  0.52505744447E+03  0.92707332458E+02 0.  0.
         11    1    3    3    0    0  0.14578744430E+02 -0.13095791196E+03 -0.30038457680E+02  0.13514741371E+03  0.00000000000E+00 0. -1.
        -11    1    3    3    0    0 -0.10224780022E+03 -0.37551846697E+03 -0.23687557810E+02  0.38991003075E+03  0.00000000000E+00 0.  1.
         22    1    1    2    0    0  0.87669055787E+02  0.50647637893E+03 -0.76530861250E+03  0.92190100235E+03  0.00000000000E+00 0.  1.
<mgrwt>
<rscale>  0 0.11928416E+04</rscale>
<asrwt>0</asrwt>
<pdfrwt beam="1">  1        1 0.17430716E+00 0.11928416E+04</pdfrwt>
<pdfrwt beam="2">  1       -1 0.48301831E-01 0.11928416E+04</pdfrwt>
<totfact> 0.50815098E+01</totfact>
</mgrwt>
</event>
<event>
 6    1  0.1585031E-006  0.9719109E+03  0.7818608E-02  0.9339901E-01
          2   -1    0    0  501    0  0.00000000000E+00  0.00000000000E+00  0.20235242459E+04  0.20235242459E+04  0.00000000000E+00 0. -1.
         -2   -1    0    0    0  501 -0.00000000000E+00 -0.00000000000E+00 -0.11670365583E+03  0.11670365583E+03  0.00000000000E+00 0.  1.
         23    2    1    2    0    0 -0.35153071538E+03 -0.32837024344E+03  0.91278473900E+03  0.10359144798E+04  0.92422773457E+02 0.  0.
         13    1    3    3    0    0 -0.12604580732E+03 -0.63199166071E+02  0.28985642926E+03  0.32233279343E+03  0.00000000000E+00 0.  1.
        -13    1    3    3    0    0 -0.22548490806E+03 -0.26517107737E+03  0.62292830974E+03  0.71358168636E+03  0.00000000000E+00 0. -1.
         22    1    1    2    0    0  0.35153071538E+03  0.32837024344E+03  0.99403585105E+03  0.11043134219E+04  0.00000000000E+00 0. -1.
<mgrwt>
<rscale>  0 0.97191085E+03</rscale>
<asrwt>0</asrwt>
<pdfrwt beam="1">  1        2 0.31131140E+00 0.97191085E+03</pdfrwt>
<pdfrwt beam="2">  1       -2 0.17954410E-01 0.97191085E+03</pdfrwt>
<totfact> 0.16804117E+02</totfact>
</mgrwt>
</event>
<event>
 6    1  0.1597329E-006  0.3935960E+04  0.7818608E-02  0.8017592E-01
          2   -1    0    0  501    0  0.00000000000E+00  0.00000000000E+00  0.19135129562E+04  0.19135129562E+04  0.00000000000E+00 0. -1.
         -2   -1    0    0    0  501 -0.00000000000E+00 -0.00000000000E+00 -0.20239973200E+04  0.20239973200E+04  0.00000000000E+00 0.  1.
         23    2    1    2    0    0 -0.85227394507E+03 -0.17427854334E+04  0.26923050050E+03  0.19606806622E+04  0.90064713785E+02 0.  0.
         11    1    3    3    0    0 -0.41647958548E+03 -0.94109555262E+03  0.16473273868E+03  0.10422345991E+04  0.00000000000E+00 0. -1.
        -11    1    3    3    0    0 -0.43579435959E+03 -0.80168988075E+03  0.10449776183E+03  0.91844606318E+03  0.00000000000E+00 0.  1.
         22    1    1    2    0    0  0.85227394507E+03  0.17427854334E+04 -0.37971486431E+03  0.19768296139E+04  0.00000000000E+00 0.  1.
<mgrwt>
<rscale>  0 0.39359599E+04</rscale>
<asrwt>0</asrwt>
<pdfrwt beam="1">  1        2 0.29438661E+00 0.39359599E+04</pdfrwt>
<pdfrwt beam="2">  1       -2 0.31138420E+00 0.39359599E+04</pdfrwt>
<totfact> 0.16013739E-01</totfact>
</mgrwt>
</event>
<event>
 6    1  0.1585031E-006  0.3098967E+04  0.7818608E-02  0.8216022E-01
          2   -1    0    0  501    0  0.00000000000E+00  0.00000000000E+00  0.19352064743E+04  0.19352064743E+04  0.00000000000E+00 0. -1.
         -2   -1    0    0    0  501 -0.00000000000E+00 -0.00000000000E+00 -0.12406422297E+04  0.12406422297E+04  0.00000000000E+00 0.  1.
         23    2    1    2    0    0 -0.11738615970E+04  0.55042133200E+03  0.12147129068E+04  0.17788986968E+04  0.89657325556E+02 0.  0.
         11    1    3    3    0    0 -0.40184088682E+03  0.18239417982E+03  0.35666679824E+03  0.56741073317E+03  0.00000000000E+00 0.  1.
        -11    1    3    3    0    0 -0.77202071021E+03  0.36802715217E+03  0.85804610854E+03  0.12114879637E+04  0.00000000000E+00 0. -1.
         22    1    1    2    0    0  0.11738615970E+04 -0.55042133200E+03 -0.52014866225E+03  0.13969500072E+04  0.00000000000E+00 0.  1.
<mgrwt>
<rscale>  0 0.30989668E+04</rscale>
<asrwt>0</asrwt>
<pdfrwt beam="1">  1        2 0.29772407E+00 0.30989668E+04</pdfrwt>
<pdfrwt beam="2">  1       -2 0.19086804E+00 0.30989668E+04</pdfrwt>
<totfact> 0.94273710E-01</totfact>
</mgrwt>
</event>
<event>
 6    1  0.1585031E-006  0.1862881E+04  0.7818608E-02  0.8673557E-01
          2   -1    0    0  501    0  0.00000000000E+00  0.00000000000E+00  0.10189519583E+04  0.10189519583E+04  0.00000000000E+00 0.  1.
         -2   -1    0    0    0  501 -0.00000000000E+00 -0.00000000000E+00 -0.85144467291E+03  0.85144467291E+03  0.00000000000E+00 0. -1.
         23    2    1    2    0    0 -0.30922636495E+02 -0.34225784898E+03 -0.78285144564E+03  0.85981345191E+03  0.91247693197E+02 0.  0.
         13    1    3    3    0    0  0.59382267759E+01 -0.21085559478E+03 -0.38205555875E+03  0.43641928733E+03  0.00000000000E+00 0. -1.
        -13    1    3    3    0    0 -0.36860863271E+02 -0.13140225420E+03 -0.40079588690E+03  0.42339416458E+03  0.00000000000E+00 0.  1.
         22    1    1    2    0    0  0.30922636495E+02  0.34225784898E+03  0.95035873099E+03  0.10105831793E+04  0.00000000000E+00 0.  1.
<mgrwt>
<rscale>  0 0.18628808E+04</rscale>
<asrwt>0</asrwt>
<pdfrwt beam="1">  1        2 0.15676184E+00 0.18628808E+04</pdfrwt>
<pdfrwt beam="2">  1       -2 0.13099149E+00 0.18628808E+04</pdfrwt>
<totfact> 0.98018469E+00</totfact>
</mgrwt>
</event>
<event>
 6    1  0.1585031E-006  0.1872356E+04  0.7818608E-02  0.8668740E-01
          3   -1    0    0  501    0  0.00000000000E+00  0.00000000000E+00  0.16760249816E+04  0.16760249816E+04  0.00000000000E+00 0. -1.
         -3   -1    0    0    0  501 -0.00000000000E+00 -0.00000000000E+00 -0.52292116344E+03  0.52292116344E+03  0.00000000000E+00 0.  1.
         23    2    1    2    0    0  0.41025316856E+03  0.79526873555E+03  0.26348949787E+03  0.93713250471E+03  0.89613569455E+02 0.  0.
         13    1    3    3    0    0  0.18403886523E+03  0.44807710089E+03  0.15822336941E+03  0.50958613294E+03  0.00000000000E+00 0. -1.
        -13    1    3    3    0    0  0.22621430333E+03  0.34719163467E+03  0.10526612846E+03  0.42754637177E+03  0.00000000000E+00 0.  1.
         22    1    1    2    0    0 -0.41025316856E+03 -0.79526873555E+03  0.88961432025E+03  0.12618136403E+04  0.00000000000E+00 0. -1.
<mgrwt>
<rscale>  0 0.18723557E+04</rscale>
<asrwt>0</asrwt>
<pdfrwt beam="1">  1        3 0.25784999E+00 0.18723557E+04</pdfrwt>
<pdfrwt beam="2">  1       -3 0.80449411E-01 0.18723557E+04</pdfrwt>
<totfact> 0.23497991E-01</totfact>
</mgrwt>
</event>
<event>
 6    1  0.1585031E-006  0.2030308E+04  0.7818608E-02  0.8592581E-01
          2   -1    0    0  501    0  0.00000000000E+00  0.00000000000E+00  0.10516762254E+04  0.10516762254E+04  0.00000000000E+00 0. -1.
         -2   -1    0    0    0  501 -0.00000000000E+00 -0.00000000000E+00 -0.97989977680E+03  0.97989977680E+03  0.00000000000E+00 0.  1.
         23    2    1    2    0    0 -0.22405022037E+03 -0.26628405970E+03  0.98815915558E+03  0.10513398228E+04  0.88040925601E+02 0.  0.
         11    1    3    3    0    0 -0.91894849718E+02 -0.14826164322E+03  0.59620151576E+03  0.62119435416E+03  0.00000000000E+00 0. -1.
        -11    1    3    3    0    0 -0.13215537065E+03 -0.11802241648E+03  0.39195763982E+03  0.43014546865E+03  0.00000000000E+00 0.  1.
         22    1    1    2    0    0  0.22405022037E+03  0.26628405970E+03 -0.91638270699E+03  0.98023617938E+03  0.00000000000E+00 0.  1.
<mgrwt>
<rscale>  0 0.20303077E+04</rscale>
<asrwt>0</asrwt>
<pdfrwt beam="1">  1        2 0.16179634E+00 0.20303077E+04</pdfrwt>
<pdfrwt beam="2">  1       -2 0.15075381E+00 0.20303077E+04</pdfrwt>
<totfact> 0.63982010E+00</totfact>
</mgrwt>
</event>
<event>
 6    1  0.1585031E-006  0.1350362E+04  0.7818608E-02  0.8990554E-01
          2   -1    0    0  501    0  0.00000000000E+00  0.00000000000E+00  0.16385775655E+04  0.16385775655E+04  0.00000000000E+00 0. -1.
         -2   -1    0    0    0  501 -0.00000000000E+00 -0.00000000000E+00 -0.27821041936E+03  0.27821041936E+03  0.00000000000E+00 0.  1.
         23    2    1    2    0    0  0.22690455634E+03  0.63255675015E+03  0.66354659385E+03  0.94871123069E+03  0.90250746193E+02 0.  0.
         11    1    3    3    0    0  0.12645190504E+03  0.44827019736E+03  0.49349448318E+03  0.67858165246E+03  0.00000000000E+00 0. -1.
        -11    1    3    3    0    0  0.10045265130E+03  0.18428655279E+03  0.17005211067E+03  0.27012957823E+03  0.00000000000E+00 0.  1.
         22    1    1    2    0    0 -0.22690455634E+03 -0.63255675015E+03  0.69682055225E+03  0.96807675413E+03  0.00000000000E+00 0. -1.
<mgrwt>
<rscale>  0 0.13503620E+04</rscale>
<asrwt>0</asrwt>
<pdfrwt beam="1">  1        2 0.25208885E+00 0.13503620E+04</pdfrwt>
<pdfrwt beam="2">  1       -2 0.42801604E-01 0.13503620E+04</pdfrwt>
<totfact> 0.53625942E+01</totfact>
</mgrwt>
</event>
<event>
 6    1  0.1585031E-006  0.5490020E+04  0.7818608E-02  0.7757064E-01
          2   -1    0    0  501    0  0.00000000000E+00  0.00000000000E+00  0.24490882375E+04  0.24490882375E+04  0.00000000000E+00 0.  1.
         -2   -1    0    0    0  501 -0.00000000000E+00 -0.00000000000E+00 -0.30766878688E+04  0.30766878688E+04  0.00000000000E+00 0. -1.
         23    2    1    2    0    0 -0.12513911136E+04  0.11993040718E+04 -0.24553136908E+04  0.30068778037E+04  0.91863107540E+02 0.  0.
         11    1    3    3    0    0 -0.48887792319E+03  0.52873466544E+03 -0.99695558637E+03  0.12298302368E+04  0.00000000000E+00 0.  1.
        -11    1    3    3    0    0 -0.76251319043E+03  0.67056940639E+03 -0.14583581044E+04  0.17770475669E+04  0.00000000000E+00 0. -1.
         22    1    1    2    0    0  0.12513911136E+04 -0.11993040718E+04  0.18277140594E+04  0.25188983026E+04  0.00000000000E+00 0.  1.
<mgrwt>
<rscale>  0 0.54900201E+04</rscale>
<asrwt>0</asrwt>
<pdfrwt beam="1">  1        2 0.37678281E+00 0.54900201E+04</pdfrwt>
<pdfrwt beam="2">  1       -2 0.47333659E+00 0.54900201E+04</pdfrwt>
<totfact> 0.64024434E-03</totfact>
</mgrwt>
</event>
<event>
 6    1  0.1585031E-006  0.1245061E+04  0.7818608E-02  0.9074304E-01
          1   -1    0    0  501    0  0.00000000000E+00  0.00000000000E+00  0.98024010346E+03  0.98024010346E+03  0.00000000000E+00 0. -1.
         -1   -1    0    0    0  501 -0.00000000000E+00 -0.00000000000E+00 -0.39535636991E+03  0.39535636991E+03  0.00000000000E+00 0.  1.
         23    2    1    2    0    0 -0.92582776885E+02  0.36800218312E+03 -0.24662879450E+03  0.46158867163E+03  0.90780846826E+02 0.  0.
         11    1    3    3    0    0 -0.70467038802E+01  0.15535880061E+03 -0.13812390315E+03  0.20800054227E+03  0.00000000000E+00 0.  1.
        -11    1    3    3    0    0 -0.85536073005E+02  0.21264338251E+03 -0.10850489135E+03  0.25358812937E+03  0.00000000000E+00 0. -1.
         22    1    1    2    0    0  0.92582776885E+02 -0.36800218312E+03  0.83151252805E+03  0.91400780174E+03  0.00000000000E+00 0. -1.
<mgrwt>
<rscale>  0 0.12450609E+04</rscale>
<asrwt>0</asrwt>
<pdfrwt beam="1">  1        1 0.15080617E+00 0.12450609E+04</pdfrwt>
<pdfrwt beam="2">  1       -1 0.60824057E-01 0.12450609E+04</pdfrwt>
<totfact> 0.42410234E+01</totfact>
</mgrwt>
</event>
<event>
 6    1  0.1585031E-006  0.1483297E+04  0.7818608E-02  0.8895636E-01
          1   -1    0    0  501    0  0.00000000000E+00  0.00000000000E+00  0.94159583575E+03  0.94159583575E+03  0.00000000000E+00 0. -1.
         -1   -1    0    0    0  501 -0.00000000000E+00 -0.00000000000E+00 -0.58416023366E+03  0.58416023366E+03  0.00000000000E+00 0.  1.
         23    2    1    2    0    0  0.30801563070E+03 -0.59520419774E+03 -0.14037534622E+03  0.69091632070E+03  0.92295496207E+02 0.  0.
         13    1    3    3    0    0  0.12311462820E+03 -0.33378791176E+03 -0.87639331895E+02  0.36640446805E+03  0.00000000000E+00 0. -1.
        -13    1    3    3    0    0  0.18490100250E+03 -0.26141628598E+03 -0.52736014327E+02  0.32451185265E+03  0.00000000000E+00 0.  1.
         22    1    1    2    0    0 -0.30801563070E+03  0.59520419774E+03  0.49781094830E+03  0.83483974871E+03  0.00000000000E+00 0. -1.
<mgrwt>
<rscale>  0 0.14832975E+04</rscale>
<asrwt>0</asrwt>
<pdfrwt beam="1">  1        1 0.14486090E+00 0.14832975E+04</pdfrwt>
<pdfrwt beam="2">  1       -1 0.89870805E-01 0.14832975E+04</pdfrwt>
<totfact> 0.19765694E+01</totfact>
</mgrwt>
</event>
<event>
 6    1  0.1585031E-006  0.1400093E+04  0.7818608E-02  0.8953752E-01
         -2   -1    0    0    0  501 -0.00000000000E+00  0.00000000000E+00  0.49353388179E+03  0.49353388179E+03  0.00000000000E+00 0.  1.
          2   -1    0    0  501    0  0.00000000000E+00 -0.00000000000E+00 -0.99297096620E+03  0.99297096620E+03  0.00000000000E+00 0. -1.
         23    2    1    2    0    0  0.51486435671E+03  0.29855459615E+03  0.13463485844E+03  0.61686849790E+03  0.90443606190E+02 0.  0.
         13    1    3    3    0    0  0.41529611225E+03  0.27001667961E+03  0.87318626873E+02  0.50299543807E+03  0.00000000000E+00 0. -1.
        -13    1    3    3    0    0  0.99568244462E+02  0.28537916534E+02  0.47316231571E+02  0.11387305983E+03  0.00000000000E+00 0.  1.
         22    1    1    2    0    0 -0.51486435671E+03 -0.29855459615E+03 -0.63407194286E+03  0.86963635009E+03  0.00000000000E+00 0. -1.
<mgrwt>
<rscale>  0 0.14000926E+04</rscale>
<asrwt>0</asrwt>
<pdfrwt beam="1">  1        2 0.15276476E+00 0.14000926E+04</pdfrwt>
<pdfrwt beam="2">  1       -2 0.75928291E-01 0.14000926E+04</pdfrwt>
<totfact> 0.38501081E+01</totfact>
</mgrwt>
</event>
<event>
 6    1  0.1585031E-006  0.2672285E+04  0.7818608E-02  0.8344054E-01
         -1   -1    0    0    0  501 -0.00000000000E+00  0.00000000000E+00  0.13567102933E+04  0.13567102933E+04  0.00000000000E+00 0. -1.
          1   -1    0    0  501    0  0.00000000000E+00 -0.00000000000E+00 -0.13158862755E+04  0.13158862755E+04  0.00000000000E+00 0.  1.
         23    2    1    2    0    0  0.11317424104E+04  0.70126246052E+03  0.11235845486E+03  0.13392822407E+04  0.91883491100E+02 0.  0.
         11    1    3    3    0    0  0.57541551970E+03  0.36164531476E+03  0.11459440880E+02  0.67972176131E+03  0.00000000000E+00 0. -1.
        -11    1    3    3    0    0  0.55632689067E+03  0.33961714576E+03  0.10089901398E+03  0.65956047941E+03  0.00000000000E+00 0.  1.
         22    1    1    2    0    0 -0.11317424104E+04 -0.70126246052E+03 -0.71534437080E+02  0.13333143282E+04  0.00000000000E+00 0. -1.
<mgrwt>
<rscale>  0 0.26722848E+04</rscale>
<asrwt>0</asrwt>
<pdfrwt beam="1">  1        1 0.20244404E+00 0.26722848E+04</pdfrwt>
<pdfrwt beam="2">  1       -1 0.20872466E+00 0.26722848E+04</pdfrwt>
<totfact> 0.10115715E+00</totfact>
</mgrwt>
</event>
<event>
 6    1  0.1585031E-006  0.2631050E+04  0.7818608E-02  0.8357730E-01
          2   -1    0    0  501    0  0.00000000000E+00  0.00000000000E+00  0.13689564727E+04  0.13689564727E+04  0.00000000000E+00 0. -1.
         -2   -1    0    0    0  501 -0.00000000000E+00 -0.00000000000E+00 -0.12641786989E+04  0.12641786989E+04  0.00000000000E+00 0.  1.
         23    2    1    2    0    0  0.17320938266E+03 -0.67443350906E+03  0.11676501282E+04  0.13624819182E+04  0.89933904388E+02 0.  0.
         13    1    3    3    0    0  0.10499321174E+03 -0.28997109607E+03  0.45094260584E+03  0.54631130762E+03  0.00000000000E+00 0.  1.
        -13    1    3    3    0    0  0.68216170918E+02 -0.38446241299E+03  0.71670752237E+03  0.81617061059E+03  0.00000000000E+00 0. -1.
         22    1    1    2    0    0 -0.17320938266E+03  0.67443350906E+03 -0.10628723545E+04  0.12706532534E+04  0.00000000000E+00 0.  1.
<mgrwt>
<rscale>  0 0.26310497E+04</rscale>
<asrwt>0</asrwt>
<pdfrwt beam="1">  1        2 0.21060869E+00 0.26310497E+04</pdfrwt>
<pdfrwt beam="2">  1       -2 0.19448903E+00 0.26310497E+04</pdfrwt>
<totfact> 0.19243319E+00</totfact>
</mgrwt>
</event>
<event>
 6    1  0.1585031E-006  0.2446408E+04  0.7818608E-02  0.8422331E-01
         -2   -1    0    0    0  501 -0.00000000000E+00  0.00000000000E+00  0.52059107935E+03  0.52059107935E+03  0.00000000000E+00 0.  1.
          2   -1    0    0  501    0  0.00000000000E+00 -0.00000000000E+00 -0.28740938122E+04  0.28740938122E+04  0.00000000000E+00 0. -1.
         23    2    1    2    0    0 -0.11254640952E+04 -0.14752842621E+03 -0.55193844560E+03  0.12653497964E+04  0.89666010440E+02 0.  0.
         11    1    3    3    0    0 -0.16576794445E+03 -0.24884042444E+01 -0.10939731421E+03  0.19862773200E+03  0.00000000000E+00 0.  1.
        -11    1    3    3    0    0 -0.95969615078E+03 -0.14504002196E+03 -0.44254113139E+03  0.10667220644E+04  0.00000000000E+00 0. -1.
         22    1    1    2    0    0  0.11254640952E+04  0.14752842621E+03 -0.18015642873E+04  0.21293350951E+04  0.00000000000E+00 0. -1.
<mgrwt>
<rscale>  0 0.24464077E+04</rscale>
<asrwt>0</asrwt>
<pdfrwt beam="1">  1        2 0.44216829E+00 0.24464077E+04</pdfrwt>
<pdfrwt beam="2">  1       -2 0.80090934E-01 0.24464077E+04</pdfrwt>
<totfact> 0.25744403E+00</totfact>
</mgrwt>
</event>
<event>
 6    1  0.1585031E-006  0.1514439E+04  0.7818608E-02  0.8874908E-01
         -2   -1    0    0    0  501 -0.00000000000E+00  0.00000000000E+00  0.10194122905E+04  0.10194122905E+04  0.00000000000E+00 0.  1.
          2   -1    0    0  501    0  0.00000000000E+00 -0.00000000000E+00 -0.56246270285E+03  0.56246270285E+03  0.00000000000E+00 0. -1.
         23    2    1    2    0    0  0.58211588596E+03  0.42408927574E+03 -0.29560290857E+01  0.72734366286E+03  0.10153544853E+03 0.  0.
         11    1    3    3    0    0  0.31566099844E+03  0.18123963616E+03 -0.33518004660E+02  0.36553129591E+03  0.00000000000E+00 0.  1.
        -11    1    3    3    0    0  0.26645488752E+03  0.24284963958E+03  0.30561975575E+02  0.36181236695E+03  0.00000000000E+00 0. -1.
         22    1    1    2    0    0 -0.58211588596E+03 -0.42408927574E+03  0.45990561673E+03  0.85453133049E+03  0.00000000000E+00 0. -1.
<mgrwt>
<rscale>  0 0.15144390E+04</rscale>
<asrwt>0</asrwt>
<pdfrwt beam="1">  1        2 0.86532724E-01 0.15144390E+04</pdfrwt>
<pdfrwt beam="2">  1       -2 0.15683266E+00 0.15144390E+04</pdfrwt>
<totfact> 0.13746873E+01</totfact>
</mgrwt>
</event>
<event>
 6    1  0.1585031E-006  0.1506218E+04  0.7818608E-02  0.8880329E-01
          2   -1    0    0  501    0  0.00000000000E+00  0.00000000000E+00  0.11434405840E+04  0.11434405840E+04  0.00000000000E+00 0. -1.
         -2   -1    0    0    0  501 -0.00000000000E+00 -0.00000000000E+00 -0.49602296862E+03  0.49602296862E+03  0.00000000000E+00 0.  1.
         23    2    1    2    0    0  0.51748151675E+03  0.54155613608E+03  0.28144974509E+03  0.80579536277E+03  0.94984414240E+02 0.  0.
         11    1    3    3    0    0  0.38841056324E+03  0.35616589611E+03  0.22461136789E+03  0.57285877646E+03  0.00000000000E+00 0.  1.
        -11    1    3    3    0    0  0.12907095351E+03  0.18539023998E+03  0.56838377195E+02  0.23293658631E+03  0.00000000000E+00 0. -1.
         22    1    1    2    0    0 -0.51748151675E+03 -0.54155613608E+03  0.36596787030E+03  0.83366818987E+03  0.00000000000E+00 0. -1.
<mgrwt>
<rscale>  0 0.15062175E+04</rscale>
<asrwt>0</asrwt>
<pdfrwt beam="1">  1        2 0.17591393E+00 0.15062175E+04</pdfrwt>
<pdfrwt beam="2">  1       -2 0.76311227E-01 0.15062175E+04</pdfrwt>
<totfact> 0.30407496E+01</totfact>
</mgrwt>
</event>
<event>
 6    1  0.1585031E-006  0.1931478E+04  0.7818608E-02  0.8639344E-01
          2   -1    0    0  501    0  0.00000000000E+00  0.00000000000E+00  0.27448054115E+04  0.27448054115E+04  0.00000000000E+00 0. -1.
         -2   -1    0    0    0  501 -0.00000000000E+00 -0.00000000000E+00 -0.33978799498E+03  0.33978799498E+03  0.00000000000E+00 0.  1.
         23    2    1    2    0    0 -0.13691330391E+03  0.89692694948E+03  0.68726483253E+03  0.11419413158E+04  0.92053317656E+02 0.  0.
         11    1    3    3    0    0 -0.55817991693E+02  0.45644648578E+03  0.29310324784E+03  0.54531509834E+03  0.00000000000E+00 0.  1.
        -11    1    3    3    0    0 -0.81095312220E+02  0.44048046369E+03  0.39416158469E+03  0.59662621750E+03  0.00000000000E+00 0. -1.
         22    1    1    2    0    0  0.13691330391E+03 -0.89692694948E+03  0.17177525840E+04  0.19426520906E+04  0.00000000000E+00 0. -1.
<mgrwt>
<rscale>  0 0.19314781E+04</rscale>
<asrwt>0</asrwt>
<pdfrwt beam="1">  1        2 0.42227774E+00 0.19314781E+04</pdfrwt>
<pdfrwt beam="2">  1       -2 0.52275078E-01 0.19314781E+04</pdfrwt>
<totfact> 0.80687639E+00</totfact>
</mgrwt>
</event>
<event>
 6    1  0.1585031E-006  0.4074363E+04  0.7818608E-02  0.7989711E-01
          2   -1    0    0  501    0  0.00000000000E+00  0.00000000000E+00  0.19919739108E+04  0.19919739108E+04  0.00000000000E+00 0. -1.
         -2   -1    0    0    0  501 -0.00000000000E+00 -0.00000000000E+00 -0.20834153371E+04  0.20834153371E+04  0.00000000000E+00 0.  1.
         23    2    1    2    0    0 -0.24962302202E+03  0.46804381339E+03  0.19200563377E+04  0.19951248610E+04  0.11193840566E+03 0.  0.
         11    1    3    3    0    0 -0.12693434439E+03  0.29646940494E+03  0.13286631361E+04  0.13672425407E+04  0.00000000000E+00 0. -1.
        -11    1    3    3    0    0 -0.12268867763E+03  0.17157440845E+03  0.59139320160E+03  0.62788232031E+03  0.00000000000E+00 0.  1.
         22    1    1    2    0    0  0.24962302202E+03 -0.46804381339E+03 -0.20114977641E+04  0.20802643869E+04  0.00000000000E+00 0.  1.
<mgrwt>
<rscale>  0 0.40743633E+04</rscale>
<asrwt>0</asrwt>
<pdfrwt beam="1">  1        2 0.30645753E+00 0.40743633E+04</pdfrwt>
<pdfrwt beam="2">  1       -2 0.32052543E+00 0.40743633E+04</pdfrwt>
<totfact> 0.12579528E-01</totfact>
</mgrwt>
</event>
<event>
 6    1  0.1585031E-006  0.9801798E+03  0.7818608E-02  0.9330554E-01
          2   -1    0    0  501    0  0.00000000000E+00  0.00000000000E+00  0.51985665065E+03  0.51985665065E+03  0.00000000000E+00 0.  1.
         -2   -1    0    0    0  501 -0.00000000000E+00 -0.00000000000E+00 -0.46202759499E+03  0.46202759499E+03  0.00000000000E+00 0. -1.
         23    2    1    2    0    0 -0.76214471943E+02  0.22765108240E+03 -0.39402457971E+03  0.47021504699E+03  0.90626485922E+02 0.  0.
         13    1    3    3    0    0 -0.44140801191E+02  0.57276630173E+02 -0.60337195133E+02  0.94178552814E+02  0.00000000000E+00 0. -1.
        -13    1    3    3    0    0 -0.32073670752E+02  0.17037445222E+03 -0.33368738458E+03  0.37603649418E+03  0.00000000000E+00 0.  1.
         22    1    1    2    0    0  0.76214471943E+02 -0.22765108240E+03  0.45185363537E+03  0.51166919865E+03  0.00000000000E+00 0.  1.
<mgrwt>
<rscale>  0 0.98017982E+03</rscale>
<asrwt>0</asrwt>
<pdfrwt beam="1">  1        2 0.79977947E-01 0.98017982E+03</pdfrwt>
<pdfrwt beam="2">  1       -2 0.71081168E-01 0.98017982E+03</pdfrwt>
<totfact> 0.10578780E+02</totfact>
</mgrwt>
</event>
<event>
 6    1  0.1585031E-006  0.3262990E+04  0.7818608E-02  0.8172377E-01
          2   -1    0    0  501    0  0.00000000000E+00  0.00000000000E+00  0.13048096060E+04  0.13048096060E+04  0.00000000000E+00 0. -1.
         -2   -1    0    0    0  501 -0.00000000000E+00 -0.00000000000E+00 -0.20399723117E+04  0.20399723117E+04  0.00000000000E+00 0.  1.
         23    2    1    2    0    0 -0.68916893521E+03 -0.14152932941E+04 -0.80231860493E+03  0.17691808119E+04  0.90976215470E+02 0.  0.
         11    1    3    3    0    0 -0.37904668487E+03 -0.85707317980E+03 -0.44515338132E+03  0.10375029435E+04  0.00000000000E+00 0.  1.
        -11    1    3    3    0    0 -0.31012225034E+03 -0.55822011433E+03 -0.35716522361E+03  0.73167786843E+03  0.00000000000E+00 0. -1.
         22    1    1    2    0    0  0.68916893521E+03  0.14152932941E+04  0.67155899215E+02  0.15756011058E+04  0.00000000000E+00 0. -1.
<mgrwt>
<rscale>  0 0.32629897E+04</rscale>
<asrwt>0</asrwt>
<pdfrwt beam="1">  1        2 0.20073994E+00 0.32629897E+04</pdfrwt>
<pdfrwt beam="2">  1       -2 0.31384189E+00 0.32629897E+04</pdfrwt>
<totfact> 0.35951361E-01</totfact>
</mgrwt>
</event>
<event>
 6    1  0.1621023E-006  0.3812594E+04  0.7818608E-02  0.8043458E-01
         -2   -1    0    0    0  501 -0.00000000000E+00  0.00000000000E+00  0.20340810855E+04  0.20340810855E+04  0.00000000000E+00 0.  1.
          2   -1    0    0  501    0  0.00000000000E+00 -0.00000000000E+00 -0.17865407001E+04  0.17865407001E+04  0.00000000000E+00 0. -1.
         23    2    1    2    0    0 -0.12357634489E+04  0.15840821043E+03  0.15682968697E+04  0.20049670404E+04  0.90184803317E+02 0.  0.
         13    1    3    3    0    0 -0.89226074968E+03  0.73914919551E+02  0.11141392124E+04  0.14293001243E+04  0.00000000000E+00 0.  1.
        -13    1    3    3    0    0 -0.34350269919E+03  0.84493290878E+02  0.45415765736E+03  0.57566691610E+03  0.00000000000E+00 0. -1.
         22    1    1    2    0    0  0.12357634489E+04 -0.15840821043E+03 -0.13207564844E+04  0.18156547452E+04  0.00000000000E+00 0. -1.
<mgrwt>
<rscale>  0 0.38125942E+04</rscale>
<asrwt>0</asrwt>
<pdfrwt beam="1">  1        2 0.27485242E+00 0.38125942E+04</pdfrwt>
<pdfrwt beam="2">  1       -2 0.31293555E+00 0.38125942E+04</pdfrwt>
<totfact> 0.18611560E-01</totfact>
</mgrwt>
</event>
<event>
 6    1  0.1585031E-006  0.3576074E+04  0.7818608E-02  0.8095994E-01
         -2   -1    0    0    0  501 -0.00000000000E+00  0.00000000000E+00  0.13204091024E+04  0.13204091024E+04  0.00000000000E+00 0.  1.
          2   -1    0    0  501    0  0.00000000000E+00 -0.00000000000E+00 -0.24212770945E+04  0.24212770945E+04  0.00000000000E+00 0. -1.
         23    2    1    2    0    0 -0.65871598092E+03 -0.50970768603E+03  0.11032576320E+04  0.13854437570E+04  0.92565288126E+02 0.  0.
         13    1    3    3    0    0 -0.39664878649E+03 -0.26542564159E+03  0.57688886138E+03  0.74872010086E+03  0.00000000000E+00 0. -1.
        -13    1    3    3    0    0 -0.26206719443E+03 -0.24428204444E+03  0.52636877057E+03  0.63672365612E+03  0.00000000000E+00 0.  1.
         22    1    1    2    0    0  0.65871598092E+03  0.50970768603E+03 -0.22041256241E+04  0.23562424399E+04  0.00000000000E+00 0. -1.
<mgrwt>
<rscale>  0 0.35760740E+04</rscale>
<asrwt>0</asrwt>
<pdfrwt beam="1">  1        2 0.37250417E+00 0.35760740E+04</pdfrwt>
<pdfrwt beam="2">  1       -2 0.20313986E+00 0.35760740E+04</pdfrwt>
<totfact> 0.40037523E-01</totfact>
</mgrwt>
</event>
<event>
 6    1  0.1585031E-006  0.2275962E+04  0.7818608E-02  0.8487460E-01
          2   -1    0    0  501    0  0.00000000000E+00  0.00000000000E+00  0.99318871395E+03  0.99318871395E+03  0.00000000000E+00 0. -1.
         -2   -1    0    0    0  501 -0.00000000000E+00 -0.00000000000E+00 -0.13038815704E+04  0.13038815704E+04  0.00000000000E+00 0.  1.
         23    2    1    2    0    0  0.51001967379E+02  0.88318398278E+03  0.56404406546E+03  0.10529722855E+04  0.89385559248E+02 0.  0.
         11    1    3    3    0    0  0.26282948997E+02  0.61738871772E+03  0.44016591718E+03  0.75868679758E+03  0.00000000000E+00 0. -1.
        -11    1    3    3    0    0  0.24719018382E+02  0.26579526505E+03  0.12387814828E+03  0.29428548795E+03  0.00000000000E+00 0.  1.
         22    1    1    2    0    0 -0.51001967379E+02 -0.88318398278E+03 -0.87473692192E+03  0.12440979988E+04  0.00000000000E+00 0.  1.
<mgrwt>
<rscale>  0 0.22759617E+04</rscale>
<asrwt>0</asrwt>
<pdfrwt beam="1">  1        2 0.15279826E+00 0.22759617E+04</pdfrwt>
<pdfrwt beam="2">  1       -2 0.20059717E+00 0.22759617E+04</pdfrwt>
<totfact> 0.30457392E+00</totfact>
</mgrwt>
</event>
<event>
 6    1  0.1585031E-006  0.1534279E+04  0.7818608E-02  0.8861973E-01
          2   -1    0    0  501    0  0.00000000000E+00  0.00000000000E+00  0.12361865339E+04  0.12361865339E+04  0.00000000000E+00 0. -1.
         -2   -1    0    0    0  501 -0.00000000000E+00 -0.00000000000E+00 -0.47606302430E+03  0.47606302430E+03  0.00000000000E+00 0.  1.
         23    2    1    2    0    0 -0.53066006665E+03 -0.55011441362E+03  0.39184013378E+03  0.86380473420E+03  0.91618524148E+02 0.  0.
         13    1    3    3    0    0 -0.30887008878E+03 -0.25477831739E+03  0.21021356870E+03  0.45221949009E+03  0.00000000000E+00 0. -1.
        -13    1    3    3    0    0 -0.22178997788E+03 -0.29533609623E+03  0.18162656508E+03  0.41158524411E+03  0.00000000000E+00 0.  1.
         22    1    1    2    0    0  0.53066006665E+03  0.55011441362E+03  0.36828337578E+03  0.84844482395E+03  0.00000000000E+00 0. -1.
<mgrwt>
<rscale>  0 0.15342786E+04</rscale>
<asrwt>0</asrwt>
<pdfrwt beam="1">  1        2 0.19018254E+00 0.15342786E+04</pdfrwt>
<pdfrwt beam="2">  1       -2 0.73240466E-01 0.15342786E+04</pdfrwt>
<totfact> 0.29235122E+01</totfact>
</mgrwt>
</event>
<event>
 6    1  0.1585031E-006  0.2228231E+04  0.7818608E-02  0.8506769E-01
          2   -1    0    0  501    0  0.00000000000E+00  0.00000000000E+00  0.14818021011E+04  0.14818021011E+04  0.00000000000E+00 0. -1.
         -2   -1    0    0    0  501 -0.00000000000E+00 -0.00000000000E+00 -0.83766447647E+03  0.83766447647E+03  0.00000000000E+00 0.  1.
         23    2    1    2    0    0  0.17169136686E+03 -0.65303979840E+03  0.12425837394E+04  0.14172046113E+04  0.92280318082E+02 0.  0.
         11    1    3    3    0    0  0.70539148773E+02 -0.21573898308E+03  0.50706385129E+03  0.55554732438E+03  0.00000000000E+00 0.  1.
        -11    1    3    3    0    0  0.10115221809E+03 -0.43730081532E+03  0.73551988806E+03  0.86165728688E+03  0.00000000000E+00 0. -1.
         22    1    1    2    0    0 -0.17169136686E+03  0.65303979840E+03 -0.59844611468E+03  0.90226196635E+03  0.00000000000E+00 0.  1.
<mgrwt>
<rscale>  0 0.22282307E+04</rscale>
<asrwt>0</asrwt>
<pdfrwt beam="1">  1        2 0.22796955E+00 0.22282307E+04</pdfrwt>
<pdfrwt beam="2">  1       -2 0.12887146E+00 0.22282307E+04</pdfrwt>
<totfact> 0.52638940E+00</totfact>
</mgrwt>
</event>
<event>
 6    1  0.1585031E-006  0.2559642E+04  0.7818608E-02  0.8382041E-01
          1   -1    0    0  501    0  0.00000000000E+00  0.00000000000E+00  0.23904795136E+04  0.23904795136E+04  0.00000000000E+00 0. -1.
         -1   -1    0    0    0  501 -0.00000000000E+00 -0.00000000000E+00 -0.68519365180E+03  0.68519365180E+03  0.00000000000E+00 0.  1.
         23    2    1    2    0    0 -0.52650990844E+03 -0.83405952634E+03  0.18306181958E+04  0.20814014866E+04  0.90560436830E+02 0.  0.
         13    1    3    3    0    0 -0.23742989152E+03 -0.32184093483E+03  0.81263672390E+03  0.90572235578E+03  0.00000000000E+00 0. -1.
        -13    1    3    3    0    0 -0.28908001692E+03 -0.51221859150E+03  0.10179814719E+04  0.11756791309E+04  0.00000000000E+00 0.  1.
         22    1    1    2    0    0  0.52650990844E+03  0.83405952634E+03 -0.12533233401E+03  0.99427167872E+03  0.00000000000E+00 0. -1.
<mgrwt>
<rscale>  0 0.25596417E+04</rscale>
<asrwt>0</asrwt>
<pdfrwt beam="1">  1        1 0.36776608E+00 0.25596417E+04</pdfrwt>
<pdfrwt beam="2">  1       -1 0.10541441E+00 0.25596417E+04</pdfrwt>
<totfact> 0.12020975E+00</totfact>
</mgrwt>
</event>
<event>
 6    1  0.1585031E-006  0.1247044E+04  0.7818608E-02  0.9072647E-01
         -1   -1    0    0    0  501 -0.00000000000E+00  0.00000000000E+00  0.81963988297E+03  0.81963988297E+03  0.00000000000E+00 0.  1.
          1   -1    0    0  501    0  0.00000000000E+00 -0.00000000000E+00 -0.47432993151E+03  0.47432993151E+03  0.00000000000E+00 0. -1.
         23    2    1    2    0    0 -0.47182680012E+03 -0.36861044591E+03  0.34150458796E+03  0.69521387845E+03  0.90569106438E+02 0.  0.
         11    1    3    3    0    0 -0.22518870971E+03 -0.18725153217E+03  0.21800826597E+03  0.36510367748E+03  0.00000000000E+00 0. -1.
        -11    1    3    3    0    0 -0.24663809042E+03 -0.18135891373E+03  0.12349632199E+03  0.33011020096E+03  0.00000000000E+00 0.  1.
         22    1    1    2    0    0  0.47182680012E+03  0.36861044591E+03  0.38053635090E+01  0.59875593603E+03  0.00000000000E+00 0. -1.
<mgrwt>
<rscale>  0 0.12470441E+04</rscale>
<asrwt>0</asrwt>
<pdfrwt beam="1">  1        1 0.72973836E-01 0.12470441E+04</pdfrwt>
<pdfrwt beam="2">  1       -1 0.12609844E+00 0.12470441E+04</pdfrwt>
<totfact> 0.25747053E+01</totfact>
</mgrwt>
</event>
<event>
 6    1  0.1585031E-006  0.3093224E+04  0.7818608E-02  0.8217600E-01
         -1   -1    0    0    0  501 -0.00000000000E+00  0.00000000000E+00  0.91130255193E+03  0.91130255193E+03  0.00000000000E+00 0.  1.
          1   -1    0    0  501    0  0.00000000000E+00 -0.00000000000E+00 -0.26248230635E+04  0.26248230635E+04  0.00000000000E+00 0. -1.
         23    2    1    2    0    0  0.84606363464E+03  0.73305052408E+02 -0.23331904507E+04  0.24848463290E+04  0.97397612319E+02 0.  0.
         11    1    3    3    0    0  0.59741618274E+03  0.94605125959E+02 -0.16175135499E+04  0.17269065723E+04  0.00000000000E+00 0. -1.
        -11    1    3    3    0    0  0.24864745190E+03 -0.21300073551E+02 -0.71567690075E+03  0.75793975667E+03  0.00000000000E+00 0.  1.
         22    1    1    2    0    0 -0.84606363464E+03 -0.73305052408E+02  0.61966993915E+03  0.10512792864E+04  0.00000000000E+00 0.  1.
<mgrwt>
<rscale>  0 0.30932235E+04</rscale>
<asrwt>0</asrwt>
<pdfrwt beam="1">  1        1 0.40381893E+00 0.30932235E+04</pdfrwt>
<pdfrwt beam="2">  1       -1 0.14020039E+00 0.30932235E+04</pdfrwt>
<totfact> 0.39066194E-01</totfact>
</mgrwt>
</event>
<event>
 6    1  0.1606359E-006  0.3501062E+04  0.7818608E-02  0.8113538E-01
          2   -1    0    0  501    0  0.00000000000E+00  0.00000000000E+00  0.14911970022E+04  0.14911970022E+04  0.00000000000E+00 0. -1.
         -2   -1    0    0    0  501 -0.00000000000E+00 -0.00000000000E+00 -0.20549652265E+04  0.20549652265E+04  0.00000000000E+00 0.  1.
         23    2    1    2    0    0 -0.14522371519E+04 -0.75419917126E+03  0.34439037937E+03  0.16746491550E+04  0.89643312845E+02 0.  0.
         13    1    3    3    0    0 -0.56887567284E+03 -0.29885347194E+03  0.90718639496E+02  0.64897056974E+03  0.00000000000E+00 0. -1.
        -13    1    3    3    0    0 -0.88336147909E+03 -0.45534569933E+03  0.25367173987E+03  0.10256785853E+04  0.00000000000E+00 0.  1.
         22    1    1    2    0    0  0.14522371519E+04  0.75419917126E+03 -0.90815860370E+03  0.18715130737E+04  0.00000000000E+00 0.  1.
<mgrwt>
<rscale>  0 0.35010615E+04</rscale>
<asrwt>0</asrwt>
<pdfrwt beam="1">  1        2 0.22941492E+00 0.35010615E+04</pdfrwt>
<pdfrwt beam="2">  1       -2 0.31614849E+00 0.35010615E+04</pdfrwt>
<totfact> 0.26677512E-01</totfact>
</mgrwt>
</event>
<event>
 6    1  0.1585031E-006  0.4219580E+04  0.7818608E-02  0.7961658E-01
          1   -1    0    0  501    0  0.00000000000E+00  0.00000000000E+00  0.26435100241E+04  0.26435100241E+04  0.00000000000E+00 0. -1.
         -1   -1    0    0    0  501 -0.00000000000E+00 -0.00000000000E+00 -0.16838268501E+04  0.16838268501E+04  0.00000000000E+00 0.  1.
         23    2    1    2    0    0 -0.11541603175E+04 -0.28408100621E+03 -0.13061989876E+04  0.17686243020E+04  0.95331367798E+02 0.  0.
         11    1    3    3    0    0 -0.15073056265E+03 -0.70080667822E+02 -0.17097415254E+03  0.23845998271E+03  0.00000000000E+00 0. -1.
        -11    1    3    3    0    0 -0.10034297549E+04 -0.21400033839E+03 -0.11352248351E+04  0.15301643193E+04  0.00000000000E+00 0.  1.
         22    1    1    2    0    0  0.11541603175E+04  0.28408100621E+03  0.22658821617E+04  0.25587125722E+04  0.00000000000E+00 0. -1.
<mgrwt>
<rscale>  0 0.42195797E+04</rscale>
<asrwt>0</asrwt>
<pdfrwt beam="1">  1        1 0.40669385E+00 0.42195797E+04</pdfrwt>
<pdfrwt beam="2">  1       -1 0.25905029E+00 0.42195797E+04</pdfrwt>
<totfact> 0.50321856E-02</totfact>
</mgrwt>
</event>
<event>
 6    1  0.1585031E-006  0.1442190E+04  0.7818608E-02  0.8923833E-01
          1   -1    0    0  501    0  0.00000000000E+00  0.00000000000E+00  0.14438230959E+04  0.14438230959E+04  0.00000000000E+00 0. -1.
         -1   -1    0    0    0  501 -0.00000000000E+00 -0.00000000000E+00 -0.36013953587E+03  0.36013953587E+03  0.00000000000E+00 0.  1.
         23    2    1    2    0    0 -0.46126973823E+03  0.52679718951E+03  0.74315762740E+03  0.10253465768E+04  0.93633824700E+02 0.  0.
         13    1    3    3    0    0 -0.24463797671E+03  0.31816213239E+03  0.48027441530E+03  0.62589008310E+03  0.00000000000E+00 0. -1.
        -13    1    3    3    0    0 -0.21663176152E+03  0.20863505712E+03  0.26288321210E+03  0.39945649370E+03  0.00000000000E+00 0.  1.
         22    1    1    2    0    0  0.46126973823E+03 -0.52679718951E+03  0.34052593267E+03  0.77861605500E+03  0.00000000000E+00 0. -1.
<mgrwt>
<rscale>  0 0.14421897E+04</rscale>
<asrwt>0</asrwt>
<pdfrwt beam="1">  1        1 0.22212663E+00 0.14421897E+04</pdfrwt>
<pdfrwt beam="2">  1       -1 0.55406083E-01 0.14421897E+04</pdfrwt>
<totfact> 0.22910569E+01</totfact>
</mgrwt>
</event>
<event>
 6    1  0.1585031E-006  0.3339252E+03  0.7818608E-02  0.1069413E+00
          3   -1    0    0  501    0  0.00000000000E+00  0.00000000000E+00  0.27079389823E+03  0.27079389823E+03  0.00000000000E+00 0. -1.
         -3   -1    0    0    0  501 -0.00000000000E+00 -0.00000000000E+00 -0.10294361406E+03  0.10294361406E+03  0.00000000000E+00 0.  1.
         23    2    1    2    0    0  0.18711417404E+02 -0.81716345153E+02 -0.55202723490E+02  0.13545129274E+03  0.90950721920E+02 0.  0.
         11    1    3    3    0    0  0.13080472129E+02 -0.28765024093E+02  0.24230983097E+02  0.39820420691E+02  0.00000000000E+00 0.  1.
        -11    1    3    3    0    0  0.56309452746E+01 -0.52951321060E+02 -0.79433706586E+02  0.95630872048E+02  0.00000000000E+00 0. -1.
         22    1    1    2    0    0 -0.18711417404E+02  0.81716345153E+02  0.22305300766E+03  0.23828621956E+03  0.00000000000E+00 0. -1.
<mgrwt>
<rscale>  0 0.33392516E+03</rscale>
<asrwt>0</asrwt>
<pdfrwt beam="1">  1        3 0.41660599E-01 0.33392516E+03</pdfrwt>
<pdfrwt beam="2">  1       -3 0.15837479E-01 0.33392516E+03</pdfrwt>
<totfact> 0.50094304E+02</totfact>
</mgrwt>
</event>
<event>
 6    1  0.1585031E-006  0.2706835E+04  0.7818608E-02  0.8332791E-01
          1   -1    0    0  501    0  0.00000000000E+00  0.00000000000E+00  0.13296513264E+04  0.13296513264E+04  0.00000000000E+00 0. -1.
         -1   -1    0    0    0  501 -0.00000000000E+00 -0.00000000000E+00 -0.13776084999E+04  0.13776084999E+04  0.00000000000E+00 0.  1.
         23    2    1    2    0    0  0.28559303809E+03 -0.51891880460E+03 -0.12393773800E+04  0.13767252654E+04  0.92065503740E+02 0.  0.
         11    1    3    3    0    0  0.44745214228E+02 -0.34469112574E+02 -0.87891049937E+02  0.10447531085E+03  0.00000000000E+00 0. -1.
        -11    1    3    3    0    0  0.24084782386E+03 -0.48444969203E+03 -0.11514863301E+04  0.12722499545E+04  0.00000000000E+00 0.  1.
         22    1    1    2    0    0 -0.28559303809E+03  0.51891880460E+03  0.11914202066E+04  0.13305345609E+04  0.00000000000E+00 0. -1.
<mgrwt>
<rscale>  0 0.27068350E+04</rscale>
<asrwt>0</asrwt>
<pdfrwt beam="1">  1        1 0.20456174E+00 0.27068350E+04</pdfrwt>
<pdfrwt beam="2">  1       -1 0.21193977E+00 0.27068350E+04</pdfrwt>
<totfact> 0.93770120E-01</totfact>
</mgrwt>
</event>
<event>
 6    1  0.1585031E-006  0.2323165E+04  0.7818608E-02  0.8468843E-01
         -1   -1    0    0    0  501 -0.00000000000E+00  0.00000000000E+00  0.11332039394E+04  0.11332039394E+04  0.00000000000E+00 0.  1.
          1   -1    0    0  501    0  0.00000000000E+00 -0.00000000000E+00 -0.11906714001E+04  0.11906714001E+04  0.00000000000E+00 0. -1.
         23    2    1    2    0    0 -0.83465899075E+03  0.48596577977E+03 -0.67098981984E+03  0.11796603007E+04  0.92480899460E+02 0.  0.
         13    1    3    3    0    0 -0.15477312777E+03  0.11079117017E+03 -0.17265094993E+03  0.25697812160E+03  0.00000000000E+00 0. -1.
        -13    1    3    3    0    0 -0.67988586298E+03  0.37517460960E+03 -0.49833886991E+03  0.92268217910E+03  0.00000000000E+00 0.  1.
         22    1    1    2    0    0  0.83465899075E+03 -0.48596577977E+03  0.61352235916E+03  0.11442150389E+04  0.00000000000E+00 0.  1.
<mgrwt>
<rscale>  0 0.23231647E+04</rscale>
<asrwt>0</asrwt>
<pdfrwt beam="1">  1        1 0.18318022E+00 0.23231647E+04</pdfrwt>
<pdfrwt beam="2">  1       -1 0.17433907E+00 0.23231647E+04</pdfrwt>
<totfact> 0.22397456E+00</totfact>
</mgrwt>
</event>
<event>
 6    1  0.1585031E-006  0.5144121E+04  0.7818608E-02  0.7806652E-01
         -1   -1    0    0    0  501 -0.00000000000E+00  0.00000000000E+00  0.32591476869E+04  0.32591476869E+04  0.00000000000E+00 0.  1.
          1   -1    0    0  501    0  0.00000000000E+00 -0.00000000000E+00 -0.20298240605E+04  0.20298240605E+04  0.00000000000E+00 0. -1.
         23    2    1    2    0    0  0.22615750384E+04 -0.11798708036E+04  0.94725148206E+03  0.27225771047E+04  0.91235701857E+02 0.  0.
         13    1    3    3    0    0  0.11753355783E+04 -0.60610907013E+03  0.44288493069E+03  0.13946071090E+04  0.00000000000E+00 0. -1.
        -13    1    3    3    0    0  0.10862394601E+04 -0.57376173342E+03  0.50436655137E+03  0.13279699957E+04  0.00000000000E+00 0.  1.
         22    1    1    2    0    0 -0.22615750384E+04  0.11798708036E+04  0.28207214432E+03  0.25663946427E+04  0.00000000000E+00 0.  1.
<mgrwt>
<rscale>  0 0.51441215E+04</rscale>
<asrwt>0</asrwt>
<pdfrwt beam="1">  1        1 0.31228062E+00 0.51441215E+04</pdfrwt>
<pdfrwt beam="2">  1       -1 0.50140734E+00 0.51441215E+04</pdfrwt>
<totfact> 0.29827117E-03</totfact>
</mgrwt>
</event>
<event>
 6    1  0.1585031E-006  0.5325076E+04  0.7818608E-02  0.7780228E-01
         -1   -1    0    0    0  501 -0.00000000000E+00  0.00000000000E+00  0.19616992356E+04  0.19616992356E+04  0.00000000000E+00 0.  1.
          1   -1    0    0  501    0  0.00000000000E+00 -0.00000000000E+00 -0.36137585632E+04  0.36137585632E+04  0.00000000000E+00 0. -1.
         23    2    1    2    0    0  0.22147007569E+04  0.19976109797E+03  0.70543393591E+03  0.23346896142E+04  0.91294128908E+02 0.  0.
         11    1    3    3    0    0  0.10144525212E+04  0.13685246694E+03  0.33022616421E+03  0.10755890642E+04  0.00000000000E+00 0.  1.
        -11    1    3    3    0    0  0.12002482357E+04  0.62908631026E+02  0.37520777170E+03  0.12591005501E+04  0.00000000000E+00 0. -1.
         22    1    1    2    0    0 -0.22147007569E+04 -0.19976109797E+03 -0.23574932635E+04  0.32407681846E+04  0.00000000000E+00 0. -1.
<mgrwt>
<rscale>  0 0.53250756E+04</rscale>
<asrwt>0</asrwt>
<pdfrwt beam="1">  1        1 0.55596285E+00 0.53250756E+04</pdfrwt>
<pdfrwt beam="2">  1       -1 0.30179988E+00 0.53250756E+04</pdfrwt>
<totfact> 0.45808648E-03</totfact>
</mgrwt>
</event>
<event>
 6    1  0.1585031E-006  0.2300521E+04  0.7818608E-02  0.8477716E-01
          2   -1    0    0  501    0  0.00000000000E+00  0.00000000000E+00  0.37060349157E+04  0.37060349157E+04  0.00000000000E+00 0.  1.
         -2   -1    0    0    0  501 -0.00000000000E+00 -0.00000000000E+00 -0.35701206500E+03  0.35701206500E+03  0.00000000000E+00 0. -1.
         23    2    1    2    0    0  0.82671139471E+03  0.92939219775E+02  0.30755028444E+04  0.31873172150E+04  0.90464658263E+02 0.  0.
         13    1    3    3    0    0  0.56407008343E+03  0.49015412482E+02  0.19346968462E+04  0.20158446012E+04  0.00000000000E+00 0. -1.
        -13    1    3    3    0    0  0.26264131128E+03  0.43923807294E+02  0.11408059982E+04  0.11714726138E+04  0.00000000000E+00 0.  1.
         22    1    1    2    0    0 -0.82671139471E+03 -0.92939219775E+02  0.27352000632E+03  0.87572976573E+03  0.00000000000E+00 0.  1.
<mgrwt>
<rscale>  0 0.23005210E+04</rscale>
<asrwt>0</asrwt>
<pdfrwt beam="1">  1        2 0.57015919E+00 0.23005210E+04</pdfrwt>
<pdfrwt beam="2">  1       -2 0.54924936E-01 0.23005210E+04</pdfrwt>
<totfact> 0.16392213E+00</totfact>
</mgrwt>
</event>
<event>
 6    1  0.1585031E-006  0.1272337E+04  0.7818608E-02  0.9051794E-01
          2   -1    0    0  501    0  0.00000000000E+00  0.00000000000E+00  0.11887852204E+04  0.11887852204E+04  0.00000000000E+00 0. -1.
         -2   -1    0    0    0  501 -0.00000000000E+00 -0.00000000000E+00 -0.34044031538E+03  0.34044031538E+03  0.00000000000E+00 0.  1.
         23    2    1    2    0    0  0.17446629122E+03  0.45037276804E+03  0.91731878232E+03  0.10413408027E+04  0.98197770239E+02 0.  0.
         11    1    3    3    0    0  0.11150860274E+03  0.16335653002E+03  0.33330322743E+03  0.38757007857E+03  0.00000000000E+00 0. -1.
        -11    1    3    3    0    0  0.62957688481E+02  0.28701623803E+03  0.58401555488E+03  0.65377072416E+03  0.00000000000E+00 0.  1.
         22    1    1    2    0    0 -0.17446629122E+03 -0.45037276804E+03 -0.68973877324E+02  0.48788473303E+03  0.00000000000E+00 0.  1.
<mgrwt>
<rscale>  0 0.12723371E+04</rscale>
<asrwt>0</asrwt>
<pdfrwt beam="1">  1        2 0.18289003E+00 0.12723371E+04</pdfrwt>
<pdfrwt beam="2">  1       -2 0.52375434E-01 0.12723371E+04</pdfrwt>
<totfact> 0.64979085E+01</totfact>
</mgrwt>
</event>
<event>
 6    1  0.1585031E-006  0.4249457E+04  0.7818608E-02  0.7956031E-01
          2   -1    0    0  501    0  0.00000000000E+00  0.00000000000E+00  0.27996228870E+04  0.27996228870E+04  0.00000000000E+00 0. -1.
         -2   -1    0    0    0  501 -0.00000000000E+00 -0.00000000000E+00 -0.16125279662E+04  0.16125279662E+04  0.00000000000E+00 0.  1.
         23    2    1    2    0    0  0.19175327482E+04  0.86809529953E+03  0.88714770874E+03  0.22860065449E+04  0.90959203002E+02 0.  0.
         11    1    3    3    0    0  0.54688404834E+03  0.23321877267E+03  0.20877056910E+03  0.63012562936E+03  0.00000000000E+00 0. -1.
        -11    1    3    3    0    0  0.13706486999E+04  0.63487652686E+03  0.67837713964E+03  0.16558809155E+04  0.00000000000E+00 0.  1.
         22    1    1    2    0    0 -0.19175327482E+04 -0.86809529953E+03  0.29994721205E+03  0.21261443083E+04  0.00000000000E+00 0.  1.
<mgrwt>
<rscale>  0 0.42494565E+04</rscale>
<asrwt>0</asrwt>
<pdfrwt beam="1">  1        2 0.43071121E+00 0.42494565E+04</pdfrwt>
<pdfrwt beam="2">  1       -2 0.24808123E+00 0.42494565E+04</pdfrwt>
<totfact> 0.11809667E-01</totfact>
</mgrwt>
</event>
<event>
 6    1  0.1585031E-006  0.1361377E+04  0.7818608E-02  0.8982260E-01
         -2   -1    0    0    0  501 -0.00000000000E+00  0.00000000000E+00  0.32632556369E+03  0.32632556369E+03  0.00000000000E+00 0.  1.
          2   -1    0    0  501    0  0.00000000000E+00 -0.00000000000E+00 -0.14198608669E+04  0.14198608669E+04  0.00000000000E+00 0. -1.
         23    2    1    2    0    0  0.23382235544E+03 -0.45317919013E+03 -0.11216672065E+04  0.12354656887E+04  0.90520016756E+02 0.  0.
         11    1    3    3    0    0  0.19159817451E+03 -0.29473366073E+03 -0.70756091180E+03  0.79007609453E+03  0.00000000000E+00 0. -1.
        -11    1    3    3    0    0  0.42224180935E+02 -0.15844552940E+03 -0.41410629474E+03  0.44538959416E+03  0.00000000000E+00 0.  1.
         22    1    1    2    0    0 -0.23382235544E+03  0.45317919013E+03  0.28131903289E+02  0.51072074194E+03  0.00000000000E+00 0.  1.
<mgrwt>
<rscale>  0 0.13613771E+04</rscale>
<asrwt>0</asrwt>
<pdfrwt beam="1">  1        2 0.21844013E+00 0.13613771E+04</pdfrwt>
<pdfrwt beam="2">  1       -2 0.50203934E-01 0.13613771E+04</pdfrwt>
<totfact> 0.51621236E+01</totfact>
</mgrwt>
</event>
<event>
 6    1  0.1585031E-006  0.5112215E+04  0.7818608E-02  0.7811426E-01
          1   -1    0    0  501    0  0.00000000000E+00  0.00000000000E+00  0.11090787180E+04  0.11090787180E+04  0.00000000000E+00 0. -1.
         -1   -1    0    0    0  501 -0.00000000000E+00 -0.00000000000E+00 -0.58910932322E+04  0.58910932322E+04  0.00000000000E+00 0.  1.
         23    2    1    2    0    0  0.59349890830E+03 -0.22740573727E+04 -0.10183867373E+04  0.25630025900E+04  0.91065038387E+02 0.  0.
         11    1    3    3    0    0  0.29846391360E+03 -0.12955855462E+04 -0.60165249954E+03  0.14593177671E+04  0.00000000000E+00 0. -1.
        -11    1    3    3    0    0  0.29503499469E+03 -0.97847182649E+03 -0.41673423778E+03  0.11036848229E+04  0.00000000000E+00 0.  1.
         22    1    1    2    0    0 -0.59349890830E+03  0.22740573727E+04 -0.37636277769E+04  0.44371693602E+04  0.00000000000E+00 0.  1.
<mgrwt>
<rscale>  0 0.51122152E+04</rscale>
<asrwt>0</asrwt>
<pdfrwt beam="1">  1        1 0.17062749E+00 0.51122152E+04</pdfrwt>
<pdfrwt beam="2">  1       -1 0.90632206E+00 0.51122152E+04</pdfrwt>
<totfact> 0.56147049E-05</totfact>
</mgrwt>
</event>
<event>
 6    1  0.1585031E-006  0.2707399E+04  0.7818608E-02  0.8332608E-01
          2   -1    0    0  501    0  0.00000000000E+00  0.00000000000E+00  0.71784590296E+03  0.71784590296E+03  0.00000000000E+00 0. -1.
         -2   -1    0    0    0  501 -0.00000000000E+00 -0.00000000000E+00 -0.25527786388E+04  0.25527786388E+04  0.00000000000E+00 0.  1.
         23    2    1    2    0    0  0.33611224977E+03  0.32926051362E+03  0.61327787348E+03  0.77761047885E+03  0.84760701099E+02 0.  0.
         13    1    3    3    0    0  0.72735688595E+02  0.11967455363E+03  0.20856817775E+03  0.25122333481E+03  0.00000000000E+00 0. -1.
        -13    1    3    3    0    0  0.26337656117E+03  0.20958595999E+03  0.40470969573E+03  0.52638714405E+03  0.00000000000E+00 0.  1.
         22    1    1    2    0    0 -0.33611224977E+03 -0.32926051362E+03 -0.24482106093E+04  0.24930140629E+04  0.00000000000E+00 0.  1.
<mgrwt>
<rscale>  0 0.27073985E+04</rscale>
<asrwt>0</asrwt>
<pdfrwt beam="1">  1        2 0.11043783E+00 0.27073985E+04</pdfrwt>
<pdfrwt beam="2">  1       -2 0.39273518E+00 0.27073985E+04</pdfrwt>
<totfact> 0.28796590E-01</totfact>
</mgrwt>
</event>
<event>
 6    1  0.1585031E-006  0.1854739E+04  0.7818608E-02  0.8677720E-01
          1   -1    0    0  501    0  0.00000000000E+00  0.00000000000E+00  0.10283653975E+04  0.10283653975E+04  0.00000000000E+00 0. -1.
         -1   -1    0    0    0  501 -0.00000000000E+00 -0.00000000000E+00 -0.83629240055E+03  0.83629240055E+03  0.00000000000E+00 0.  1.
         23    2    1    2    0    0  0.76477335927E+03  0.26463487967E+03  0.54884827132E+03  0.98023792771E+03  0.68717242340E+02 0.  0.
         11    1    3    3    0    0  0.36453167713E+03  0.95755097386E+02  0.23242907002E+03  0.44280430767E+03  0.00000000000E+00 0.  1.
        -11    1    3    3    0    0  0.40024168215E+03  0.16887978229E+03  0.31641920130E+03  0.53743362004E+03  0.00000000000E+00 0. -1.
         22    1    1    2    0    0 -0.76477335927E+03 -0.26463487967E+03 -0.35677527439E+03  0.88441987032E+03  0.00000000000E+00 0.  1.
<mgrwt>
<rscale>  0 0.18547390E+04</rscale>
<asrwt>0</asrwt>
<pdfrwt beam="1">  1        1 0.15821006E+00 0.18547390E+04</pdfrwt>
<pdfrwt beam="2">  1       -1 0.12866037E+00 0.18547390E+04</pdfrwt>
<totfact> 0.70324115E+00</totfact>
</mgrwt>
</event>
<event>
 6    1  0.1585031E-006  0.6567796E+03  0.7818608E-02  0.9794140E-01
         -1   -1    0    0    0  501 -0.00000000000E+00  0.00000000000E+00  0.48871415934E+02  0.48871415934E+02  0.00000000000E+00 0.  1.
          1   -1    0    0  501    0  0.00000000000E+00 -0.00000000000E+00 -0.22066036877E+04  0.22066036877E+04  0.00000000000E+00 0. -1.
         23    2    1    2    0    0 -0.11103841522E+03  0.27364702064E+03 -0.65437090639E+03  0.72338254231E+03  0.88706244604E+02 0.  0.
         11    1    3    3    0    0 -0.70943511266E+02  0.22516688116E+03 -0.43216815663E+03  0.49244534902E+03  0.00000000000E+00 0.  1.
        -11    1    3    3    0    0 -0.40094903953E+02  0.48480139484E+02 -0.22220274976E+03  0.23093719330E+03  0.00000000000E+00 0. -1.
         22    1    1    2    0    0  0.11103841522E+03 -0.27364702064E+03 -0.15033613654E+04  0.15320925614E+04  0.00000000000E+00 0. -1.
<mgrwt>
<rscale>  0 0.65677956E+03</rscale>
<asrwt>0</asrwt>
<pdfrwt beam="1">  1        1 0.33947753E+00 0.65677956E+03</pdfrwt>
<pdfrwt beam="2">  1       -1 0.75186785E-02 0.65677956E+03</pdfrwt>
<totfact> 0.22223795E+02</totfact>
</mgrwt>
</event>
<event>
 6    1  0.1585031E-006  0.1077354E+04  0.7818608E-02  0.9227550E-01
          2   -1    0    0  501    0  0.00000000000E+00  0.00000000000E+00  0.16997877521E+04  0.16997877521E+04  0.00000000000E+00 0.  1.
         -2   -1    0    0    0  501 -0.00000000000E+00 -0.00000000000E+00 -0.17071113766E+03  0.17071113766E+03  0.00000000000E+00 0. -1.
         23    2    1    2    0    0 -0.16824406367E+03  0.41905085995E+03  0.12676461240E+04  0.13487177196E+04  0.90570985257E+02 0.  0.
         13    1    3    3    0    0 -0.88007932627E+02  0.15270440532E+03  0.60243593847E+03  0.62768869001E+03  0.00000000000E+00 0.  1.
        -13    1    3    3    0    0 -0.80236131042E+02  0.26634645464E+03  0.66521018552E+03  0.72102902961E+03  0.00000000000E+00 0. -1.
         22    1    1    2    0    0  0.16824406367E+03 -0.41905085995E+03  0.26143049047E+03  0.52178117016E+03  0.00000000000E+00 0. -1.
<mgrwt>
<rscale>  0 0.10773536E+04</rscale>
<asrwt>0</asrwt>
<pdfrwt beam="1">  1        2 0.26150580E+00 0.10773536E+04</pdfrwt>
<pdfrwt beam="2">  1       -2 0.26263253E-01 0.10773536E+04</pdfrwt>
<totfact> 0.12789190E+02</totfact>
</mgrwt>
</event>
<event>
 6    1  0.1585031E-006  0.4125093E+04  0.7818608E-02  0.7979776E-01
          2   -1    0    0  501    0  0.00000000000E+00  0.00000000000E+00  0.14855132236E+04  0.14855132236E+04  0.00000000000E+00 0. -1.
         -2   -1    0    0    0  501 -0.00000000000E+00 -0.00000000000E+00 -0.28637230150E+04  0.28637230150E+04  0.00000000000E+00 0.  1.
         23    2    1    2    0    0 -0.12016189174E+04 -0.33958914457E+02  0.10763357117E+04  0.16161363763E+04  0.91416585466E+02 0.  0.
         11    1    3    3    0    0 -0.78370645394E+03 -0.45075811563E+02  0.65200904069E+03  0.10204623579E+04  0.00000000000E+00 0.  1.
        -11    1    3    3    0    0 -0.41791246351E+03  0.11116897106E+02  0.42432667098E+03  0.59567401846E+03  0.00000000000E+00 0. -1.
         22    1    1    2    0    0  0.12016189174E+04  0.33958914457E+02 -0.24545455030E+04  0.27330998622E+04  0.00000000000E+00 0.  1.
<mgrwt>
<rscale>  0 0.41250932E+04</rscale>
<asrwt>0</asrwt>
<pdfrwt beam="1">  1        2 0.22854050E+00 0.41250932E+04</pdfrwt>
<pdfrwt beam="2">  1       -2 0.44057277E+00 0.41250932E+04</pdfrwt>
<totfact> 0.40484879E-02</totfact>
</mgrwt>
</event>
<event>
 6    1  0.1585031E-006  0.7492089E+04  0.7818608E-02  0.7528711E-01
          2   -1    0    0  501    0  0.00000000000E+00  0.00000000000E+00  0.56934965632E+04  0.56934965632E+04  0.00000000000E+00 0. -1.
         -2   -1    0    0    0  501 -0.00000000000E+00 -0.00000000000E+00 -0.24647154344E+04  0.24647154344E+04  0.00000000000E+00 0.  1.
         23    2    1    2    0    0 -0.14196898467E+04 -0.12063872938E+04 -0.19235732396E+04  0.26793758894E+04  0.89619109882E+02 0.  0.
         11    1    3    3    0    0 -0.97728202018E+03 -0.84856341087E+03 -0.12795006186E+04  0.18199620442E+04  0.00000000000E+00 0.  1.
        -11    1    3    3    0    0 -0.44240782651E+03 -0.35782388298E+03 -0.64407262099E+03  0.85941384518E+03  0.00000000000E+00 0. -1.
         22    1    1    2    0    0  0.14196898467E+04  0.12063872938E+04  0.51523543684E+04  0.54788361082E+04  0.00000000000E+00 0. -1.
<mgrwt>
<rscale>  0 0.74920889E+04</rscale>
<asrwt>0</asrwt>
<pdfrwt beam="1">  1        2 0.87592254E+00 0.74920889E+04</pdfrwt>
<pdfrwt beam="2">  1       -2 0.37918699E+00 0.74920889E+04</pdfrwt>
<totfact> 0.13910174E-05</totfact>
</mgrwt>
</event>
<event>
 6    1  0.1656243E-006  0.2554226E+04  0.7818608E-02  0.8383918E-01
         -1   -1    0    0    0  501 -0.00000000000E+00  0.00000000000E+00  0.99137089224E+03  0.99137089224E+03  0.00000000000E+00 0.  1.
          1   -1    0    0  501    0  0.00000000000E+00 -0.00000000000E+00 -0.16452142390E+04  0.16452142390E+04  0.00000000000E+00 0. -1.
         23    2    1    2    0    0 -0.43191476048E+02  0.43929128605E+03  0.90784576797E+03  0.10137126074E+04  0.92665928643E+02 0.  0.
         11    1    3    3    0    0 -0.43130995983E+02  0.24446355145E+03  0.60089076260E+03  0.65014799806E+03  0.00000000000E+00 0. -1.
        -11    1    3    3    0    0 -0.60480065337E-01  0.19482773460E+03  0.30695500537E+03  0.36356460932E+03  0.00000000000E+00 0.  1.
         22    1    1    2    0    0  0.43191476048E+02 -0.43929128605E+03 -0.15616891147E+04  0.16228725238E+04  0.00000000000E+00 0. -1.
<mgrwt>
<rscale>  0 0.25542259E+04</rscale>
<asrwt>0</asrwt>
<pdfrwt beam="1">  1        1 0.25310988E+00 0.25542259E+04</pdfrwt>
<pdfrwt beam="2">  1       -1 0.15251860E+00 0.25542259E+04</pdfrwt>
<totfact> 0.15321435E+00</totfact>
</mgrwt>
</event>
<event>
 6    1  0.1585031E-006  0.2993444E+04  0.7818608E-02  0.8245605E-01
         -1   -1    0    0    0  501 -0.00000000000E+00  0.00000000000E+00  0.14104006872E+04  0.14104006872E+04  0.00000000000E+00 0.  1.
          1   -1    0    0  501    0  0.00000000000E+00 -0.00000000000E+00 -0.15883264070E+04  0.15883264070E+04  0.00000000000E+00 0. -1.
         23    2    1    2    0    0 -0.11653388214E+04  0.22242643919E+03 -0.10011043788E+04  0.15547356835E+04  0.86631280800E+02 0.  0.
         11    1    3    3    0    0 -0.34067755361E+03  0.25877331681E+02 -0.29740754092E+03  0.45297028294E+03  0.00000000000E+00 0.  1.
        -11    1    3    3    0    0 -0.82466126777E+03  0.19654910751E+03 -0.70369683791E+03  0.11017654006E+04  0.00000000000E+00 0. -1.
         22    1    1    2    0    0  0.11653388214E+04 -0.22242643919E+03  0.82317865908E+03  0.14439914107E+04  0.00000000000E+00 0.  1.
<mgrwt>
<rscale>  0 0.29934439E+04</rscale>
<asrwt>0</asrwt>
<pdfrwt beam="1">  1        1 0.24435791E+00 0.29934439E+04</pdfrwt>
<pdfrwt beam="2">  1       -1 0.21698472E+00 0.29934439E+04</pdfrwt>
<totfact> 0.55814251E-01</totfact>
</mgrwt>
</event>
<event>
 6    1  0.1585031E-006  0.2731012E+04  0.7818608E-02  0.8325012E-01
         -1   -1    0    0    0  501 -0.00000000000E+00  0.00000000000E+00  0.13045894694E+04  0.13045894694E+04  0.00000000000E+00 0.  1.
          1   -1    0    0  501    0  0.00000000000E+00 -0.00000000000E+00 -0.14292667552E+04  0.14292667552E+04  0.00000000000E+00 0. -1.
         23    2    1    2    0    0 -0.10570514245E+04  0.73738778635E+03 -0.50999800280E+03  0.13886534457E+04  0.84628409872E+02 0.  0.
         13    1    3    3    0    0 -0.67369956032E+02  0.32785189847E+02 -0.12992265920E+02  0.76041953045E+02  0.00000000000E+00 0. -1.
        -13    1    3    3    0    0 -0.98968146851E+03  0.70460259650E+03 -0.49700573688E+03  0.13126114926E+04  0.00000000000E+00 0.  1.
         22    1    1    2    0    0  0.10570514245E+04 -0.73738778635E+03  0.38532071695E+03  0.13452027789E+04  0.00000000000E+00 0.  1.
<mgrwt>
<rscale>  0 0.27310118E+04</rscale>
<asrwt>0</asrwt>
<pdfrwt beam="1">  1        1 0.21988719E+00 0.27310118E+04</pdfrwt>
<pdfrwt beam="2">  1       -1 0.20070607E+00 0.27310118E+04</pdfrwt>
<totfact> 0.94978153E-01</totfact>
</mgrwt>
</event>
<event>
 6    1  0.1585031E-006  0.2330568E+04  0.7818608E-02  0.8465965E-01
         -1   -1    0    0    0  501 -0.00000000000E+00  0.00000000000E+00  0.10493313789E+04  0.10493313789E+04  0.00000000000E+00 0.  1.
          1   -1    0    0  501    0  0.00000000000E+00 -0.00000000000E+00 -0.12940494432E+04  0.12940494432E+04  0.00000000000E+00 0. -1.
         23    2    1    2    0    0 -0.80313197034E+03  0.83004027482E+03  0.17191091531E+02  0.11590733343E+04  0.95747799305E+02 0.  0.
         13    1    3    3    0    0 -0.70731610980E+03  0.68692616342E+03 -0.63821137147E-01  0.98598358873E+03  0.00000000000E+00 0. -1.
        -13    1    3    3    0    0 -0.95815860541E+02  0.14311411140E+03  0.17254912668E+02  0.17308974558E+03  0.00000000000E+00 0.  1.
         22    1    1    2    0    0  0.80313197034E+03 -0.83004027482E+03 -0.26190915584E+03  0.11843074877E+04  0.00000000000E+00 0.  1.
<mgrwt>
<rscale>  0 0.23305679E+04</rscale>
<asrwt>0</asrwt>
<pdfrwt beam="1">  1        1 0.19908453E+00 0.23305679E+04</pdfrwt>
<pdfrwt beam="2">  1       -1 0.16143560E+00 0.23305679E+04</pdfrwt>
<totfact> 0.23473450E+00</totfact>
</mgrwt>
</event>
<event>
 6    1  0.1585031E-006  0.3429746E+04  0.7818608E-02  0.8130644E-01
          1   -1    0    0  501    0  0.00000000000E+00  0.00000000000E+00  0.21288472509E+04  0.21288472509E+04  0.00000000000E+00 0. -1.
         -1   -1    0    0    0  501 -0.00000000000E+00 -0.00000000000E+00 -0.13813997827E+04  0.13813997827E+04  0.00000000000E+00 0.  1.
         23    2    1    2    0    0 -0.73944013607E+03 -0.51302399268E+03 -0.11185448372E+04  0.14385586846E+04  0.91341142125E+02 0.  0.
         11    1    3    3    0    0 -0.64143196083E+03 -0.43772749854E+03 -0.91163902751E+03  0.11975500156E+04  0.00000000000E+00 0. -1.
        -11    1    3    3    0    0 -0.98008175240E+02 -0.75296494134E+02 -0.20690580971E+03  0.24100866900E+03  0.00000000000E+00 0.  1.
         22    1    1    2    0    0  0.73944013607E+03  0.51302399268E+03  0.18659923053E+04  0.20716883490E+04  0.00000000000E+00 0. -1.
<mgrwt>
<rscale>  0 0.34297458E+04</rscale>
<asrwt>0</asrwt>
<pdfrwt beam="1">  1        1 0.32751496E+00 0.34297458E+04</pdfrwt>
<pdfrwt beam="2">  1       -1 0.21252304E+00 0.34297458E+04</pdfrwt>
<totfact> 0.24706615E-01</totfact>
</mgrwt>
</event>
<event>
 6    1  0.1585031E-006  0.3170949E+04  0.7818608E-02  0.8196532E-01
          1   -1    0    0  501    0  0.00000000000E+00  0.00000000000E+00  0.15618871460E+04  0.15618871460E+04  0.00000000000E+00 0. -1.
         -1   -1    0    0    0  501 -0.00000000000E+00 -0.00000000000E+00 -0.16094180864E+04  0.16094180864E+04  0.00000000000E+00 0.  1.
         23    2    1    2    0    0 -0.13338346303E+04 -0.96250439083E+02  0.82545475105E+03  0.15742820686E+04  0.92787486154E+02 0.  0.
         11    1    3    3    0    0 -0.89038571649E+03 -0.67252141486E+02  0.49926959159E+03  0.10230247796E+04  0.00000000000E+00 0.  1.
        -11    1    3    3    0    0 -0.44344891381E+03 -0.28998297597E+02  0.32618515946E+03  0.55125728900E+03  0.00000000000E+00 0. -1.
         22    1    1    2    0    0  0.13338346303E+04  0.96250439083E+02 -0.87298569152E+03  0.15970231638E+04  0.00000000000E+00 0.  1.
<mgrwt>
<rscale>  0 0.31709490E+04</rscale>
<asrwt>0</asrwt>
<pdfrwt beam="1">  1        1 0.24029033E+00 0.31709490E+04</pdfrwt>
<pdfrwt beam="2">  1       -1 0.24760278E+00 0.31709490E+04</pdfrwt>
<totfact> 0.35937071E-01</totfact>
</mgrwt>
</event>
<event>
 6    1  0.1585031E-006  0.1505221E+04  0.7818608E-02  0.8880988E-01
         -2   -1    0    0    0  501 -0.00000000000E+00  0.00000000000E+00  0.23078915980E+03  0.23078915980E+03  0.00000000000E+00 0.  1.
          2   -1    0    0  501    0  0.00000000000E+00 -0.00000000000E+00 -0.24542857669E+04  0.24542857669E+04  0.00000000000E+00 0. -1.
         23    2    1    2    0    0 -0.49552681762E+03  0.48344374953E+03 -0.16297466026E+04  0.17730421675E+04  0.91322796766E+02 0.  0.
         13    1    3    3    0    0 -0.13401721596E+03  0.17320309511E+03 -0.44062733406E+03  0.49204915796E+03  0.00000000000E+00 0. -1.
        -13    1    3    3    0    0 -0.36150960166E+03  0.31024065442E+03 -0.11891192686E+04  0.12809930096E+04  0.00000000000E+00 0.  1.
         22    1    1    2    0    0  0.49552681762E+03 -0.48344374953E+03 -0.59375000448E+03  0.91203275915E+03  0.00000000000E+00 0.  1.
<mgrwt>
<rscale>  0 0.15052210E+04</rscale>
<asrwt>0</asrwt>
<pdfrwt beam="1">  1        2 0.37758243E+00 0.15052210E+04</pdfrwt>
<pdfrwt beam="2">  1       -2 0.35506024E-01 0.15052210E+04</pdfrwt>
<totfact> 0.26695660E+01</totfact>
</mgrwt>
</event>
<event>
 6    1  0.1585031E-006  0.2578217E+04  0.7818608E-02  0.8375638E-01
          2   -1    0    0  501    0  0.00000000000E+00  0.00000000000E+00  0.22676629933E+04  0.22676629933E+04  0.00000000000E+00 0.  1.
         -2   -1    0    0    0  501 -0.00000000000E+00 -0.00000000000E+00 -0.73282499322E+03  0.73282499322E+03  0.00000000000E+00 0. -1.
         23    2    1    2    0    0  0.35666068900E+03 -0.12016652724E+04  0.11105116887E+04  0.16771365243E+04  0.91347887497E+02 0.  0.
         11    1    3    3    0    0  0.78903608304E+02 -0.17108512670E+03  0.14282852122E+03  0.23642310897E+03  0.00000000000E+00 0.  1.
        -11    1    3    3    0    0  0.27775708069E+03 -0.10305801457E+04  0.96768316747E+03  0.14407134153E+04  0.00000000000E+00 0. -1.
         22    1    1    2    0    0 -0.35666068900E+03  0.12016652724E+04  0.42432631137E+03  0.13233514622E+04  0.00000000000E+00 0. -1.
<mgrwt>
<rscale>  0 0.25782165E+04</rscale>
<asrwt>0</asrwt>
<pdfrwt beam="1">  1        2 0.34887123E+00 0.25782165E+04</pdfrwt>
<pdfrwt beam="2">  1       -2 0.11274231E+00 0.25782165E+04</pdfrwt>
<totfact> 0.25931143E+00</totfact>
</mgrwt>
</event>
<event>
 6    1  0.1585031E-006  0.1480978E+04  0.7818608E-02  0.8897201E-01
          2   -1    0    0  501    0  0.00000000000E+00  0.00000000000E+00  0.16563767980E+04  0.16563767980E+04  0.00000000000E+00 0.  1.
         -2   -1    0    0    0  501 -0.00000000000E+00 -0.00000000000E+00 -0.33103836675E+03  0.33103836675E+03  0.00000000000E+00 0. -1.
         23    2    1    2    0    0  0.23428431288E+03  0.31257491989E+03 -0.17467909124E+03  0.43736845978E+03  0.90477427496E+02 0.  0.
         13    1    3    3    0    0  0.12785523601E+03  0.22615515801E+03 -0.14342026980E+03  0.29675324878E+03  0.00000000000E+00 0. -1.
        -13    1    3    3    0    0  0.10642907687E+03  0.86419761885E+02 -0.31258821436E+02  0.14061521101E+03  0.00000000000E+00 0.  1.
         22    1    1    2    0    0 -0.23428431288E+03 -0.31257491989E+03  0.15000175224E+04  0.15500467049E+04  0.00000000000E+00 0.  1.
<mgrwt>
<rscale>  0 0.14809784E+04</rscale>
<asrwt>0</asrwt>
<pdfrwt beam="1">  1        2 0.25482719E+00 0.14809784E+04</pdfrwt>
<pdfrwt beam="2">  1       -2 0.50928980E-01 0.14809784E+04</pdfrwt>
<totfact> 0.36565508E+01</totfact>
</mgrwt>
</event>
<event>
 6    1  0.1585031E-006  0.2017889E+04  0.7818608E-02  0.8598302E-01
          2   -1    0    0  501    0  0.00000000000E+00  0.00000000000E+00  0.19067275963E+04  0.19067275963E+04  0.00000000000E+00 0. -1.
         -2   -1    0    0    0  501 -0.00000000000E+00 -0.00000000000E+00 -0.53388264326E+03  0.53388264326E+03  0.00000000000E+00 0.  1.
         23    2    1    2    0    0 -0.10000992636E+03  0.36179095851E+03  0.18178129810E+04  0.18584665897E+04  0.92516745217E+02 0.  0.
         11    1    3    3    0    0 -0.64703365834E+02  0.23515638763E+03  0.95279851393E+03  0.98351922215E+03  0.00000000000E+00 0.  1.
        -11    1    3    3    0    0 -0.35306560529E+02  0.12663457089E+03  0.86501446710E+03  0.87494736759E+03  0.00000000000E+00 0. -1.
         22    1    1    2    0    0  0.10000992636E+03 -0.36179095851E+03 -0.44496802802E+03  0.58214364979E+03  0.00000000000E+00 0.  1.
<mgrwt>
<rscale>  0 0.20178888E+04</rscale>
<asrwt>0</asrwt>
<pdfrwt beam="1">  1        2 0.29334270E+00 0.20178888E+04</pdfrwt>
<pdfrwt beam="2">  1       -2 0.82135792E-01 0.20178888E+04</pdfrwt>
<totfact> 0.90960311E+00</totfact>
</mgrwt>
</event>
<event>
 6    1  0.1585031E-006  0.2723248E+04  0.7818608E-02  0.8327501E-01
         -1   -1    0    0    0  501 -0.00000000000E+00  0.00000000000E+00  0.10193734587E+04  0.10193734587E+04  0.00000000000E+00 0.  1.
          1   -1    0    0  501    0  0.00000000000E+00 -0.00000000000E+00 -0.18187837936E+04  0.18187837936E+04  0.00000000000E+00 0. -1.
         23    2    1    2    0    0  0.94092766192E+03 -0.46609836867E+03 -0.13010861195E+04  0.16744256908E+04  0.91015105685E+02 0.  0.
         11    1    3    3    0    0  0.36424689686E+03 -0.22901384831E+03 -0.54762419728E+03  0.69643047466E+03  0.00000000000E+00 0. -1.
        -11    1    3    3    0    0  0.57668076506E+03 -0.23708452036E+03 -0.75346192221E+03  0.97799521615E+03  0.00000000000E+00 0.  1.
         22    1    1    2    0    0 -0.94092766192E+03  0.46609836867E+03  0.50167578456E+03  0.11637315614E+04  0.00000000000E+00 0.  1.
<mgrwt>
<rscale>  0 0.27232480E+04</rscale>
<asrwt>0</asrwt>
<pdfrwt beam="1">  1        1 0.27981289E+00 0.27232480E+04</pdfrwt>
<pdfrwt beam="2">  1       -1 0.15682669E+00 0.27232480E+04</pdfrwt>
<totfact> 0.10651249E+00</totfact>
</mgrwt>
</event>
<event>
 6    1  0.1585031E-006  0.2181427E+04  0.7818608E-02  0.8526199E-01
          2   -1    0    0  501    0  0.00000000000E+00  0.00000000000E+00  0.16769340934E+04  0.16769340934E+04  0.00000000000E+00 0. -1.
         -2   -1    0    0    0  501 -0.00000000000E+00 -0.00000000000E+00 -0.70942326684E+03  0.70942326684E+03  0.00000000000E+00 0.  1.
         23    2    1    2    0    0 -0.78988767097E+03 -0.73377096550E+03  0.31831079439E+03  0.11278649906E+04  0.91735013381E+02 0.  0.
         11    1    3    3    0    0 -0.50665527411E+03 -0.43883628466E+03  0.15798399311E+03  0.68864780083E+03  0.00000000000E+00 0. -1.
        -11    1    3    3    0    0 -0.28323239686E+03 -0.29493468084E+03  0.16032680128E+03  0.43921718979E+03  0.00000000000E+00 0.  1.
         22    1    1    2    0    0  0.78988767097E+03  0.73377096550E+03  0.64920003212E+03  0.12584923696E+04  0.00000000000E+00 0. -1.
<mgrwt>
<rscale>  0 0.21814271E+04</rscale>
<asrwt>0</asrwt>
<pdfrwt beam="1">  1        2 0.25798986E+00 0.21814271E+04</pdfrwt>
<pdfrwt beam="2">  1       -2 0.10914204E+00 0.21814271E+04</pdfrwt>
<totfact> 0.61923950E+00</totfact>
</mgrwt>
</event>
<event>
 6    1  0.1585031E-006  0.3881654E+04  0.7818608E-02  0.8028856E-01
         -2   -1    0    0    0  501 -0.00000000000E+00  0.00000000000E+00  0.13897401004E+04  0.13897401004E+04  0.00000000000E+00 0. -1.
          2   -1    0    0  501    0  0.00000000000E+00 -0.00000000000E+00 -0.27104410939E+04  0.27104410939E+04  0.00000000000E+00 0.  1.
         23    2    1    2    0    0  0.92277397679E+03 -0.13687193767E+04  0.41516246474E+03  0.17047425101E+04  0.94247596086E+02 0.  0.
         13    1    3    3    0    0  0.12389403125E+03 -0.24310814740E+03  0.57220510402E+02  0.27879291441E+03  0.00000000000E+00 0.  1.
        -13    1    3    3    0    0  0.79887994554E+03 -0.11256112293E+04  0.35794195434E+03  0.14259495957E+04  0.00000000000E+00 0. -1.
         22    1    1    2    0    0 -0.92277397679E+03  0.13687193767E+04 -0.17358634582E+04  0.23954386842E+04  0.00000000000E+00 0.  1.
<mgrwt>
<rscale>  0 0.38816536E+04</rscale>
<asrwt>0</asrwt>
<pdfrwt beam="1">  1        2 0.41699093E+00 0.38816536E+04</pdfrwt>
<pdfrwt beam="2">  1       -2 0.21380617E+00 0.38816536E+04</pdfrwt>
<totfact> 0.22562232E-01</totfact>
</mgrwt>
</event>
<event>
 6    1  0.1585031E-006  0.1093713E+04  0.7818608E-02  0.9211341E-01
         -1   -1    0    0    0  501 -0.00000000000E+00  0.00000000000E+00  0.53072279349E+03  0.53072279349E+03  0.00000000000E+00 0.  1.
          1   -1    0    0  501    0  0.00000000000E+00 -0.00000000000E+00 -0.56348099496E+03  0.56348099496E+03  0.00000000000E+00 0. -1.
         23    2    1    2    0    0 -0.52741735242E+03  0.70877999270E+02  0.94064531160E+02  0.54714185418E+03  0.85576387899E+02 0.  0.
         11    1    3    3    0    0 -0.34349717447E+03  0.51816917870E+02  0.20012844425E+02  0.34795950308E+03  0.00000000000E+00 0. -1.
        -11    1    3    3    0    0 -0.18392017795E+03  0.19061081400E+02  0.74051686735E+02  0.19918235110E+03  0.00000000000E+00 0.  1.
         22    1    1    2    0    0  0.52741735242E+03 -0.70877999270E+02 -0.12682273263E+03  0.54706193426E+03  0.00000000000E+00 0.  1.
<mgrwt>
<rscale>  0 0.10937133E+04</rscale>
<asrwt>0</asrwt>
<pdfrwt beam="1">  1        1 0.86689384E-01 0.10937133E+04</pdfrwt>
<pdfrwt beam="2">  1       -1 0.81649660E-01 0.10937133E+04</pdfrwt>
<totfact> 0.55824865E+01</totfact>
</mgrwt>
</event>
<event>
 6    1  0.1585031E-006  0.1363926E+04  0.7818608E-02  0.8980353E-01
         -1   -1    0    0    0  501 -0.00000000000E+00  0.00000000000E+00  0.78609830521E+03  0.78609830521E+03  0.00000000000E+00 0.  1.
          1   -1    0    0  501    0  0.00000000000E+00 -0.00000000000E+00 -0.59162246765E+03  0.59162246765E+03  0.00000000000E+00 0. -1.
         23    2    1    2    0    0  0.65307844940E+03 -0.85407850731E+02 -0.69020343980E+02  0.66832934373E+03  0.89968559910E+02 0.  0.
         13    1    3    3    0    0  0.43393789389E+03 -0.66150651440E+02 -0.41194821118E+01  0.43897035729E+03  0.00000000000E+00 0.  1.
        -13    1    3    3    0    0  0.21914055551E+03 -0.19257199290E+02 -0.64900861868E+02  0.22935898645E+03  0.00000000000E+00 0. -1.
         22    1    1    2    0    0 -0.65307844940E+03  0.85407850731E+02  0.26349618154E+03  0.70939142913E+03  0.00000000000E+00 0.  1.
<mgrwt>
<rscale>  0 0.13639258E+04</rscale>
<asrwt>0</asrwt>
<pdfrwt beam="1">  1        1 0.91018841E-01 0.13639258E+04</pdfrwt>
<pdfrwt beam="2">  1       -1 0.12093820E+00 0.13639258E+04</pdfrwt>
<totfact> 0.20763644E+01</totfact>
</mgrwt>
</event>
<event>
 6    1  0.1585031E-006  0.2166055E+04  0.7818608E-02  0.8532691E-01
          2   -1    0    0  501    0  0.00000000000E+00  0.00000000000E+00  0.23949646905E+04  0.23949646905E+04  0.00000000000E+00 0. -1.
         -2   -1    0    0    0  501 -0.00000000000E+00 -0.00000000000E+00 -0.48975602781E+03  0.48975602781E+03  0.00000000000E+00 0.  1.
         23    2    1    2    0    0  0.24259928534E+03  0.10533119303E+04  0.93017954483E+03  0.14290414211E+04  0.92762932559E+02 0.  0.
         13    1    3    3    0    0  0.19515308021E+03  0.93438144070E+03  0.78872884715E+03  0.12382433508E+04  0.00000000000E+00 0.  1.
        -13    1    3    3    0    0  0.47446205135E+02  0.11893048963E+03  0.14145069768E+03  0.19079807027E+03  0.00000000000E+00 0. -1.
         22    1    1    2    0    0 -0.24259928534E+03 -0.10533119303E+04  0.97502911790E+03  0.14556792973E+04  0.00000000000E+00 0. -1.
<mgrwt>
<rscale>  0 0.21660548E+04</rscale>
<asrwt>0</asrwt>
<pdfrwt beam="1">  1        2 0.36845610E+00 0.21660548E+04</pdfrwt>
<pdfrwt beam="2">  1       -2 0.75347082E-01 0.21660548E+04</pdfrwt>
<totfact> 0.57978496E+00</totfact>
</mgrwt>
</event>
<event>
 6    1  0.1585031E-006  0.1757960E+04  0.7818608E-02  0.8728981E-01
         -1   -1    0    0    0  501 -0.00000000000E+00  0.00000000000E+00  0.29642307776E+03  0.29642307776E+03  0.00000000000E+00 0.  1.
          1   -1    0    0  501    0  0.00000000000E+00 -0.00000000000E+00 -0.26064296483E+04  0.26064296483E+04  0.00000000000E+00 0. -1.
         23    2    1    2    0    0  0.86247978718E+03 -0.39909253640E+02 -0.90937848219E+03  0.12574885798E+04  0.94043461604E+02 0.  0.
         11    1    3    3    0    0  0.63219171580E+03 -0.23637259777E+02 -0.60400573935E+03  0.87467023429E+03  0.00000000000E+00 0.  1.
        -11    1    3    3    0    0  0.23028807139E+03 -0.16271993862E+02 -0.30537274284E+03  0.38281834553E+03  0.00000000000E+00 0. -1.
         22    1    1    2    0    0 -0.86247978718E+03  0.39909253640E+02 -0.14006280883E+04  0.16453641462E+04  0.00000000000E+00 0. -1.
<mgrwt>
<rscale>  0 0.17579601E+04</rscale>
<asrwt>0</asrwt>
<pdfrwt beam="1">  1        1 0.40098918E+00 0.17579601E+04</pdfrwt>
<pdfrwt beam="2">  1       -1 0.45603551E-01 0.17579601E+04</pdfrwt>
<totfact> 0.51741047E+00</totfact>
</mgrwt>
</event>
<event>
 6    1  0.1585031E-006  0.2753438E+04  0.7818608E-02  0.8317872E-01
          2   -1    0    0  501    0  0.00000000000E+00  0.00000000000E+00  0.11759169580E+04  0.11759169580E+04  0.00000000000E+00 0. -1.
         -2   -1    0    0    0  501 -0.00000000000E+00 -0.00000000000E+00 -0.16118098802E+04  0.16118098802E+04  0.00000000000E+00 0.  1.
         23    2    1    2    0    0  0.12808954651E+03  0.11427735768E+04  0.54548764961E+03  0.12759576077E+04  0.90402771875E+02 0.  0.
         13    1    3    3    0    0  0.13904740252E+03  0.93323774781E+03  0.45320061375E+03  0.10467366767E+04  0.00000000000E+00 0. -1.
        -13    1    3    3    0    0 -0.10957856015E+02  0.20953582895E+03  0.92287035857E+02  0.22922093100E+03  0.00000000000E+00 0.  1.
         22    1    1    2    0    0 -0.12808954651E+03 -0.11427735768E+04 -0.98138057183E+03  0.15117692305E+04  0.00000000000E+00 0.  1.
<mgrwt>
<rscale>  0 0.27534375E+04</rscale>
<asrwt>0</asrwt>
<pdfrwt beam="1">  1        2 0.18091030E+00 0.27534375E+04</pdfrwt>
<pdfrwt beam="2">  1       -2 0.24797075E+00 0.27534375E+04</pdfrwt>
<totfact> 0.11312402E+00</totfact>
</mgrwt>
</event>
<event>
 6    1  0.1585031E-006  0.2120146E+04  0.7818608E-02  0.8552420E-01
          2   -1    0    0  501    0  0.00000000000E+00  0.00000000000E+00  0.11548558311E+04  0.11548558311E+04  0.00000000000E+00 0.  1.
         -2   -1    0    0    0  501 -0.00000000000E+00 -0.00000000000E+00 -0.97306972378E+03  0.97306972378E+03  0.00000000000E+00 0. -1.
         23    2    1    2    0    0 -0.12525057438E+03 -0.52637469411E+03 -0.82162007252E+03  0.98793345546E+03  0.90525929262E+02 0.  0.
         11    1    3    3    0    0 -0.60874028566E+02 -0.20523488754E+03 -0.40383817947E+03  0.45706923066E+03  0.00000000000E+00 0.  1.
        -11    1    3    3    0    0 -0.64376545811E+02 -0.32113980657E+03 -0.41778189306E+03  0.53086422480E+03  0.00000000000E+00 0. -1.
         22    1    1    2    0    0  0.12525057438E+03  0.52637469411E+03  0.10034061798E+04  0.11399920994E+04  0.00000000000E+00 0.  1.
<mgrwt>
<rscale>  0 0.21201465E+04</rscale>
<asrwt>0</asrwt>
<pdfrwt beam="1">  1        2 0.17767013E+00 0.21201465E+04</pdfrwt>
<pdfrwt beam="2">  1       -2 0.14970303E+00 0.21201465E+04</pdfrwt>
<totfact> 0.55882677E+00</totfact>
</mgrwt>
</event>
<event>
 6    1  0.1585031E-006  0.5066018E+04  0.7818608E-02  0.7818403E-01
         -2   -1    0    0    0  501 -0.00000000000E+00  0.00000000000E+00  0.14342559071E+04  0.14342559071E+04  0.00000000000E+00 0.  1.
          2   -1    0    0  501    0  0.00000000000E+00 -0.00000000000E+00 -0.44734935863E+04  0.44734935863E+04  0.00000000000E+00 0. -1.
         23    2    1    2    0    0 -0.11482269377E+04 -0.98696203625E+03  0.84686348807E+03  0.17371018887E+04  0.88464923832E+02 0.  0.
         11    1    3    3    0    0 -0.30440202656E+03 -0.30636626159E+03  0.26556313512E+03  0.50699571867E+03  0.00000000000E+00 0.  1.
        -11    1    3    3    0    0 -0.84382491110E+03 -0.68059577466E+03  0.58130035295E+03  0.12301061700E+04  0.00000000000E+00 0. -1.
         22    1    1    2    0    0  0.11482269377E+04  0.98696203625E+03 -0.38861011673E+04  0.41706476048E+04  0.00000000000E+00 0. -1.
<mgrwt>
<rscale>  0 0.50660180E+04</rscale>
<asrwt>0</asrwt>
<pdfrwt beam="1">  1        2 0.68822978E+00 0.50660180E+04</pdfrwt>
<pdfrwt beam="2">  1       -2 0.22065476E+00 0.50660180E+04</pdfrwt>
<totfact> 0.91722244E-03</totfact>
</mgrwt>
</event>
<event>
 6    1  0.1585031E-006  0.3319895E+04  0.7818608E-02  0.8157851E-01
         -1   -1    0    0    0  501 -0.00000000000E+00  0.00000000000E+00  0.11688542478E+04  0.11688542478E+04  0.00000000000E+00 0.  1.
          1   -1    0    0  501    0  0.00000000000E+00 -0.00000000000E+00 -0.23573738529E+04  0.23573738529E+04  0.00000000000E+00 0. -1.
         23    2    1    2    0    0 -0.30834217200E+02 -0.13424240744E+04  0.43863173266E+03  0.14165658955E+04  0.10586781780E+03 0.  0.
         11    1    3    3    0    0  0.20661246531E+02 -0.79530047136E+02  0.38952837028E+02  0.90935356260E+02  0.00000000000E+00 0.  1.
        -11    1    3    3    0    0 -0.51495463730E+02 -0.12628940272E+04  0.39967889563E+03  0.13256305392E+04  0.00000000000E+00 0. -1.
         22    1    1    2    0    0  0.30834217200E+02  0.13424240744E+04 -0.16271513377E+04  0.21096622053E+04  0.00000000000E+00 0. -1.
<mgrwt>
<rscale>  0 0.33198954E+04</rscale>
<asrwt>0</asrwt>
<pdfrwt beam="1">  1        1 0.36267290E+00 0.33198954E+04</pdfrwt>
<pdfrwt beam="2">  1       -1 0.17982373E+00 0.33198954E+04</pdfrwt>
<totfact> 0.29379946E-01</totfact>
</mgrwt>
</event>
<event>
 6    1  0.1650821E-006  0.3883808E+04  0.7818608E-02  0.8028405E-01
         -1   -1    0    0    0  501 -0.00000000000E+00  0.00000000000E+00  0.15492616441E+04  0.15492616441E+04  0.00000000000E+00 0.  1.
          1   -1    0    0  501    0  0.00000000000E+00 -0.00000000000E+00 -0.24340568436E+04  0.24340568436E+04  0.00000000000E+00 0. -1.
         23    2    1    2    0    0  0.18563502724E+04  0.38795438757E+03 -0.19337843614E+02  0.18987174766E+04  0.90604430690E+02 0.  0.
         11    1    3    3    0    0  0.10716916950E+04  0.25898377970E+03 -0.39936857111E+02  0.11032636312E+04  0.00000000000E+00 0.  1.
        -11    1    3    3    0    0  0.78465857741E+03  0.12897060787E+03  0.20599013497E+02  0.79545384539E+03  0.00000000000E+00 0. -1.
         22    1    1    2    0    0 -0.18563502724E+04 -0.38795438757E+03 -0.86545735586E+03  0.20846010111E+04  0.00000000000E+00 0. -1.
<mgrwt>
<rscale>  0 0.38838079E+04</rscale>
<asrwt>0</asrwt>
<pdfrwt beam="1">  1        1 0.37447029E+00 0.38838079E+04</pdfrwt>
<pdfrwt beam="2">  1       -1 0.23834794E+00 0.38838079E+04</pdfrwt>
<totfact> 0.98854604E-02</totfact>
</mgrwt>
</event>
<event>
 6    1  0.1585031E-006  0.3177128E+04  0.7818608E-02  0.8194884E-01
          2   -1    0    0  501    0  0.00000000000E+00  0.00000000000E+00  0.22342327327E+04  0.22342327327E+04  0.00000000000E+00 0. -1.
         -2   -1    0    0    0  501 -0.00000000000E+00 -0.00000000000E+00 -0.11294865823E+04  0.11294865823E+04  0.00000000000E+00 0.  1.
         23    2    1    2    0    0  0.91235252200E+03  0.39267349548E+03 -0.75785269379E+03  0.12528299165E+04  0.93072529486E+02 0.  0.
         13    1    3    3    0    0  0.30366664946E+03  0.17193648885E+03 -0.23661323997E+03  0.42161761766E+03  0.00000000000E+00 0.  1.
        -13    1    3    3    0    0  0.60868587254E+03  0.22073700662E+03 -0.52123945382E+03  0.83121229884E+03  0.00000000000E+00 0. -1.
         22    1    1    2    0    0 -0.91235252200E+03 -0.39267349548E+03  0.18625988442E+04  0.21108893985E+04  0.00000000000E+00 0. -1.
<mgrwt>
<rscale>  0 0.31771282E+04</rscale>
<asrwt>0</asrwt>
<pdfrwt beam="1">  1        2 0.34372811E+00 0.31771282E+04</pdfrwt>
<pdfrwt beam="2">  1       -2 0.17376717E+00 0.31771282E+04</pdfrwt>
<totfact> 0.83526227E-01</totfact>
</mgrwt>
</event>
<event>
 6    1  0.1585031E-006  0.2722842E+04  0.7818608E-02  0.8327631E-01
         -2   -1    0    0    0  501 -0.00000000000E+00  0.00000000000E+00  0.84297642034E+03  0.84297642034E+03  0.00000000000E+00 0.  1.
          2   -1    0    0  501    0  0.00000000000E+00 -0.00000000000E+00 -0.21987182424E+04  0.21987182424E+04  0.00000000000E+00 0. -1.
         23    2    1    2    0    0 -0.30293594708E+02 -0.85078091325E+03  0.50602309859E+03  0.99452234854E+03  0.90936577908E+02 0.  0.
         13    1    3    3    0    0 -0.60067275279E+02 -0.49770091524E+03  0.27939083267E+03  0.57391072125E+03  0.00000000000E+00 0. -1.
        -13    1    3    3    0    0  0.29773680571E+02 -0.35307999801E+03  0.22663226592E+03  0.42061162728E+03  0.00000000000E+00 0.  1.
         22    1    1    2    0    0  0.30293594708E+02  0.85078091325E+03 -0.18617649206E+04  0.20471723142E+04  0.00000000000E+00 0. -1.
<mgrwt>
<rscale>  0 0.27228424E+04</rscale>
<asrwt>0</asrwt>
<pdfrwt beam="1">  1        2 0.33826434E+00 0.27228424E+04</pdfrwt>
<pdfrwt beam="2">  1       -2 0.12968868E+00 0.27228424E+04</pdfrwt>
<totfact> 0.19789221E+00</totfact>
</mgrwt>
</event>
<event>
 6    1  0.1585031E-006  0.4844119E+04  0.7818608E-02  0.7853014E-01
          2   -1    0    0  501    0  0.00000000000E+00  0.00000000000E+00  0.15028793654E+04  0.15028793654E+04  0.00000000000E+00 0. -1.
         -2   -1    0    0    0  501 -0.00000000000E+00 -0.00000000000E+00 -0.39034214972E+04  0.39034214972E+04  0.00000000000E+00 0.  1.
         23    2    1    2    0    0 -0.20324812127E+04 -0.13097396804E+04 -0.13420377865E+04  0.27668256573E+04  0.88661645005E+02 0.  0.
         11    1    3    3    0    0 -0.90336041198E+03 -0.55042867438E+03 -0.62707943483E+03  0.12297399632E+04  0.00000000000E+00 0. -1.
        -11    1    3    3    0    0 -0.11291208007E+04 -0.75931100601E+03 -0.71495835171E+03  0.15370856941E+04  0.00000000000E+00 0.  1.
         22    1    1    2    0    0  0.20324812127E+04  0.13097396804E+04 -0.10585043452E+04  0.26394752052E+04  0.00000000000E+00 0.  1.
<mgrwt>
<rscale>  0 0.48441188E+04</rscale>
<asrwt>0</asrwt>
<pdfrwt beam="1">  1        2 0.23121221E+00 0.48441188E+04</pdfrwt>
<pdfrwt beam="2">  1       -2 0.60052638E+00 0.48441188E+04</pdfrwt>
<totfact> 0.47505675E-03</totfact>
</mgrwt>
</event>
<event>
 6    1  0.1585031E-006  0.3181602E+04  0.7818608E-02  0.8193693E-01
          1   -1    0    0  501    0  0.00000000000E+00  0.00000000000E+00  0.28824078459E+04  0.28824078459E+04  0.00000000000E+00 0. -1.
         -1   -1    0    0    0  501 -0.00000000000E+00 -0.00000000000E+00 -0.87796329712E+03  0.87796329712E+03  0.00000000000E+00 0.  1.
         23    2    1    2    0    0  0.12953627725E+03  0.13997217032E+04  0.12611590811E+03  0.14142852588E+04  0.91088294692E+02 0.  0.
         13    1    3    3    0    0  0.87253234098E+01  0.57878898652E+03  0.55685411586E+02  0.58152703054E+03  0.00000000000E+00 0.  1.
        -13    1    3    3    0    0  0.12081095384E+03  0.82093271672E+03  0.70430496523E+02  0.83275822829E+03  0.00000000000E+00 0. -1.
         22    1    1    2    0    0 -0.12953627725E+03 -0.13997217032E+04  0.18783286407E+04  0.23460858842E+04  0.00000000000E+00 0. -1.
<mgrwt>
<rscale>  0 0.31816023E+04</rscale>
<asrwt>0</asrwt>
<pdfrwt beam="1">  1        1 0.44344736E+00 0.31816023E+04</pdfrwt>
<pdfrwt beam="2">  1       -1 0.13507128E+00 0.31816023E+04</pdfrwt>
<totfact> 0.28020450E-01</totfact>
</mgrwt>
</event>
<event>
 6    1  0.1585031E-006  0.3328147E+04  0.7818608E-02  0.8155770E-01
         -4   -1    0    0    0  501 -0.00000000000E+00  0.00000000000E+00  0.13077467377E+04  0.13077467377E+04  0.00000000000E+00 0.  1.
          4   -1    0    0  501    0  0.00000000000E+00 -0.00000000000E+00 -0.21174905993E+04  0.21174905993E+04  0.00000000000E+00 0. -1.
         23    2    1    2    0    0  0.28889527025E+03  0.63316307255E+03 -0.19593160986E+04  0.20814098624E+04  0.94823453867E+02 0.  0.
         11    1    3    3    0    0  0.87502130064E+02  0.15956160136E+03 -0.40229431557E+03  0.44153962872E+03  0.00000000000E+00 0.  1.
        -11    1    3    3    0    0  0.20139314019E+03  0.47360147119E+03 -0.15570217830E+04  0.16398702337E+04  0.00000000000E+00 0. -1.
         22    1    1    2    0    0 -0.28889527025E+03 -0.63316307255E+03  0.11495722370E+04  0.13438274747E+04  0.00000000000E+00 0.  1.
<mgrwt>
<rscale>  0 0.33281475E+04</rscale>
<asrwt>0</asrwt>
<pdfrwt beam="1">  1        4 0.32576778E+00 0.33281475E+04</pdfrwt>
<pdfrwt beam="2">  1       -4 0.20119181E+00 0.33281475E+04</pdfrwt>
<totfact> 0.45211028E-03</totfact>
</mgrwt>
</event>
<event>
 6    1  0.1585031E-006  0.2083473E+04  0.7818608E-02  0.8568559E-01
         -2   -1    0    0    0  501 -0.00000000000E+00  0.00000000000E+00  0.16196746410E+04  0.16196746410E+04  0.00000000000E+00 0.  1.
          2   -1    0    0  501    0  0.00000000000E+00 -0.00000000000E+00 -0.67002040615E+03  0.67002040615E+03  0.00000000000E+00 0. -1.
         23    2    1    2    0    0  0.49995465164E+03 -0.78177255864E+03  0.99122448538E+03  0.13607972741E+04  0.90112449222E+02 0.  0.
         13    1    3    3    0    0  0.20700487507E+03 -0.38162080572E+03  0.41562520089E+03  0.60102393070E+03  0.00000000000E+00 0.  1.
        -13    1    3    3    0    0  0.29294977657E+03 -0.40015175292E+03  0.57559928449E+03  0.75977334335E+03  0.00000000000E+00 0. -1.
         22    1    1    2    0    0 -0.49995465164E+03  0.78177255864E+03 -0.41570250540E+02  0.92889777310E+03  0.00000000000E+00 0. -1.
<mgrwt>
<rscale>  0 0.20834731E+04</rscale>
<asrwt>0</asrwt>
<pdfrwt beam="1">  1        2 0.10308006E+00 0.20834731E+04</pdfrwt>
<pdfrwt beam="2">  1       -2 0.24918071E+00 0.20834731E+04</pdfrwt>
<totfact> 0.25968854E+00</totfact>
</mgrwt>
</event>
<event>
 6    1  0.1585031E-006  0.9873838E+03  0.7818608E-02  0.9322491E-01
         -1   -1    0    0    0  501 -0.00000000000E+00  0.00000000000E+00  0.41976191537E+03  0.41976191537E+03  0.00000000000E+00 0.  1.
          1   -1    0    0  501    0  0.00000000000E+00 -0.00000000000E+00 -0.58064271554E+03  0.58064271554E+03  0.00000000000E+00 0. -1.
         23    2    1    2    0    0  0.13925232455E+03 -0.38505923046E+03  0.19104362165E+03  0.46048554481E+03  0.88811321043E+02 0.  0.
         11    1    3    3    0    0  0.43595028058E+02 -0.24817745016E+03  0.11679377686E+03  0.27772893179E+03  0.00000000000E+00 0. -1.
        -11    1    3    3    0    0  0.95657296487E+02 -0.13688178031E+03  0.74249844789E+02  0.18275661302E+03  0.00000000000E+00 0.  1.
         22    1    1    2    0    0 -0.13925232455E+03  0.38505923046E+03 -0.35192442183E+03  0.53991908610E+03  0.00000000000E+00 0. -1.
<mgrwt>
<rscale>  0 0.98738381E+03</rscale>
<asrwt>0</asrwt>
<pdfrwt beam="1">  1        1 0.89329649E-01 0.98738381E+03</pdfrwt>
<pdfrwt beam="2">  1       -1 0.64578756E-01 0.98738381E+03</pdfrwt>
<totfact> 0.87622263E+01</totfact>
</mgrwt>
</event>
<event>
 6    1  0.1585031E-006  0.1622896E+04  0.7818608E-02  0.8806604E-01
         -2   -1    0    0    0  501 -0.00000000000E+00  0.00000000000E+00  0.64502894279E+03  0.64502894279E+03  0.00000000000E+00 0.  1.
          2   -1    0    0  501    0  0.00000000000E+00 -0.00000000000E+00 -0.10208040589E+04  0.10208040589E+04  0.00000000000E+00 0. -1.
         23    2    1    2    0    0  0.24630820932E+03 -0.51436956093E+02 -0.97807854731E+03  0.10130827296E+04  0.79909184850E+02 0.  0.
         13    1    3    3    0    0  0.13539578990E+03 -0.68365875043E+02 -0.54631764596E+03  0.56698225993E+03  0.00000000000E+00 0. -1.
        -13    1    3    3    0    0  0.11091241942E+03  0.16928918950E+02 -0.43176090136E+03  0.44610046965E+03  0.00000000000E+00 0.  1.
         22    1    1    2    0    0 -0.24630820932E+03  0.51436956093E+02  0.60230343123E+03  0.65275027208E+03  0.00000000000E+00 0.  1.
<mgrwt>
<rscale>  0 0.16228964E+04</rscale>
<asrwt>0</asrwt>
<pdfrwt beam="1">  1        2 0.15704678E+00 0.16228964E+04</pdfrwt>
<pdfrwt beam="2">  1       -2 0.99235223E-01 0.16228964E+04</pdfrwt>
<totfact> 0.19672610E+01</totfact>
</mgrwt>
</event>
<event>
 6    1  0.1585031E-006  0.2646494E+04  0.7818608E-02  0.8352578E-01
         -1   -1    0    0    0  501 -0.00000000000E+00  0.00000000000E+00  0.79223172391E+03  0.79223172391E+03  0.00000000000E+00 0.  1.
          1   -1    0    0  501    0  0.00000000000E+00 -0.00000000000E+00 -0.22101894529E+04  0.22101894529E+04  0.00000000000E+00 0. -1.
         23    2    1    2    0    0 -0.60443736098E+03 -0.47969855684E+03  0.50735758451E+03  0.92822391396E+03  0.93448847540E+02 0.  0.
         13    1    3    3    0    0 -0.48855043795E+03 -0.33826918114E+03  0.37848127615E+03  0.70452512072E+03  0.00000000000E+00 0. -1.
        -13    1    3    3    0    0 -0.11588692303E+03 -0.14142937571E+03  0.12887630835E+03  0.22369879324E+03  0.00000000000E+00 0.  1.
         22    1    1    2    0    0  0.60443736098E+03  0.47969855684E+03 -0.19253153135E+04  0.20741972628E+04  0.00000000000E+00 0. -1.
<mgrwt>
<rscale>  0 0.26464937E+04</rscale>
<asrwt>0</asrwt>
<pdfrwt beam="1">  1        1 0.34002914E+00 0.26464937E+04</pdfrwt>
<pdfrwt beam="2">  1       -1 0.12188181E+00 0.26464937E+04</pdfrwt>
<totfact> 0.11202211E+00</totfact>
</mgrwt>
</event>
<event>
 6    1  0.1585031E-006  0.9723549E+03  0.7818608E-02  0.9339396E-01
         -2   -1    0    0    0  501 -0.00000000000E+00  0.00000000000E+00  0.20724651104E+03  0.20724651104E+03  0.00000000000E+00 0.  1.
          2   -1    0    0  501    0  0.00000000000E+00 -0.00000000000E+00 -0.11405186905E+04  0.11405186905E+04  0.00000000000E+00 0. -1.
         23    2    1    2    0    0 -0.10394996217E+03  0.13540370482E+02 -0.11225009285E+04  0.11314403170E+04  0.95707471902E+02 0.  0.
         13    1    3    3    0    0 -0.32763100112E+02  0.51673553596E+02 -0.48846932564E+03  0.49228635870E+03  0.00000000000E+00 0. -1.
        -13    1    3    3    0    0 -0.71186862060E+02 -0.38133183114E+02 -0.63403160281E+03  0.63915395825E+03  0.00000000000E+00 0.  1.
         22    1    1    2    0    0  0.10394996217E+03 -0.13540370482E+02  0.18922874897E+03  0.21632488461E+03  0.00000000000E+00 0.  1.
<mgrwt>
<rscale>  0 0.97235491E+03</rscale>
<asrwt>0</asrwt>
<pdfrwt beam="1">  1        2 0.17546442E+00 0.97235491E+03</pdfrwt>
<pdfrwt beam="2">  1       -2 0.31884078E-01 0.97235491E+03</pdfrwt>
<totfact> 0.18784690E+02</totfact>
</mgrwt>
</event>
<event>
 6    1  0.1585031E-006  0.4246510E+04  0.7818608E-02  0.7956584E-01
         -3   -1    0    0    0  501 -0.00000000000E+00  0.00000000000E+00  0.30846756980E+04  0.30846756980E+04  0.00000000000E+00 0.  1.
          3   -1    0    0  501    0  0.00000000000E+00 -0.00000000000E+00 -0.14614865694E+04  0.14614865694E+04  0.00000000000E+00 0. -1.
         23    2    1    2    0    0  0.21158548051E+04 -0.74771863751E+02  0.65617297285E+03  0.22185985984E+04  0.95835185463E+02 0.  0.
         13    1    3    3    0    0  0.60606155865E+03 -0.22916985606E+02  0.14291561956E+03  0.62310566955E+03  0.00000000000E+00 0.  1.
        -13    1    3    3    0    0  0.15097932464E+04 -0.51854878145E+02  0.51325735329E+03  0.15954929289E+04  0.00000000000E+00 0. -1.
         22    1    1    2    0    0 -0.21158548051E+04  0.74771863751E+02  0.96701615578E+03  0.23275636690E+04  0.00000000000E+00 0.  1.
<mgrwt>
<rscale>  0 0.42465101E+04</rscale>
<asrwt>0</asrwt>
<pdfrwt beam="1">  1        3 0.22484409E+00 0.42465101E+04</pdfrwt>
<pdfrwt beam="2">  1       -3 0.47456549E+00 0.42465101E+04</pdfrwt>
<totfact> 0.85612331E-04</totfact>
</mgrwt>
</event>
<event>
 6    1  0.1585031E-006  0.1940884E+04  0.7818608E-02  0.8634769E-01
         -2   -1    0    0    0  501 -0.00000000000E+00  0.00000000000E+00  0.33801128390E+03  0.33801128390E+03  0.00000000000E+00 0.  1.
          2   -1    0    0  501    0  0.00000000000E+00 -0.00000000000E+00 -0.27861736567E+04  0.27861736567E+04  0.00000000000E+00 0. -1.
         23    2    1    2    0    0 -0.85822496940E+03 -0.40443983589E+01 -0.19486226221E+04  0.21311560297E+04  0.90163432118E+02 0.  0.
         11    1    3    3    0    0 -0.67427616696E+03  0.31252626351E+02 -0.14903307908E+04  0.16360656900E+04  0.00000000000E+00 0. -1.
        -11    1    3    3    0    0 -0.18394880245E+03 -0.35297024710E+02 -0.45829183129E+03  0.49509033974E+03  0.00000000000E+00 0.  1.
         22    1    1    2    0    0  0.85822496940E+03  0.40443983589E+01 -0.49953975069E+03  0.99302891085E+03  0.00000000000E+00 0.  1.
<mgrwt>
<rscale>  0 0.19408845E+04</rscale>
<asrwt>0</asrwt>
<pdfrwt beam="1">  1        2 0.42864211E+00 0.19408845E+04</pdfrwt>
<pdfrwt beam="2">  1       -2 0.52001735E-01 0.19408845E+04</pdfrwt>
<totfact> 0.76968077E+00</totfact>
</mgrwt>
</event>
<event>
 6    1  0.1585031E-006  0.2255211E+04  0.7818608E-02  0.8495793E-01
          2   -1    0    0  501    0  0.00000000000E+00  0.00000000000E+00  0.66819338791E+03  0.66819338791E+03  0.00000000000E+00 0. -1.
         -2   -1    0    0    0  501 -0.00000000000E+00 -0.00000000000E+00 -0.19028837143E+04  0.19028837143E+04  0.00000000000E+00 0.  1.
         23    2    1    2    0    0 -0.16369092200E+03  0.11117270378E+04 -0.69325698882E+03  0.13237271980E+04  0.94428372240E+02 0.  0.
         11    1    3    3    0    0 -0.90460694356E+02  0.35336809572E+03 -0.25106748533E+03  0.44281715243E+03  0.00000000000E+00 0.  1.
        -11    1    3    3    0    0 -0.73230227641E+02  0.75835894211E+03 -0.44218950349E+03  0.88091004553E+03  0.00000000000E+00 0. -1.
         22    1    1    2    0    0  0.16369092200E+03 -0.11117270378E+04 -0.54143333759E+03  0.12473499043E+04  0.00000000000E+00 0. -1.
<mgrwt>
<rscale>  0 0.22552111E+04</rscale>
<asrwt>0</asrwt>
<pdfrwt beam="1">  1        2 0.10279899E+00 0.22552111E+04</pdfrwt>
<pdfrwt beam="2">  1       -2 0.29275133E+00 0.22552111E+04</pdfrwt>
<totfact> 0.13919719E+00</totfact>
</mgrwt>
</event>
<event>
 6    1  0.1585031E-006  0.1983677E+04  0.7818608E-02  0.8614290E-01
         -2   -1    0    0    0  501 -0.00000000000E+00  0.00000000000E+00  0.90856506661E+03  0.90856506661E+03  0.00000000000E+00 0.  1.
          2   -1    0    0  501    0  0.00000000000E+00 -0.00000000000E+00 -0.10827444309E+04  0.10827444309E+04  0.00000000000E+00 0. -1.
         23    2    1    2    0    0  0.12393062018E+03 -0.18595459747E+03 -0.10548892147E+04  0.10826909022E+04  0.97418804497E+02 0.  0.
         11    1    3    3    0    0  0.10095203399E+03 -0.17429736715E+03 -0.74552117720E+03  0.77225171480E+03  0.00000000000E+00 0. -1.
        -11    1    3    3    0    0  0.22978586188E+02 -0.11657230319E+02 -0.30936803755E+03  0.31043918744E+03  0.00000000000E+00 0.  1.
         22    1    1    2    0    0 -0.12393062018E+03  0.18595459747E+03  0.88070985047E+03  0.90861859526E+03  0.00000000000E+00 0.  1.
<mgrwt>
<rscale>  0 0.19836772E+04</rscale>
<asrwt>0</asrwt>
<pdfrwt beam="1">  1        2 0.16657607E+00 0.19836772E+04</pdfrwt>
<pdfrwt beam="2">  1       -2 0.13977924E+00 0.19836772E+04</pdfrwt>
<totfact> 0.74916441E+00</totfact>
</mgrwt>
</event>
<event>
 6    1  0.1585031E-006  0.1335337E+04  0.7818608E-02  0.9002003E-01
         -1   -1    0    0    0  501 -0.00000000000E+00  0.00000000000E+00  0.37826848827E+03  0.37826848827E+03  0.00000000000E+00 0.  1.
          1   -1    0    0  501    0  0.00000000000E+00 -0.00000000000E+00 -0.11784776357E+04  0.11784776357E+04  0.00000000000E+00 0. -1.
         23    2    1    2    0    0 -0.41296365864E+03  0.51699756703E+03 -0.32902717952E+03  0.74444204630E+03  0.90053360644E+02 0.  0.
         13    1    3    3    0    0 -0.32362411117E+02  0.17445482777E+02 -0.35884533208E+02  0.51374801666E+02  0.00000000000E+00 0.  1.
        -13    1    3    3    0    0 -0.38060124752E+03  0.49955208426E+03 -0.29314264631E+03  0.69306724464E+03  0.00000000000E+00 0. -1.
         22    1    1    2    0    0  0.41296365864E+03 -0.51699756703E+03 -0.47118196788E+03  0.81230407763E+03  0.00000000000E+00 0. -1.
<mgrwt>
<rscale>  0 0.13353366E+04</rscale>
<asrwt>0</asrwt>
<pdfrwt beam="1">  1        1 0.18130425E+00 0.13353366E+04</pdfrwt>
<pdfrwt beam="2">  1       -1 0.58195153E-01 0.13353366E+04</pdfrwt>
<totfact> 0.32485598E+01</totfact>
</mgrwt>
</event>
<event>
 6    1  0.1585031E-006  0.1468764E+04  0.7818608E-02  0.8905494E-01
         -1   -1    0    0    0  501 -0.00000000000E+00  0.00000000000E+00  0.46133769674E+03  0.46133769674E+03  0.00000000000E+00 0.  1.
          1   -1    0    0  501    0  0.00000000000E+00 -0.00000000000E+00 -0.11690282858E+04  0.11690282858E+04  0.00000000000E+00 0. -1.
         23    2    1    2    0    0  0.26908913949E+03 -0.26661164429E+02  0.39924765451E+03  0.49087835305E+03  0.91886262242E+02 0.  0.
         11    1    3    3    0    0  0.13388796063E+03 -0.51050341417E+02  0.15833677733E+03  0.21354778954E+03  0.00000000000E+00 0. -1.
        -11    1    3    3    0    0  0.13520117885E+03  0.24389176988E+02  0.24091087718E+03  0.27733056352E+03  0.00000000000E+00 0.  1.
         22    1    1    2    0    0 -0.26908913949E+03  0.26661164429E+02 -0.11069382436E+04  0.11394876295E+04  0.00000000000E+00 0. -1.
<mgrwt>
<rscale>  0 0.14687639E+04</rscale>
<asrwt>0</asrwt>
<pdfrwt beam="1">  1        1 0.17985050E+00 0.14687639E+04</pdfrwt>
<pdfrwt beam="2">  1       -1 0.70975031E-01 0.14687639E+04</pdfrwt>
<totfact> 0.21900211E+01</totfact>
</mgrwt>
</event>
<event>
 6    1  0.1585031E-006  0.1524446E+04  0.7818608E-02  0.8868358E-01
          2   -1    0    0  501    0  0.00000000000E+00  0.00000000000E+00  0.81874463004E+03  0.81874463004E+03  0.00000000000E+00 0.  1.
         -2   -1    0    0    0  501 -0.00000000000E+00 -0.00000000000E+00 -0.70960302510E+03  0.70960302510E+03  0.00000000000E+00 0. -1.
         23    2    1    2    0    0 -0.13625281427E+03  0.11594751546E+03 -0.68533074062E+03  0.71397982448E+03  0.89890544546E+02 0.  0.
         11    1    3    3    0    0 -0.40607502736E+02  0.52832162789E+02 -0.12102669576E+03  0.13815812604E+03  0.00000000000E+00 0.  1.
        -11    1    3    3    0    0 -0.95645311530E+02  0.63115352672E+02 -0.56430404486E+03  0.57582169845E+03  0.00000000000E+00 0. -1.
         22    1    1    2    0    0  0.13625281427E+03 -0.11594751546E+03  0.79447234556E+03  0.81436783065E+03  0.00000000000E+00 0.  1.
<mgrwt>
<rscale>  0 0.15244457E+04</rscale>
<asrwt>0</asrwt>
<pdfrwt beam="1">  1        2 0.12596071E+00 0.15244457E+04</pdfrwt>
<pdfrwt beam="2">  1       -2 0.10916970E+00 0.15244457E+04</pdfrwt>
<totfact> 0.21554090E+01</totfact>
</mgrwt>
</event>
<event>
 6    1  0.1585031E-006  0.1386890E+04  0.7818608E-02  0.8963363E-01
          2   -1    0    0  501    0  0.00000000000E+00  0.00000000000E+00  0.56256171288E+03  0.56256171288E+03  0.00000000000E+00 0.  1.
         -2   -1    0    0    0  501 -0.00000000000E+00 -0.00000000000E+00 -0.85477879569E+03  0.85477879569E+03  0.00000000000E+00 0. -1.
         23    2    1    2    0    0 -0.30889253794E+03  0.34600605689E+03  0.37555337103E+03  0.60428935987E+03  0.94818271209E+02 0.  0.
         11    1    3    3    0    0 -0.20950609345E+03  0.19494645679E+03  0.27734502654E+03  0.39851874228E+03  0.00000000000E+00 0. -1.
        -11    1    3    3    0    0 -0.99386444489E+02  0.15105960011E+03  0.98208344492E+02  0.20577061758E+03  0.00000000000E+00 0.  1.
         22    1    1    2    0    0  0.30889253794E+03 -0.34600605689E+03 -0.66777045384E+03  0.81305114871E+03  0.00000000000E+00 0. -1.
<mgrwt>
<rscale>  0 0.13868898E+04</rscale>
<asrwt>0</asrwt>
<pdfrwt beam="1">  1        2 0.86547956E-01 0.13868898E+04</pdfrwt>
<pdfrwt beam="2">  1       -2 0.13150443E+00 0.13868898E+04</pdfrwt>
<totfact> 0.22011720E+01</totfact>
</mgrwt>
</event>
<event>
 6    1  0.1585031E-006  0.1467735E+04  0.7818608E-02  0.8906197E-01
         -1   -1    0    0    0  501 -0.00000000000E+00  0.00000000000E+00  0.39568667852E+03  0.39568667852E+03  0.00000000000E+00 0.  1.
          1   -1    0    0  501    0  0.00000000000E+00 -0.00000000000E+00 -0.13610803294E+04  0.13610803294E+04  0.00000000000E+00 0. -1.
         23    2    1    2    0    0  0.54790001471E+03 -0.46763556699E+03 -0.33536753968E+03  0.79978720124E+03  0.91163210520E+02 0.  0.
         13    1    3    3    0    0  0.44860756607E+03 -0.42293179295E+03 -0.27275321937E+03  0.67417680804E+03  0.00000000000E+00 0.  1.
        -13    1    3    3    0    0  0.99292448644E+02 -0.44703774045E+02 -0.62614320311E+02  0.12561039320E+03  0.00000000000E+00 0. -1.
         22    1    1    2    0    0 -0.54790001471E+03  0.46763556699E+03 -0.63002611123E+03  0.95697980672E+03  0.00000000000E+00 0.  1.
<mgrwt>
<rscale>  0 0.14677348E+04</rscale>
<asrwt>0</asrwt>
<pdfrwt beam="1">  1        1 0.20939697E+00 0.14677348E+04</pdfrwt>
<pdfrwt beam="2">  1       -1 0.60874875E-01 0.14677348E+04</pdfrwt>
<totfact> 0.21721560E+01</totfact>
</mgrwt>
</event>
<event>
 6    1  0.1585031E-006  0.1131327E+04  0.7818608E-02  0.9175185E-01
         -2   -1    0    0    0  501 -0.00000000000E+00  0.00000000000E+00  0.45221152591E+03  0.45221152591E+03  0.00000000000E+00 0.  1.
          2   -1    0    0  501    0  0.00000000000E+00 -0.00000000000E+00 -0.70757854353E+03  0.70757854353E+03  0.00000000000E+00 0. -1.
         23    2    1    2    0    0  0.46587150238E+03 -0.28842736175E+03 -0.25984782523E+03  0.61184237360E+03  0.81262525989E+02 0.  0.
         13    1    3    3    0    0  0.93929914610E+02 -0.58125664728E+02 -0.17828407933E+02  0.11188956112E+03  0.00000000000E+00 0. -1.
        -13    1    3    3    0    0  0.37194158777E+03 -0.23030169702E+03 -0.24201941729E+03  0.49995281248E+03  0.00000000000E+00 0.  1.
         22    1    1    2    0    0 -0.46587150238E+03  0.28842736175E+03  0.44808076030E+01  0.54794769583E+03  0.00000000000E+00 0.  1.
<mgrwt>
<rscale>  0 0.11313270E+04</rscale>
<asrwt>0</asrwt>
<pdfrwt beam="1">  1        2 0.10885824E+00 0.11313270E+04</pdfrwt>
<pdfrwt beam="2">  1       -2 0.69571004E-01 0.11313270E+04</pdfrwt>
<totfact> 0.75503353E+01</totfact>
</mgrwt>
</event>
<event>
 6    1  0.1585031E-006  0.4545532E+04  0.7818608E-02  0.7902714E-01
         -1   -1    0    0    0  501 -0.00000000000E+00  0.00000000000E+00  0.19425256992E+04  0.19425256992E+04  0.00000000000E+00 0.  1.
          1   -1    0    0  501    0  0.00000000000E+00 -0.00000000000E+00 -0.26591485856E+04  0.26591485856E+04  0.00000000000E+00 0. -1.
         23    2    1    2    0    0 -0.92027431437E+03  0.12393628316E+04 -0.20457964210E+04  0.25646108770E+04  0.94978482428E+02 0.  0.
         13    1    3    3    0    0 -0.90609742163E+02  0.11295020427E+03 -0.14971431286E+03  0.20828405962E+03  0.00000000000E+00 0. -1.
        -13    1    3    3    0    0 -0.82966457221E+03  0.11264126273E+04 -0.18960821082E+04  0.23563268174E+04  0.00000000000E+00 0.  1.
         22    1    1    2    0    0  0.92027431437E+03 -0.12393628316E+04  0.13291735347E+04  0.20370634078E+04  0.00000000000E+00 0.  1.
<mgrwt>
<rscale>  0 0.45455316E+04</rscale>
<asrwt>0</asrwt>
<pdfrwt beam="1">  1        1 0.40909978E+00 0.45455316E+04</pdfrwt>
<pdfrwt beam="2">  1       -1 0.29885011E+00 0.45455316E+04</pdfrwt>
<totfact> 0.26378103E-02</totfact>
</mgrwt>
</event>
<event>
 6    1  0.1585031E-006  0.4269564E+04  0.7818608E-02  0.7952270E-01
          2   -1    0    0  501    0  0.00000000000E+00  0.00000000000E+00  0.15166030821E+04  0.15166030821E+04  0.00000000000E+00 0. -1.
         -2   -1    0    0    0  501 -0.00000000000E+00 -0.00000000000E+00 -0.30049359602E+04  0.30049359602E+04  0.00000000000E+00 0.  1.
         23    2    1    2    0    0  0.88592294959E+03 -0.11687290631E+03  0.13075394267E+04  0.15863353538E+04  0.91004139265E+02 0.  0.
         13    1    3    3    0    0  0.78828371037E+03 -0.97501975535E+02  0.12066028563E+04  0.14445720114E+04  0.00000000000E+00 0. -1.
        -13    1    3    3    0    0  0.97639239224E+02 -0.19370930780E+02  0.10093657042E+03  0.14176334238E+03  0.00000000000E+00 0.  1.
         22    1    1    2    0    0 -0.88592294959E+03  0.11687290631E+03 -0.27958723048E+04  0.29352036886E+04  0.00000000000E+00 0.  1.
<mgrwt>
<rscale>  0 0.42695644E+04</rscale>
<asrwt>0</asrwt>
<pdfrwt beam="1">  1        2 0.23332355E+00 0.42695644E+04</pdfrwt>
<pdfrwt beam="2">  1       -2 0.46229784E+00 0.42695644E+04</pdfrwt>
<totfact> 0.27645057E-02</totfact>
</mgrwt>
</event>
<event>
 6    1  0.1585031E-006  0.2754632E+04  0.7818608E-02  0.8317493E-01
         -2   -1    0    0    0  501 -0.00000000000E+00  0.00000000000E+00  0.67829409548E+03  0.67829409548E+03  0.00000000000E+00 0.  1.
          2   -1    0    0  501    0  0.00000000000E+00 -0.00000000000E+00 -0.27967206390E+04  0.27967206390E+04  0.00000000000E+00 0. -1.
         23    2    1    2    0    0  0.20265258103E+03  0.11921867576E+04 -0.23257509866E+03  0.12347439906E+04  0.90134412468E+02 0.  0.
         13    1    3    3    0    0  0.44812880939E+02  0.44374605891E+03 -0.11761175382E+03  0.46124969781E+03  0.00000000000E+00 0. -1.
        -13    1    3    3    0    0  0.15783970009E+03  0.74844069870E+03 -0.11496334485E+03  0.77349429284E+03  0.00000000000E+00 0.  1.
         22    1    1    2    0    0 -0.20265258103E+03 -0.11921867576E+04 -0.18858514449E+04  0.22402707438E+04  0.00000000000E+00 0. -1.
<mgrwt>
<rscale>  0 0.27546318E+04</rscale>
<asrwt>0</asrwt>
<pdfrwt beam="1">  1        2 0.43026470E+00 0.27546318E+04</pdfrwt>
<pdfrwt beam="2">  1       -2 0.10435294E+00 0.27546318E+04</pdfrwt>
<totfact> 0.15131744E+00</totfact>
</mgrwt>
</event>
<event>
 6    1  0.1585031E-006  0.1855410E+04  0.7818608E-02  0.8677375E-01
          2   -1    0    0  501    0  0.00000000000E+00  0.00000000000E+00  0.10200079419E+04  0.10200079419E+04  0.00000000000E+00 0. -1.
         -2   -1    0    0    0  501 -0.00000000000E+00 -0.00000000000E+00 -0.84375511136E+03  0.84375511136E+03  0.00000000000E+00 0.  1.
         23    2    1    2    0    0 -0.22154454450E+03  0.76325795716E+03 -0.38571062434E+03  0.89039384326E+03  0.11128259529E+03 0.  0.
         11    1    3    3    0    0 -0.13635930642E+03  0.43263517242E+03 -0.15952775597E+03  0.48084941280E+03  0.00000000000E+00 0.  1.
        -11    1    3    3    0    0 -0.85185238077E+02  0.33062278474E+03 -0.22618286837E+03  0.40954443046E+03  0.00000000000E+00 0. -1.
         22    1    1    2    0    0  0.22154454450E+03 -0.76325795716E+03  0.56196345491E+03  0.97336921002E+03  0.00000000000E+00 0. -1.
<mgrwt>
<rscale>  0 0.18554104E+04</rscale>
<asrwt>0</asrwt>
<pdfrwt beam="1">  1        2 0.15692430E+00 0.18554104E+04</pdfrwt>
<pdfrwt beam="2">  1       -2 0.12980848E+00 0.18554104E+04</pdfrwt>
<totfact> 0.10020498E+01</totfact>
</mgrwt>
</event>
<event>
 6    1  0.1585031E-006  0.1871522E+04  0.7818608E-02  0.8669163E-01
         -1   -1    0    0    0  501 -0.00000000000E+00  0.00000000000E+00  0.16490320750E+04  0.16490320750E+04  0.00000000000E+00 0.  1.
          1   -1    0    0  501    0  0.00000000000E+00 -0.00000000000E+00 -0.53100765626E+03  0.53100765626E+03  0.00000000000E+00 0. -1.
         23    2    1    2    0    0  0.12386269049E+03 -0.40733972273E+03 -0.40738306792E+03  0.59633028310E+03  0.91549039879E+02 0.  0.
         11    1    3    3    0    0  0.13417101770E+03 -0.31552245305E+03 -0.31289228892E+03  0.46417439054E+03  0.00000000000E+00 0.  1.
        -11    1    3    3    0    0 -0.10308327209E+02 -0.91817269681E+02 -0.94490779003E+02  0.13215589256E+03  0.00000000000E+00 0. -1.
         22    1    1    2    0    0 -0.12386269049E+03  0.40733972273E+03  0.15254074867E+04  0.15837094482E+04  0.00000000000E+00 0.  1.
<mgrwt>
<rscale>  0 0.18715220E+04</rscale>
<asrwt>0</asrwt>
<pdfrwt beam="1">  1        1 0.81693486E-01 0.18715220E+04</pdfrwt>
<pdfrwt beam="2">  1       -1 0.25369724E+00 0.18715220E+04</pdfrwt>
<totfact> 0.25213333E+00</totfact>
</mgrwt>
</event>
<event>
 6    1  0.1585031E-006  0.1763848E+04  0.7818608E-02  0.8725765E-01
         -2   -1    0    0    0  501 -0.00000000000E+00  0.00000000000E+00  0.68537178908E+03  0.68537178908E+03  0.00000000000E+00 0.  1.
          2   -1    0    0  501    0  0.00000000000E+00 -0.00000000000E+00 -0.11348435139E+04  0.11348435139E+04  0.00000000000E+00 0. -1.
         23    2    1    2    0    0 -0.71413009546E+03 -0.12261227942E+03  0.28917571247E+03  0.78550974054E+03  0.91582724904E+02 0.  0.
         13    1    3    3    0    0 -0.22965448698E+03 -0.53953317287E+02  0.51227954376E+02  0.24140515145E+03  0.00000000000E+00 0.  1.
        -13    1    3    3    0    0 -0.48447560848E+03 -0.68658962128E+02  0.23794775809E+03  0.54410458909E+03  0.00000000000E+00 0. -1.
         22    1    1    2    0    0  0.71413009546E+03  0.12261227942E+03 -0.73864743724E+03  0.10347055624E+04  0.00000000000E+00 0. -1.
<mgrwt>
<rscale>  0 0.17638478E+04</rscale>
<asrwt>0</asrwt>
<pdfrwt beam="1">  1        2 0.17459131E+00 0.17638478E+04</pdfrwt>
<pdfrwt beam="2">  1       -2 0.10544181E+00 0.17638478E+04</pdfrwt>
<totfact> 0.14290857E+01</totfact>
</mgrwt>
</event>
<event>
 6    1  0.1585031E-006  0.1232869E+04  0.7818608E-02  0.9084563E-01
         -1   -1    0    0    0  501 -0.00000000000E+00  0.00000000000E+00  0.31848040064E+03  0.31848040064E+03  0.00000000000E+00 0.  1.
          1   -1    0    0  501    0  0.00000000000E+00 -0.00000000000E+00 -0.11931384427E+04  0.11931384427E+04  0.00000000000E+00 0. -1.
         23    2    1    2    0    0 -0.28263018308E+03  0.26481493859E+03 -0.10198544292E+04  0.10979900691E+04  0.12438795337E+03 0.  0.
         11    1    3    3    0    0 -0.12873082329E+03  0.12293701487E+03 -0.63986093617E+03  0.66415898106E+03  0.00000000000E+00 0.  1.
        -11    1    3    3    0    0 -0.15389935979E+03  0.14187792372E+03 -0.37999349304E+03  0.43383108803E+03  0.00000000000E+00 0. -1.
         22    1    1    2    0    0  0.28263018308E+03 -0.26481493859E+03  0.14519638711E+03  0.41362877429E+03  0.00000000000E+00 0.  1.
<mgrwt>
<rscale>  0 0.12328685E+04</rscale>
<asrwt>0</asrwt>
<pdfrwt beam="1">  1        1 0.18355976E+00 0.12328685E+04</pdfrwt>
<pdfrwt beam="2">  1       -1 0.48996984E-01 0.12328685E+04</pdfrwt>
<totfact> 0.44515130E+01</totfact>
</mgrwt>
</event>
<event>
 6    1  0.1585031E-006  0.8524747E+03  0.7818608E-02  0.9487021E-01
         -1   -1    0    0    0  501 -0.00000000000E+00  0.00000000000E+00  0.18824581511E+03  0.18824581511E+03  0.00000000000E+00 0.  1.
          1   -1    0    0  501    0  0.00000000000E+00 -0.00000000000E+00 -0.96511202292E+03  0.96511202292E+03  0.00000000000E+00 0. -1.
         23    2    1    2    0    0  0.11954503513E+03  0.59880252577E+02 -0.93342675291E+03  0.94747470527E+03  0.92445410897E+02 0.  0.
         11    1    3    3    0    0  0.51969518486E+02 -0.30103020785E+00 -0.59143788185E+03  0.59371684291E+03  0.00000000000E+00 0.  1.
        -11    1    3    3    0    0  0.67575516642E+02  0.60181282785E+02 -0.34198887106E+03  0.35375786235E+03  0.00000000000E+00 0. -1.
         22    1    1    2    0    0 -0.11954503513E+03 -0.59880252577E+02  0.15656054511E+03  0.20588313276E+03  0.00000000000E+00 0.  1.
<mgrwt>
<rscale>  0 0.85247475E+03</rscale>
<asrwt>0</asrwt>
<pdfrwt beam="1">  1        1 0.14847877E+00 0.85247475E+03</pdfrwt>
<pdfrwt beam="2">  1       -1 0.28960896E-01 0.85247475E+03</pdfrwt>
<totfact> 0.17639231E+02</totfact>
</mgrwt>
</event>
<event>
 6    1  0.1585031E-006  0.2569753E+04  0.7818608E-02  0.8378549E-01
          2   -1    0    0  501    0  0.00000000000E+00  0.00000000000E+00  0.13305418607E+04  0.13305418607E+04  0.00000000000E+00 0. -1.
         -2   -1    0    0    0  501 -0.00000000000E+00 -0.00000000000E+00 -0.12407784470E+04  0.12407784470E+04  0.00000000000E+00 0.  1.
         23    2    1    2    0    0  0.40423355903E+03  0.89764103778E+03 -0.77849900497E+03  0.12586726662E+04  0.95036713912E+02 0.  0.
         13    1    3    3    0    0  0.37140381360E+03  0.74415830886E+03 -0.66763332789E+03  0.10665114354E+04  0.00000000000E+00 0. -1.
        -13    1    3    3    0    0  0.32829745429E+02  0.15348272892E+03 -0.11086567708E+03  0.19216123078E+03  0.00000000000E+00 0.  1.
         22    1    1    2    0    0 -0.40423355903E+03 -0.89764103778E+03  0.86826241873E+03  0.13126476415E+04  0.00000000000E+00 0. -1.
<mgrwt>
<rscale>  0 0.25697530E+04</rscale>
<asrwt>0</asrwt>
<pdfrwt beam="1">  1        2 0.20469875E+00 0.25697530E+04</pdfrwt>
<pdfrwt beam="2">  1       -2 0.19088899E+00 0.25697530E+04</pdfrwt>
<totfact> 0.21515061E+00</totfact>
</mgrwt>
</event>
<event>
 6    1  0.1585031E-006  0.1604249E+04  0.7818608E-02  0.8817942E-01
         -2   -1    0    0    0  501 -0.00000000000E+00  0.00000000000E+00  0.98864733225E+03  0.98864733225E+03  0.00000000000E+00 0.  1.
          2   -1    0    0  501    0  0.00000000000E+00 -0.00000000000E+00 -0.65079232049E+03  0.65079232049E+03  0.00000000000E+00 0. -1.
         23    2    1    2    0    0 -0.54127835304E+03 -0.49199177994E+03  0.49928885701E+03  0.89037419940E+03  0.91862316657E+02 0.  0.
         11    1    3    3    0    0 -0.37362693045E+03 -0.35421825555E+03  0.30074229458E+03  0.59624959830E+03  0.00000000000E+00 0. -1.
        -11    1    3    3    0    0 -0.16765142259E+03 -0.13777352438E+03  0.19854656242E+03  0.29412460109E+03  0.00000000000E+00 0.  1.
         22    1    1    2    0    0  0.54127835304E+03  0.49199177994E+03 -0.16143384525E+03  0.74906545334E+03  0.00000000000E+00 0. -1.
<mgrwt>
<rscale>  0 0.16042495E+04</rscale>
<asrwt>0</asrwt>
<pdfrwt beam="1">  1        2 0.10012189E+00 0.16042495E+04</pdfrwt>
<pdfrwt beam="2">  1       -2 0.15209959E+00 0.16042495E+04</pdfrwt>
<totfact> 0.12418383E+01</totfact>
</mgrwt>
</event>
<event>
 6    1  0.1585031E-006  0.4860719E+04  0.7818608E-02  0.7850359E-01
         -2   -1    0    0    0  501 -0.00000000000E+00  0.00000000000E+00  0.20961118204E+04  0.20961118204E+04  0.00000000000E+00 0.  1.
          2   -1    0    0  501    0  0.00000000000E+00 -0.00000000000E+00 -0.28179060675E+04  0.28179060675E+04  0.00000000000E+00 0. -1.
         23    2    1    2    0    0 -0.42518991132E+01  0.19337052468E+04  0.11260875743E+04  0.22393400968E+04  0.85655028698E+02 0.  0.
         11    1    3    3    0    0 -0.25246479688E+02  0.15383126007E+04  0.86423915101E+03  0.17646394398E+04  0.00000000000E+00 0. -1.
        -11    1    3    3    0    0  0.20994580574E+02  0.39539264606E+03  0.26184842331E+03  0.47470065700E+03  0.00000000000E+00 0.  1.
         22    1    1    2    0    0  0.42518991132E+01 -0.19337052468E+04 -0.18478818215E+04  0.26746777911E+04  0.00000000000E+00 0. -1.
<mgrwt>
<rscale>  0 0.48607186E+04</rscale>
<asrwt>0</asrwt>
<pdfrwt beam="1">  1        2 0.43352401E+00 0.48607186E+04</pdfrwt>
<pdfrwt beam="2">  1       -2 0.32247874E+00 0.48607186E+04</pdfrwt>
<totfact> 0.38364053E-02</totfact>
</mgrwt>
</event>
<event>
 6    1  0.1585031E-006  0.3084073E+04  0.7818608E-02  0.8220122E-01
         -2   -1    0    0    0  501 -0.00000000000E+00  0.00000000000E+00  0.22261230738E+04  0.22261230738E+04  0.00000000000E+00 0.  1.
          2   -1    0    0  501    0  0.00000000000E+00 -0.00000000000E+00 -0.10681696367E+04  0.10681696367E+04  0.00000000000E+00 0. -1.
         23    2    1    2    0    0 -0.93753733244E+03 -0.77891275356E+03  0.15860277694E+04  0.20024223760E+04  0.92357777262E+02 0.  0.
         11    1    3    3    0    0 -0.42995734940E+03 -0.40560569820E+03  0.81244675391E+03  0.10047134082E+04  0.00000000000E+00 0. -1.
        -11    1    3    3    0    0 -0.50757998305E+03 -0.37330705536E+03  0.77358101549E+03  0.99770896774E+03  0.00000000000E+00 0.  1.
         22    1    1    2    0    0  0.93753733244E+03  0.77891275356E+03 -0.42807433222E+03  0.12918703345E+04  0.00000000000E+00 0. -1.
<mgrwt>
<rscale>  0 0.30840733E+04</rscale>
<asrwt>0</asrwt>
<pdfrwt beam="1">  1        2 0.16433379E+00 0.30840733E+04</pdfrwt>
<pdfrwt beam="2">  1       -2 0.34248047E+00 0.30840733E+04</pdfrwt>
<totfact> 0.33619639E-01</totfact>
</mgrwt>
</event>
<event>
 6    1  0.1585031E-006  0.1495561E+04  0.7818608E-02  0.8887410E-01
         -1   -1    0    0    0  501 -0.00000000000E+00  0.00000000000E+00  0.42339837792E+03  0.42339837792E+03  0.00000000000E+00 0.  1.
          1   -1    0    0  501    0  0.00000000000E+00 -0.00000000000E+00 -0.13206837539E+04  0.13206837539E+04  0.00000000000E+00 0. -1.
         23    2    1    2    0    0  0.30330961485E+03 -0.33538790559E+03 -0.11406763827E+04  0.12305444488E+04  0.92818429316E+02 0.  0.
         11    1    3    3    0    0  0.12514458888E+03 -0.20595043455E+03 -0.56997807104E+03  0.61883095518E+03  0.00000000000E+00 0. -1.
        -11    1    3    3    0    0  0.17816502596E+03 -0.12943747104E+03 -0.57069831168E+03  0.61171349367E+03  0.00000000000E+00 0.  1.
         22    1    1    2    0    0 -0.30330961485E+03  0.33538790559E+03  0.24339100673E+03  0.51353768297E+03  0.00000000000E+00 0.  1.
<mgrwt>
<rscale>  0 0.14955606E+04</rscale>
<asrwt>0</asrwt>
<pdfrwt beam="1">  1        1 0.20318212E+00 0.14955606E+04</pdfrwt>
<pdfrwt beam="2">  1       -1 0.65138212E-01 0.14955606E+04</pdfrwt>
<totfact> 0.20215510E+01</totfact>
</mgrwt>
</event>
<event>
 6    1  0.1585031E-006  0.7802458E+03  0.7818608E-02  0.9589059E-01
         -2   -1    0    0    0  501 -0.00000000000E+00  0.00000000000E+00  0.82219689872E+02  0.82219689872E+02  0.00000000000E+00 0. -1.
          2   -1    0    0  501    0  0.00000000000E+00 -0.00000000000E+00 -0.18510878542E+04  0.18510878542E+04  0.00000000000E+00 0.  1.
         23    2    1    2    0    0 -0.10446907756E+03  0.36726359704E+03 -0.77637846306E+03  0.86990162675E+03  0.90382434335E+02 0.  0.
         11    1    3    3    0    0 -0.96392152149E+02  0.17373118264E+03 -0.39472710152E+03  0.44190887691E+03  0.00000000000E+00 0.  1.
        -11    1    3    3    0    0 -0.80769254123E+01  0.19353241440E+03 -0.38165136155E+03  0.42799274984E+03  0.00000000000E+00 0. -1.
         22    1    1    2    0    0  0.10446907756E+03 -0.36726359704E+03 -0.99248970124E+03  0.10634059173E+04  0.00000000000E+00 0.  1.
<mgrwt>
<rscale>  0 0.78024578E+03</rscale>
<asrwt>0</asrwt>
<pdfrwt beam="1">  1        2 0.28478272E+00 0.78024578E+03</pdfrwt>
<pdfrwt beam="2">  1       -2 0.12649184E-01 0.78024578E+03</pdfrwt>
<totfact> 0.38367648E+02</totfact>
</mgrwt>
</event>
<event>
 6    1  0.1585031E-006  0.4337694E+04  0.7818608E-02  0.7939685E-01
          3   -1    0    0  501    0  0.00000000000E+00  0.00000000000E+00  0.18575363228E+04  0.18575363228E+04  0.00000000000E+00 0. -1.
         -3   -1    0    0    0  501 -0.00000000000E+00 -0.00000000000E+00 -0.25323316858E+04  0.25323316858E+04  0.00000000000E+00 0.  1.
         23    2    1    2    0    0 -0.34905877180E+03  0.18974822566E+04  0.66299718589E+03  0.20421095364E+04  0.91461193211E+02 0.  0.
         13    1    3    3    0    0 -0.14087285941E+03  0.91298883018E+03  0.35660450569E+03  0.99023256866E+03  0.00000000000E+00 0. -1.
        -13    1    3    3    0    0 -0.20818591238E+03  0.98449342638E+03  0.30639268020E+03  0.10518769677E+04  0.00000000000E+00 0.  1.
         22    1    1    2    0    0  0.34905877180E+03 -0.18974822566E+04 -0.13377925489E+04  0.23477584722E+04  0.00000000000E+00 0.  1.
<mgrwt>
<rscale>  0 0.43376944E+04</rscale>
<asrwt>0</asrwt>
<pdfrwt beam="1">  1        3 0.28577482E+00 0.43376944E+04</pdfrwt>
<pdfrwt beam="2">  1       -3 0.38958949E+00 0.43376944E+04</pdfrwt>
<totfact> 0.11039536E-03</totfact>
</mgrwt>
</event>
<event>
 6    1  0.1585031E-006  0.2383404E+04  0.7818608E-02  0.8445743E-01
         -1   -1    0    0    0  501 -0.00000000000E+00  0.00000000000E+00  0.80364671480E+03  0.80364671480E+03  0.00000000000E+00 0.  1.
          1   -1    0    0  501    0  0.00000000000E+00 -0.00000000000E+00 -0.17671362176E+04  0.17671362176E+04  0.00000000000E+00 0. -1.
         23    2    1    2    0    0  0.74807215281E+03  0.70537532856E+03  0.16367507718E+03  0.10451138037E+04  0.91142919646E+02 0.  0.
         13    1    3    3    0    0  0.37326971389E+03  0.28955990246E+03  0.75416175422E+02  0.47839608688E+03  0.00000000000E+00 0. -1.
        -13    1    3    3    0    0  0.37480243892E+03  0.41581542610E+03  0.88258901762E+02  0.56671771681E+03  0.00000000000E+00 0.  1.
         22    1    1    2    0    0 -0.74807215281E+03 -0.70537532856E+03 -0.11271645800E+04  0.15256691287E+04  0.00000000000E+00 0. -1.
<mgrwt>
<rscale>  0 0.23834036E+04</rscale>
<asrwt>0</asrwt>
<pdfrwt beam="1">  1        1 0.27186711E+00 0.23834036E+04</pdfrwt>
<pdfrwt beam="2">  1       -1 0.12363796E+00 0.23834036E+04</pdfrwt>
<totfact> 0.22134606E+00</totfact>
</mgrwt>
</event>
<event>
 6    1  0.1585031E-006  0.9083339E+03  0.7818608E-02  0.9415223E-01
          2   -1    0    0  501    0  0.00000000000E+00  0.00000000000E+00  0.86058476975E+03  0.86058476975E+03  0.00000000000E+00 0. -1.
         -2   -1    0    0    0  501 -0.00000000000E+00 -0.00000000000E+00 -0.23968310664E+03  0.23968310664E+03  0.00000000000E+00 0.  1.
         23    2    1    2    0    0  0.31028219569E+03 -0.12318189306E+03  0.67871055992E+03  0.76146013107E+03  0.87890200408E+02 0.  0.
         13    1    3    3    0    0  0.22487593393E+03 -0.45741604020E+02  0.46973674952E+03  0.52279450442E+03  0.00000000000E+00 0.  1.
        -13    1    3    3    0    0  0.85406261759E+02 -0.77440289037E+02  0.20897381040E+03  0.23866562665E+03  0.00000000000E+00 0. -1.
         22    1    1    2    0    0 -0.31028219569E+03  0.12318189306E+03 -0.57808896815E+02  0.33880774532E+03  0.00000000000E+00 0.  1.
<mgrwt>
<rscale>  0 0.90833393E+03</rscale>
<asrwt>0</asrwt>
<pdfrwt beam="1">  1        2 0.13239766E+00 0.90833393E+03</pdfrwt>
<pdfrwt beam="2">  1       -2 0.36874325E-01 0.90833393E+03</pdfrwt>
<totfact> 0.21654902E+02</totfact>
</mgrwt>
</event>
<event>
 6    1  0.1585031E-006  0.4630716E+04  0.7818608E-02  0.7888144E-01
         -1   -1    0    0    0  501 -0.00000000000E+00  0.00000000000E+00  0.31630636084E+04  0.31630636084E+04  0.00000000000E+00 0.  1.
          1   -1    0    0  501    0  0.00000000000E+00 -0.00000000000E+00 -0.16948385619E+04  0.16948385619E+04  0.00000000000E+00 0. -1.
         23    2    1    2    0    0 -0.23967643169E+03  0.18685249068E+04  0.21442745966E+04  0.28564344305E+04  0.11168702265E+03 0.  0.
         13    1    3    3    0    0 -0.18315926380E+03  0.10174343101E+04  0.11460342287E+04  0.15434099730E+04  0.00000000000E+00 0.  1.
        -13    1    3    3    0    0 -0.56517167895E+02  0.85109059670E+03  0.99824036794E+03  0.13130244576E+04  0.00000000000E+00 0. -1.
         22    1    1    2    0    0  0.23967643169E+03 -0.18685249068E+04 -0.67604955017E+03  0.20014677398E+04  0.00000000000E+00 0. -1.
<mgrwt>
<rscale>  0 0.46307158E+04</rscale>
<asrwt>0</asrwt>
<pdfrwt beam="1">  1        1 0.26074439E+00 0.46307158E+04</pdfrwt>
<pdfrwt beam="2">  1       -1 0.48662517E+00 0.46307158E+04</pdfrwt>
<totfact> 0.65366156E-03</totfact>
</mgrwt>
</event>
<event>
 6    1  0.1585031E-006  0.2946726E+04  0.7818608E-02  0.8259109E-01
         -1   -1    0    0    0  501 -0.00000000000E+00  0.00000000000E+00  0.16166798559E+04  0.16166798559E+04  0.00000000000E+00 0.  1.
          1   -1    0    0  501    0  0.00000000000E+00 -0.00000000000E+00 -0.13427511488E+04  0.13427511488E+04  0.00000000000E+00 0. -1.
         23    2    1    2    0    0 -0.73196167418E+02  0.13640421048E+04 -0.41365613891E+03  0.14301365716E+04  0.90612745402E+02 0.  0.
         11    1    3    3    0    0 -0.14776795447E+02  0.64054306136E+03 -0.15140212208E+03  0.65835884570E+03  0.00000000000E+00 0.  1.
        -11    1    3    3    0    0 -0.58419371971E+02  0.72349904341E+03 -0.26225401683E+03  0.77177772589E+03  0.00000000000E+00 0. -1.
         22    1    1    2    0    0  0.73196167418E+02 -0.13640421048E+04  0.68758484601E+03  0.15292944331E+04  0.00000000000E+00 0.  1.
<mgrwt>
<rscale>  0 0.29467261E+04</rscale>
<asrwt>0</asrwt>
<pdfrwt beam="1">  1        1 0.20657710E+00 0.29467261E+04</pdfrwt>
<pdfrwt beam="2">  1       -1 0.24871998E+00 0.29467261E+04</pdfrwt>
<totfact> 0.51240988E-01</totfact>
</mgrwt>
</event>
<event>
 6    1  0.1585031E-006  0.6711534E+03  0.7818608E-02  0.9767876E-01
          1   -1    0    0  501    0  0.00000000000E+00  0.00000000000E+00  0.84044603818E+03  0.84044603818E+03  0.00000000000E+00 0. -1.
         -1   -1    0    0    0  501 -0.00000000000E+00 -0.00000000000E+00 -0.13399043864E+03  0.13399043864E+03  0.00000000000E+00 0.  1.
         23    2    1    2    0    0 -0.15488370500E+03 -0.11816909212E+03  0.74542369787E+03  0.77576234893E+03  0.90541903302E+02 0.  0.
         13    1    3    3    0    0 -0.81744115429E+02 -0.10348508954E+03  0.36499281814E+03  0.38808635825E+03  0.00000000000E+00 0.  1.
        -13    1    3    3    0    0 -0.73139589572E+02 -0.14684002584E+02  0.38043087973E+03  0.38767599068E+03  0.00000000000E+00 0. -1.
         22    1    1    2    0    0  0.15488370500E+03  0.11816909212E+03 -0.38968098328E+02  0.19867412790E+03  0.00000000000E+00 0.  1.
<mgrwt>
<rscale>  0 0.67115343E+03</rscale>
<asrwt>0</asrwt>
<pdfrwt beam="1">  1        1 0.12929939E+00 0.67115343E+03</pdfrwt>
<pdfrwt beam="2">  1       -1 0.20613914E-01 0.67115343E+03</pdfrwt>
<totfact> 0.40124462E+02</totfact>
</mgrwt>
</event>
<event>
 6    1  0.1585031E-006  0.2102433E+04  0.7818608E-02  0.8560172E-01
          1   -1    0    0  501    0  0.00000000000E+00  0.00000000000E+00  0.94587963690E+03  0.94587963690E+03  0.00000000000E+00 0. -1.
         -1   -1    0    0    0  501 -0.00000000000E+00 -0.00000000000E+00 -0.11682846228E+04  0.11682846228E+04  0.00000000000E+00 0.  1.
         23    2    1    2    0    0  0.36714231151E+03 -0.96680629602E+03 -0.28932624564E+03  0.10778311348E+04  0.92208392960E+02 0.  0.
         13    1    3    3    0    0  0.90625676403E+02 -0.16683351930E+03 -0.79255107285E+02  0.20573723148E+03  0.00000000000E+00 0. -1.
        -13    1    3    3    0    0  0.27651663510E+03 -0.79997277672E+03 -0.21007113835E+03  0.87209390328E+03  0.00000000000E+00 0.  1.
         22    1    1    2    0    0 -0.36714231151E+03  0.96680629602E+03  0.66921259693E+02  0.10363331250E+04  0.00000000000E+00 0. -1.
<mgrwt>
<rscale>  0 0.21024335E+04</rscale>
<asrwt>0</asrwt>
<pdfrwt beam="1">  1        1 0.14551994E+00 0.21024335E+04</pdfrwt>
<pdfrwt beam="2">  1       -1 0.17973610E+00 0.21024335E+04</pdfrwt>
<totfact> 0.32098406E+00</totfact>
</mgrwt>
</event>
<event>
 6    1  0.1585031E-006  0.1620230E+04  0.7818608E-02  0.8808216E-01
         -1   -1    0    0    0  501 -0.00000000000E+00  0.00000000000E+00  0.25976635691E+03  0.25976635691E+03  0.00000000000E+00 0.  1.
          1   -1    0    0  501    0  0.00000000000E+00 -0.00000000000E+00 -0.25264477307E+04  0.25264477307E+04  0.00000000000E+00 0. -1.
         23    2    1    2    0    0 -0.59320291722E+03  0.52724373884E+03 -0.13932698633E+04  0.16060770923E+04  0.91689983411E+02 0.  0.
         13    1    3    3    0    0 -0.22490465394E+03  0.17009748205E+03 -0.42016002055E+03  0.50601353701E+03  0.00000000000E+00 0. -1.
        -13    1    3    3    0    0 -0.36829826328E+03  0.35714625679E+03 -0.97310984279E+03  0.11000635553E+04  0.00000000000E+00 0.  1.
         22    1    1    2    0    0  0.59320291722E+03 -0.52724373884E+03 -0.87341151040E+03  0.11801369953E+04  0.00000000000E+00 0.  1.
<mgrwt>
<rscale>  0 0.16202298E+04</rscale>
<asrwt>0</asrwt>
<pdfrwt beam="1">  1        1 0.38868427E+00 0.16202298E+04</pdfrwt>
<pdfrwt beam="2">  1       -1 0.39964054E-01 0.16202298E+04</pdfrwt>
<totfact> 0.76049230E+00</totfact>
</mgrwt>
</event>
<event>
 6    1  0.1585031E-006  0.2196655E+04  0.7818608E-02  0.8519821E-01
         -1   -1    0    0    0  501 -0.00000000000E+00  0.00000000000E+00  0.64635324666E+03  0.64635324666E+03  0.00000000000E+00 0.  1.
          1   -1    0    0  501    0  0.00000000000E+00 -0.00000000000E+00 -0.18663536261E+04  0.18663536261E+04  0.00000000000E+00 0. -1.
         23    2    1    2    0    0 -0.22080290690E+03 -0.82342177411E+03  0.17754657626E+03  0.87566232995E+03  0.92110735388E+02 0.  0.
         11    1    3    3    0    0 -0.15287206818E+03 -0.39231003011E+03  0.87574391881E+02  0.43005383740E+03  0.00000000000E+00 0.  1.
        -11    1    3    3    0    0 -0.67930838729E+02 -0.43111174401E+03  0.89972184378E+02  0.44560849255E+03  0.00000000000E+00 0. -1.
         22    1    1    2    0    0  0.22080290690E+03  0.82342177411E+03 -0.13975469557E+04  0.16370445429E+04  0.00000000000E+00 0. -1.
<mgrwt>
<rscale>  0 0.21966554E+04</rscale>
<asrwt>0</asrwt>
<pdfrwt beam="1">  1        1 0.28713132E+00 0.21966554E+04</pdfrwt>
<pdfrwt beam="2">  1       -1 0.99438962E-01 0.21966554E+04</pdfrwt>
<totfact> 0.32329413E+00</totfact>
</mgrwt>
</event>
<event>
 6    1  0.1585031E-006  0.2411654E+04  0.7818608E-02  0.8435154E-01
         -1   -1    0    0    0  501 -0.00000000000E+00  0.00000000000E+00  0.61994968883E+03  0.61994968883E+03  0.00000000000E+00 0.  1.
          1   -1    0    0  501    0  0.00000000000E+00 -0.00000000000E+00 -0.23453809998E+04  0.23453809998E+04  0.00000000000E+00 0. -1.
         23    2    1    2    0    0  0.10417372983E+04  0.13379555590E+03 -0.14008900773E+03  0.10636398441E+04  0.92665734808E+02 0.  0.
         11    1    3    3    0    0  0.61965575679E+03  0.11406369630E+03 -0.53649341038E+02  0.63234645214E+03  0.00000000000E+00 0. -1.
        -11    1    3    3    0    0  0.42208154156E+03  0.19731859598E+02 -0.86439666693E+02  0.43129339200E+03  0.00000000000E+00 0.  1.
         22    1    1    2    0    0 -0.10417372983E+04 -0.13379555590E+03 -0.15853423032E+04  0.19016908444E+04  0.00000000000E+00 0. -1.
<mgrwt>
<rscale>  0 0.24116536E+04</rscale>
<asrwt>0</asrwt>
<pdfrwt beam="1">  1        1 0.36082785E+00 0.24116536E+04</pdfrwt>
<pdfrwt beam="2">  1       -1 0.95376875E-01 0.24116536E+04</pdfrwt>
<totfact> 0.16454109E+00</totfact>
</mgrwt>
</event>
<event>
 6    1  0.1585031E-006  0.2837895E+04  0.7818608E-02  0.8291599E-01
          2   -1    0    0  501    0  0.00000000000E+00  0.00000000000E+00  0.24637632790E+04  0.24637632790E+04  0.00000000000E+00 0. -1.
         -2   -1    0    0    0  501 -0.00000000000E+00 -0.00000000000E+00 -0.81720998211E+03  0.81720998211E+03  0.00000000000E+00 0.  1.
         23    2    1    2    0    0 -0.47605275463E+03  0.74194991736E+03  0.21074436340E+04  0.22862191167E+04  0.91450936696E+02 0.  0.
         13    1    3    3    0    0 -0.11316840731E+03  0.22280735473E+03  0.68364250985E+03  0.72788549032E+03  0.00000000000E+00 0. -1.
        -13    1    3    3    0    0 -0.36288434732E+03  0.51914256263E+03  0.14238011242E+04  0.15583336263E+04  0.00000000000E+00 0.  1.
         22    1    1    2    0    0  0.47605275463E+03 -0.74194991736E+03 -0.46089033711E+03  0.99475414445E+03  0.00000000000E+00 0.  1.
<mgrwt>
<rscale>  0 0.28378950E+04</rscale>
<asrwt>0</asrwt>
<pdfrwt beam="1">  1        2 0.37904050E+00 0.28378950E+04</pdfrwt>
<pdfrwt beam="2">  1       -2 0.12572461E+00 0.28378950E+04</pdfrwt>
<totfact> 0.14973292E+00</totfact>
</mgrwt>
</event>
<event>
 6    1  0.1585031E-006  0.2886594E+04  0.7818608E-02  0.8276877E-01
          2   -1    0    0  501    0  0.00000000000E+00  0.00000000000E+00  0.22530278717E+04  0.22530278717E+04  0.00000000000E+00 0. -1.
         -2   -1    0    0    0  501 -0.00000000000E+00 -0.00000000000E+00 -0.92458060834E+03  0.92458060834E+03  0.00000000000E+00 0.  1.
         23    2    1    2    0    0  0.87544038537E+03  0.11452530393E+04  0.69368889486E+03  0.16025152832E+04  0.94077402635E+02 0.  0.
         11    1    3    3    0    0  0.60939806790E+03  0.75169630028E+03  0.50325268492E+03  0.10907229703E+04  0.00000000000E+00 0. -1.
        -11    1    3    3    0    0  0.26604231747E+03  0.39355673901E+03  0.19043620994E+03  0.51179231291E+03  0.00000000000E+00 0.  1.
         22    1    1    2    0    0 -0.87544038537E+03 -0.11452530393E+04  0.63475836849E+03  0.15750931968E+04  0.00000000000E+00 0. -1.
<mgrwt>
<rscale>  0 0.28865938E+04</rscale>
<asrwt>0</asrwt>
<pdfrwt beam="1">  1        2 0.34661967E+00 0.28865938E+04</pdfrwt>
<pdfrwt beam="2">  1       -2 0.14224317E+00 0.28865938E+04</pdfrwt>
<totfact> 0.14349516E+00</totfact>
</mgrwt>
</event>
<event>
 6    1  0.1585031E-006  0.6773030E+03  0.7818608E-02  0.9756854E-01
          2   -1    0    0  501    0  0.00000000000E+00  0.00000000000E+00  0.53089829510E+03  0.53089829510E+03  0.00000000000E+00 0.  1.
         -2   -1    0    0    0  501 -0.00000000000E+00 -0.00000000000E+00 -0.21602035305E+03  0.21602035305E+03  0.00000000000E+00 0. -1.
         23    2    1    2    0    0  0.24498810325E+03  0.25679806156E+02 -0.87185393517E+02  0.27539606229E+03  0.86965942187E+02 0.  0.
         13    1    3    3    0    0  0.26495026363E+02 -0.23608754432E+02 -0.13011032702E+01  0.35511302110E+02  0.00000000000E+00 0. -1.
        -13    1    3    3    0    0  0.21849307689E+03  0.49288560588E+02 -0.85884290246E+02  0.23988476018E+03  0.00000000000E+00 0.  1.
         22    1    1    2    0    0 -0.24498810325E+03 -0.25679806156E+02  0.40206333556E+03  0.47152258587E+03  0.00000000000E+00 0.  1.
<mgrwt>
<rscale>  0 0.67730300E+03</rscale>
<asrwt>0</asrwt>
<pdfrwt beam="1">  1        2 0.81676661E-01 0.67730300E+03</pdfrwt>
<pdfrwt beam="2">  1       -2 0.33233901E-01 0.67730300E+03</pdfrwt>
<totfact> 0.48869254E+02</totfact>
</mgrwt>
</event>
<event>
 6    1  0.1585031E-006  0.2726708E+04  0.7818608E-02  0.8326391E-01
          1   -1    0    0  501    0  0.00000000000E+00  0.00000000000E+00  0.24172608298E+04  0.24172608298E+04  0.00000000000E+00 0. -1.
         -1   -1    0    0    0  501 -0.00000000000E+00 -0.00000000000E+00 -0.76894245467E+03  0.76894245467E+03  0.00000000000E+00 0.  1.
         23    2    1    2    0    0 -0.74169003132E+03 -0.92707470705E+03  0.44745440905E+02  0.11909544853E+04  0.82454937233E+02 0.  0.
         11    1    3    3    0    0 -0.58460007764E+03 -0.78018201086E+03  0.29656319753E+02  0.97535671329E+03  0.00000000000E+00 0.  1.
        -11    1    3    3    0    0 -0.15708995368E+03 -0.14689269619E+03  0.15089121152E+02  0.21559777206E+03  0.00000000000E+00 0. -1.
         22    1    1    2    0    0  0.74169003132E+03  0.92707470705E+03  0.16035729342E+04  0.19952487991E+04  0.00000000000E+00 0. -1.
<mgrwt>
<rscale>  0 0.27267083E+04</rscale>
<asrwt>0</asrwt>
<pdfrwt beam="1">  1        1 0.37188628E+00 0.27267083E+04</pdfrwt>
<pdfrwt beam="2">  1       -1 0.11829884E+00 0.27267083E+04</pdfrwt>
<totfact> 0.86295314E-01</totfact>
</mgrwt>
</event>
<event>
 6    1  0.1585031E-006  0.3098180E+04  0.7818608E-02  0.8216237E-01
         -2   -1    0    0    0  501 -0.00000000000E+00  0.00000000000E+00  0.18618717069E+04  0.18618717069E+04  0.00000000000E+00 0.  1.
          2   -1    0    0  501    0  0.00000000000E+00 -0.00000000000E+00 -0.12888538915E+04  0.12888538915E+04  0.00000000000E+00 0. -1.
         23    2    1    2    0    0  0.78432644981E+03 -0.44525378566E+03 -0.99231804604E+03  0.13441555686E+04  0.92952538989E+02 0.  0.
         11    1    3    3    0    0  0.35549747404E+03 -0.24878369645E+03 -0.44276480502E+03  0.61992939455E+03  0.00000000000E+00 0. -1.
        -11    1    3    3    0    0  0.42882897578E+03 -0.19647008921E+03 -0.54955324102E+03  0.72422617402E+03  0.00000000000E+00 0.  1.
         22    1    1    2    0    0 -0.78432644981E+03  0.44525378566E+03  0.15653358615E+04  0.18065700298E+04  0.00000000000E+00 0.  1.
<mgrwt>
<rscale>  0 0.30981805E+04</rscale>
<asrwt>0</asrwt>
<pdfrwt beam="1">  1        2 0.19828521E+00 0.30981805E+04</pdfrwt>
<pdfrwt beam="2">  1       -2 0.28644180E+00 0.30981805E+04</pdfrwt>
<totfact> 0.54812539E-01</totfact>
</mgrwt>
</event>
<event>
 6    1  0.1585031E-006  0.2991856E+04  0.7818608E-02  0.8246060E-01
          1   -1    0    0  501    0  0.00000000000E+00  0.00000000000E+00  0.83052792086E+03  0.83052792086E+03  0.00000000000E+00 0. -1.
         -1   -1    0    0    0  501 -0.00000000000E+00 -0.00000000000E+00 -0.26944323715E+04  0.26944323715E+04  0.00000000000E+00 0.  1.
         23    2    1    2    0    0  0.81454333130E+03 -0.11311181975E+04 -0.29755627805E+03  0.14282114249E+04  0.91317690330E+02 0.  0.
         11    1    3    3    0    0  0.43944875962E+03 -0.54008576902E+03 -0.16893049251E+03  0.71648123599E+03  0.00000000000E+00 0.  1.
        -11    1    3    3    0    0  0.37509457168E+03 -0.59103242844E+03 -0.12862578554E+03  0.71173018896E+03  0.00000000000E+00 0. -1.
         22    1    1    2    0    0 -0.81454333130E+03  0.11311181975E+04 -0.15663481726E+04  0.20967488674E+04  0.00000000000E+00 0.  1.
<mgrwt>
<rscale>  0 0.29918565E+04</rscale>
<asrwt>0</asrwt>
<pdfrwt beam="1">  1        1 0.12777353E+00 0.29918565E+04</pdfrwt>
<pdfrwt beam="2">  1       -1 0.41452805E+00 0.29918565E+04</pdfrwt>
<totfact> 0.10068381E-01</totfact>
</mgrwt>
</event>
<event>
 6    1  0.1585031E-006  0.1036099E+04  0.7818608E-02  0.9269815E-01
         -2   -1    0    0    0  501 -0.00000000000E+00  0.00000000000E+00  0.29321956354E+03  0.29321956354E+03  0.00000000000E+00 0.  1.
          2   -1    0    0  501    0  0.00000000000E+00 -0.00000000000E+00 -0.91527112295E+03  0.91527112295E+03  0.00000000000E+00 0. -1.
         23    2    1    2    0    0  0.22500430098E+03  0.70493846954E+02 -0.84622909502E+03  0.88314181929E+03  0.90771547326E+02 0.  0.
         13    1    3    3    0    0  0.10496047534E+03  0.29879382917E+02 -0.23766503766E+03  0.26152275051E+03  0.00000000000E+00 0.  1.
        -13    1    3    3    0    0  0.12004382563E+03  0.40614464038E+02 -0.60856405737E+03  0.62161906879E+03  0.00000000000E+00 0. -1.
         22    1    1    2    0    0 -0.22500430098E+03 -0.70493846954E+02  0.22417753561E+03  0.32534886720E+03  0.00000000000E+00 0.  1.
<mgrwt>
<rscale>  0 0.10360992E+04</rscale>
<asrwt>0</asrwt>
<pdfrwt beam="1">  1        2 0.14081094E+00 0.10360992E+04</pdfrwt>
<pdfrwt beam="2">  1       -2 0.45110703E-01 0.10360992E+04</pdfrwt>
<totfact> 0.13291316E+02</totfact>
</mgrwt>
</event>
<event>
 6    1  0.1585031E-006  0.1416708E+04  0.7818608E-02  0.8941813E-01
          2   -1    0    0  501    0  0.00000000000E+00  0.00000000000E+00  0.19399807356E+04  0.19399807356E+04  0.00000000000E+00 0.  1.
         -2   -1    0    0    0  501 -0.00000000000E+00 -0.00000000000E+00 -0.25864437427E+03  0.25864437427E+03  0.00000000000E+00 0. -1.
         23    2    1    2    0    0  0.10572912109E+03 -0.68607541509E+03  0.10386645611E+04  0.12526308366E+04  0.91552280820E+02 0.  0.
         11    1    3    3    0    0  0.39479447917E+02 -0.27974737599E+03  0.50457138723E+03  0.57828151102E+03  0.00000000000E+00 0. -1.
        -11    1    3    3    0    0  0.66249673176E+02 -0.40632803909E+03  0.53409317386E+03  0.67434932558E+03  0.00000000000E+00 0.  1.
         22    1    1    2    0    0 -0.10572912109E+03  0.68607541509E+03  0.64267180023E+03  0.94599427326E+03  0.00000000000E+00 0.  1.
<mgrwt>
<rscale>  0 0.14167076E+04</rscale>
<asrwt>0</asrwt>
<pdfrwt beam="1">  1        2 0.29845857E+00 0.14167076E+04</pdfrwt>
<pdfrwt beam="2">  1       -2 0.39791443E-01 0.14167076E+04</pdfrwt>
<totfact> 0.41924637E+01</totfact>
</mgrwt>
</event>
<event>
 6    1  0.1585031E-006  0.2994700E+04  0.7818608E-02  0.8245246E-01
          1   -1    0    0  501    0  0.00000000000E+00  0.00000000000E+00  0.17388765417E+04  0.17388765417E+04  0.00000000000E+00 0. -1.
         -1   -1    0    0    0  501 -0.00000000000E+00 -0.00000000000E+00 -0.12893709335E+04  0.12893709335E+04  0.00000000000E+00 0.  1.
         23    2    1    2    0    0  0.47056099665E+03  0.97915564466E+03 -0.81501232628E+03  0.13611604844E+04  0.91320009805E+02 0.  0.
         13    1    3    3    0    0  0.15418684457E+03  0.37628273084E+03 -0.35157902176E+03  0.53755937821E+03  0.00000000000E+00 0.  1.
        -13    1    3    3    0    0  0.31637415208E+03  0.60287291382E+03 -0.46343330452E+03  0.82360110616E+03  0.00000000000E+00 0. -1.
         22    1    1    2    0    0 -0.47056099665E+03 -0.97915564466E+03  0.12645179345E+04  0.16670869907E+04  0.00000000000E+00 0. -1.
<mgrwt>
<rscale>  0 0.29946999E+04</rscale>
<asrwt>0</asrwt>
<pdfrwt beam="1">  1        1 0.26751947E+00 0.29946999E+04</pdfrwt>
<pdfrwt beam="2">  1       -1 0.19836476E+00 0.29946999E+04</pdfrwt>
<totfact> 0.58975282E-01</totfact>
</mgrwt>
</event>
<event>
 6    1  0.1585031E-006  0.3234856E+04  0.7818608E-02  0.8179672E-01
         -2   -1    0    0    0  501 -0.00000000000E+00  0.00000000000E+00  0.75453072763E+03  0.75453072763E+03  0.00000000000E+00 0.  1.
          2   -1    0    0  501    0  0.00000000000E+00 -0.00000000000E+00 -0.34671518082E+04  0.34671518082E+04  0.00000000000E+00 0. -1.
         23    2    1    2    0    0 -0.79667368890E+03 -0.14049581809E+04 -0.14328134772E+04  0.21609778121E+04  0.90962561802E+02 0.  0.
         11    1    3    3    0    0 -0.55395754980E+03 -0.90111423025E+03 -0.96615653154E+03  0.14325970356E+04  0.00000000000E+00 0. -1.
        -11    1    3    3    0    0 -0.24271613911E+03 -0.50384395060E+03 -0.46665694563E+03  0.72838077655E+03  0.00000000000E+00 0.  1.
         22    1    1    2    0    0  0.79667368890E+03  0.14049581809E+04 -0.12798076034E+04  0.20607047237E+04  0.00000000000E+00 0. -1.
<mgrwt>
<rscale>  0 0.32348555E+04</rscale>
<asrwt>0</asrwt>
<pdfrwt beam="1">  1        2 0.53340797E+00 0.32348555E+04</pdfrwt>
<pdfrwt beam="2">  1       -2 0.11608165E+00 0.32348555E+04</pdfrwt>
<totfact> 0.41416910E-01</totfact>
</mgrwt>
</event>
<event>
 6    1  0.1585031E-006  0.1314741E+04  0.7818608E-02  0.9017956E-01
         -1   -1    0    0    0  501 -0.00000000000E+00  0.00000000000E+00  0.36723860281E+03  0.36723860281E+03  0.00000000000E+00 0.  1.
          1   -1    0    0  501    0  0.00000000000E+00 -0.00000000000E+00 -0.11767177674E+04  0.11767177674E+04  0.00000000000E+00 0. -1.
         23    2    1    2    0    0 -0.35007523850E+03 -0.64990792222E+02  0.23862357472E+03  0.43702555583E+03  0.85285698399E+02 0.  0.
         13    1    3    3    0    0 -0.83261028177E+02 -0.15370290634E+02  0.10392130947E+03  0.13404582504E+03  0.00000000000E+00 0. -1.
        -13    1    3    3    0    0 -0.26681421033E+03 -0.49620501587E+02  0.13470226524E+03  0.30297973079E+03  0.00000000000E+00 0.  1.
         22    1    1    2    0    0  0.35007523850E+03  0.64990792222E+02 -0.10481027393E+04  0.11069308144E+04  0.00000000000E+00 0. -1.
<mgrwt>
<rscale>  0 0.13147413E+04</rscale>
<asrwt>0</asrwt>
<pdfrwt beam="1">  1        1 0.18103350E+00 0.13147413E+04</pdfrwt>
<pdfrwt beam="2">  1       -1 0.56498247E-01 0.13147413E+04</pdfrwt>
<totfact> 0.34583026E+01</totfact>
</mgrwt>
</event>
<event>
 6    1  0.1585031E-006  0.3835974E+04  0.7818608E-02  0.8038479E-01
         -1   -1    0    0    0  501 -0.00000000000E+00  0.00000000000E+00  0.16614329065E+04  0.16614329065E+04  0.00000000000E+00 0.  1.
          1   -1    0    0  501    0  0.00000000000E+00 -0.00000000000E+00 -0.22141573199E+04  0.22141573199E+04  0.00000000000E+00 0. -1.
         23    2    1    2    0    0 -0.21075244569E+03  0.90502790225E+03 -0.19704929254E+04  0.21804325197E+04  0.89171220841E+02 0.  0.
         11    1    3    3    0    0 -0.90500757684E+02  0.21857699714E+03 -0.50767959567E+03  0.56009361956E+03  0.00000000000E+00 0.  1.
        -11    1    3    3    0    0 -0.12025168801E+03  0.68645090512E+03 -0.14628133297E+04  0.16203389001E+04  0.00000000000E+00 0. -1.
         22    1    1    2    0    0  0.21075244569E+03 -0.90502790225E+03  0.14177685120E+04  0.16951577068E+04  0.00000000000E+00 0.  1.
<mgrwt>
<rscale>  0 0.38359738E+04</rscale>
<asrwt>0</asrwt>
<pdfrwt beam="1">  1        1 0.34063958E+00 0.38359738E+04</pdfrwt>
<pdfrwt beam="2">  1       -1 0.25560507E+00 0.38359738E+04</pdfrwt>
<totfact> 0.10832676E-01</totfact>
</mgrwt>
</event>
<event>
 6    1  0.1585031E-006  0.2948713E+04  0.7818608E-02  0.8258530E-01
          1   -1    0    0  501    0  0.00000000000E+00  0.00000000000E+00  0.24082170661E+04  0.24082170661E+04  0.00000000000E+00 0. -1.
         -1   -1    0    0    0  501 -0.00000000000E+00 -0.00000000000E+00 -0.90262915028E+03  0.90262915028E+03  0.00000000000E+00 0.  1.
         23    2    1    2    0    0  0.42481372387E+03  0.13689044238E+04  0.11347695004E+04  0.18303488950E+04  0.90051302150E+02 0.  0.
         11    1    3    3    0    0  0.63197357326E+02  0.32782294320E+03  0.27602857165E+03  0.43318998191E+03  0.00000000000E+00 0. -1.
        -11    1    3    3    0    0  0.36161636654E+03  0.10410814806E+04  0.85874092871E+03  0.13971589131E+04  0.00000000000E+00 0.  1.
         22    1    1    2    0    0 -0.42481372387E+03 -0.13689044238E+04  0.37081841542E+03  0.14804973214E+04  0.00000000000E+00 0.  1.
<mgrwt>
<rscale>  0 0.29487129E+04</rscale>
<asrwt>0</asrwt>
<pdfrwt beam="1">  1        1 0.37049493E+00 0.29487129E+04</pdfrwt>
<pdfrwt beam="2">  1       -1 0.13886602E+00 0.29487129E+04</pdfrwt>
<totfact> 0.57372824E-01</totfact>
</mgrwt>
</event>
<event>
 6    1  0.1585031E-006  0.2520886E+04  0.7818608E-02  0.8395582E-01
         -1   -1    0    0    0  501 -0.00000000000E+00  0.00000000000E+00  0.72477976833E+03  0.72477976833E+03  0.00000000000E+00 0.  1.
          1   -1    0    0  501    0  0.00000000000E+00 -0.00000000000E+00 -0.21919994562E+04  0.21919994562E+04  0.00000000000E+00 0. -1.
         23    2    1    2    0    0 -0.81720876167E+03 -0.62901180211E+03 -0.15699207996E+04  0.18804233370E+04  0.88626192887E+02 0.  0.
         11    1    3    3    0    0 -0.47333116261E+03 -0.33722344042E+03 -0.95309593290E+03  0.11163126334E+04  0.00000000000E+00 0. -1.
        -11    1    3    3    0    0 -0.34387759906E+03 -0.29178836169E+03 -0.61682486668E+03  0.76411070357E+03  0.00000000000E+00 0.  1.
         22    1    1    2    0    0  0.81720876167E+03  0.62901180211E+03  0.10270111168E+03  0.10363558876E+04  0.00000000000E+00 0.  1.
<mgrwt>
<rscale>  0 0.25208862E+04</rscale>
<asrwt>0</asrwt>
<pdfrwt beam="1">  1        1 0.33723068E+00 0.25208862E+04</pdfrwt>
<pdfrwt beam="2">  1       -1 0.11150458E+00 0.25208862E+04</pdfrwt>
<totfact> 0.14452935E+00</totfact>
</mgrwt>
</event>
<event>
 6    1  0.1626653E-006  0.4339525E+04  0.7818608E-02  0.7939350E-01
         -1   -1    0    0    0  501 -0.00000000000E+00  0.00000000000E+00  0.22722530864E+04  0.22722530864E+04  0.00000000000E+00 0.  1.
          1   -1    0    0  501    0  0.00000000000E+00 -0.00000000000E+00 -0.20718952077E+04  0.20718952077E+04  0.00000000000E+00 0. -1.
         23    2    1    2    0    0 -0.11613255850E+04 -0.42914421160E+03 -0.16823512723E+04  0.20908317128E+04  0.91812738905E+02 0.  0.
         11    1    3    3    0    0 -0.56018427220E+03 -0.16054510083E+03 -0.76606973206E+03  0.96251960115E+03  0.00000000000E+00 0. -1.
        -11    1    3    3    0    0 -0.60114131280E+03 -0.26859911077E+03 -0.91628154024E+03  0.11283121116E+04  0.00000000000E+00 0.  1.
         22    1    1    2    0    0  0.11613255850E+04  0.42914421160E+03  0.18827091509E+04  0.22533165813E+04  0.00000000000E+00 0.  1.
<mgrwt>
<rscale>  0 0.43395254E+04</rscale>
<asrwt>0</asrwt>
<pdfrwt beam="1">  1        1 0.31875311E+00 0.43395254E+04</pdfrwt>
<pdfrwt beam="2">  1       -1 0.34957740E+00 0.43395254E+04</pdfrwt>
<totfact> 0.31699515E-02</totfact>
</mgrwt>
</event>
<event>
 6    1  0.1585031E-006  0.3074218E+04  0.7818608E-02  0.8222849E-01
         -1   -1    0    0    0  501 -0.00000000000E+00  0.00000000000E+00  0.13059566482E+04  0.13059566482E+04  0.00000000000E+00 0.  1.
          1   -1    0    0  501    0  0.00000000000E+00 -0.00000000000E+00 -0.18091750484E+04  0.18091750484E+04  0.00000000000E+00 0. -1.
         23    2    1    2    0    0 -0.13208765379E+04  0.73766167714E+03 -0.51950156109E+03  0.16021463300E+04  0.90174343671E+02 0.  0.
         13    1    3    3    0    0 -0.90834785883E+03  0.47227954495E+03 -0.38183395287E+03  0.10926760585E+04  0.00000000000E+00 0. -1.
        -13    1    3    3    0    0 -0.41252867909E+03  0.26538213219E+03 -0.13766760822E+03  0.50947027147E+03  0.00000000000E+00 0.  1.
         22    1    1    2    0    0  0.13208765379E+04 -0.73766167714E+03  0.16283160879E+02  0.15129853666E+04  0.00000000000E+00 0.  1.
<mgrwt>
<rscale>  0 0.30742181E+04</rscale>
<asrwt>0</asrwt>
<pdfrwt beam="1">  1        1 0.27833462E+00 0.30742181E+04</pdfrwt>
<pdfrwt beam="2">  1       -1 0.20091641E+00 0.30742181E+04</pdfrwt>
<totfact> 0.50378208E-01</totfact>
</mgrwt>
</event>
<event>
 6    1  0.1585031E-006  0.3216898E+04  0.7818608E-02  0.8184369E-01
          2   -1    0    0  501    0  0.00000000000E+00  0.00000000000E+00  0.29709228928E+04  0.29709228928E+04  0.00000000000E+00 0. -1.
         -2   -1    0    0    0  501 -0.00000000000E+00 -0.00000000000E+00 -0.87080949701E+03  0.87080949701E+03  0.00000000000E+00 0.  1.
         23    2    1    2    0    0  0.61473167369E+03 -0.55045523955E+02  0.28230770644E+04  0.28911528263E+04  0.89863860374E+02 0.  0.
         11    1    3    3    0    0  0.39332365810E+03 -0.78265480905E+02  0.17992294800E+04  0.18433815957E+04  0.00000000000E+00 0. -1.
        -11    1    3    3    0    0  0.22140801559E+03  0.23219956950E+02  0.10238475844E+04  0.10477712307E+04  0.00000000000E+00 0.  1.
         22    1    1    2    0    0 -0.61473167369E+03  0.55045523955E+02 -0.72296366862E+03  0.95057956347E+03  0.00000000000E+00 0.  1.
<mgrwt>
<rscale>  0 0.32168978E+04</rscale>
<asrwt>0</asrwt>
<pdfrwt beam="1">  1        2 0.45706506E+00 0.32168978E+04</pdfrwt>
<pdfrwt beam="2">  1       -2 0.13397069E+00 0.32168978E+04</pdfrwt>
<totfact> 0.61379916E-01</totfact>
</mgrwt>
</event>
<event>
 6    1  0.1585031E-006  0.2003762E+04  0.7818608E-02  0.8604864E-01
          1   -1    0    0  501    0  0.00000000000E+00  0.00000000000E+00  0.10658105898E+04  0.10658105898E+04  0.00000000000E+00 0. -1.
         -1   -1    0    0    0  501 -0.00000000000E+00 -0.00000000000E+00 -0.94178598933E+03  0.94178598933E+03  0.00000000000E+00 0.  1.
         23    2    1    2    0    0  0.40234134459E+03  0.29740312016E+03  0.92934473565E+03  0.10595102468E+04  0.92483252403E+02 0.  0.
         13    1    3    3    0    0  0.13910613286E+03  0.76469784301E+02  0.37594708869E+03  0.40808621344E+03  0.00000000000E+00 0.  1.
        -13    1    3    3    0    0  0.26323521173E+03  0.22093333585E+03  0.55339764696E+03  0.65142403337E+03  0.00000000000E+00 0. -1.
         22    1    1    2    0    0 -0.40234134459E+03 -0.29740312016E+03 -0.80532013517E+03  0.94808633233E+03  0.00000000000E+00 0.  1.
<mgrwt>
<rscale>  0 0.20037619E+04</rscale>
<asrwt>0</asrwt>
<pdfrwt beam="1">  1        1 0.16397086E+00 0.20037619E+04</pdfrwt>
<pdfrwt beam="2">  1       -1 0.14489015E+00 0.20037619E+04</pdfrwt>
<totfact> 0.47788665E+00</totfact>
</mgrwt>
</event>
<event>
 6    1  0.1585031E-006  0.3005615E+04  0.7818608E-02  0.8242129E-01
          2   -1    0    0  501    0  0.00000000000E+00  0.00000000000E+00  0.18090949688E+04  0.18090949688E+04  0.00000000000E+00 0. -1.
         -2   -1    0    0    0  501 -0.00000000000E+00 -0.00000000000E+00 -0.12483756230E+04  0.12483756230E+04  0.00000000000E+00 0.  1.
         23    2    1    2    0    0  0.62478999440E+03  0.12158567576E+04 -0.35179308835E+03  0.14138924419E+04  0.81628844763E+02 0.  0.
         11    1    3    3    0    0  0.17524626888E+03  0.26595782050E+03 -0.85126051567E+02  0.32968357814E+03  0.00000000000E+00 0.  1.
        -11    1    3    3    0    0  0.44954372552E+03  0.94989893709E+03 -0.26666703678E+03  0.10842088638E+04  0.00000000000E+00 0. -1.
         22    1    1    2    0    0 -0.62478999440E+03 -0.12158567576E+04  0.91251243417E+03  0.16435781498E+04  0.00000000000E+00 0. -1.
<mgrwt>
<rscale>  0 0.30056148E+04</rscale>
<asrwt>0</asrwt>
<pdfrwt beam="1">  1        2 0.27832230E+00 0.30056148E+04</pdfrwt>
<pdfrwt beam="2">  1       -2 0.19205779E+00 0.30056148E+04</pdfrwt>
<totfact> 0.10959248E+00</totfact>
</mgrwt>
</event>
<event>
 6    1  0.1585031E-006  0.5025682E+03  0.7818608E-02  0.1013111E+00
          1   -1    0    0  501    0  0.00000000000E+00  0.00000000000E+00  0.19465374443E+04  0.19465374443E+04  0.00000000000E+00 0. -1.
         -1   -1    0    0    0  501 -0.00000000000E+00 -0.00000000000E+00 -0.32438990210E+02  0.32438990210E+02  0.00000000000E+00 0.  1.
         23    2    1    2    0    0  0.17297488919E+03  0.49857457979E+02  0.16308703993E+04  0.16433811285E+04  0.92505111809E+02 0.  0.
         11    1    3    3    0    0  0.59327005204E+02 -0.50924364564E+01  0.87661972592E+03  0.87863972726E+03  0.00000000000E+00 0. -1.
        -11    1    3    3    0    0  0.11364788398E+03  0.54949894436E+02  0.75425067343E+03  0.76474140126E+03  0.00000000000E+00 0.  1.
         22    1    1    2    0    0 -0.17297488919E+03 -0.49857457979E+02  0.28322805472E+03  0.33559530597E+03  0.00000000000E+00 0.  1.
<mgrwt>
<rscale>  0 0.50256824E+03</rscale>
<asrwt>0</asrwt>
<pdfrwt beam="1">  1        1 0.29946721E+00 0.50256824E+03</pdfrwt>
<pdfrwt beam="2">  1       -1 0.49906154E-02 0.50256824E+03</pdfrwt>
<totfact> 0.63048821E+02</totfact>
</mgrwt>
</event>
<event>
 6    1  0.1602964E-006  0.3831585E+04  0.7818608E-02  0.8039411E-01
         -2   -1    0    0    0  501 -0.00000000000E+00  0.00000000000E+00  0.16948900409E+04  0.16948900409E+04  0.00000000000E+00 0.  1.
          2   -1    0    0  501    0  0.00000000000E+00 -0.00000000000E+00 -0.21654862969E+04  0.21654862969E+04  0.00000000000E+00 0. -1.
         23    2    1    2    0    0  0.95160490142E+03 -0.16588802785E+04 -0.14179421058E+03  0.19198747398E+04  0.91530058844E+02 0.  0.
         11    1    3    3    0    0  0.27407570297E+03 -0.53882454844E+03 -0.14944668333E+02  0.60470879609E+03  0.00000000000E+00 0. -1.
        -11    1    3    3    0    0  0.67752919845E+03 -0.11200557301E+04 -0.12684954225E+03  0.13151659437E+04  0.00000000000E+00 0.  1.
         22    1    1    2    0    0 -0.95160490142E+03  0.16588802785E+04 -0.32880204542E+03  0.19405015980E+04  0.00000000000E+00 0.  1.
<mgrwt>
<rscale>  0 0.38315851E+04</rscale>
<asrwt>0</asrwt>
<pdfrwt beam="1">  1        2 0.33315174E+00 0.38315851E+04</pdfrwt>
<pdfrwt beam="2">  1       -2 0.26075232E+00 0.38315851E+04</pdfrwt>
<totfact> 0.23841482E-01</totfact>
</mgrwt>
</event>
<event>
 6    1  0.1585031E-006  0.3829639E+04  0.7818608E-02  0.8039824E-01
          2   -1    0    0  501    0  0.00000000000E+00  0.00000000000E+00  0.14551194655E+04  0.14551194655E+04  0.00000000000E+00 0. -1.
         -2   -1    0    0    0  501 -0.00000000000E+00 -0.00000000000E+00 -0.25197479264E+04  0.25197479264E+04  0.00000000000E+00 0.  1.
         23    2    1    2    0    0  0.17976259930E+04 -0.64512847254E+03 -0.40691895098E+03  0.19549090368E+04  0.91849619973E+02 0.  0.
         13    1    3    3    0    0  0.15329657962E+04 -0.58298889804E+03 -0.34039927861E+03  0.16750318971E+04  0.00000000000E+00 0. -1.
        -13    1    3    3    0    0  0.26466019686E+03 -0.62139574501E+02 -0.66519672366E+02  0.27987713971E+03  0.00000000000E+00 0.  1.
         22    1    1    2    0    0 -0.17976259930E+04  0.64512847254E+03 -0.65770950995E+03  0.20199583551E+04  0.00000000000E+00 0.  1.
<mgrwt>
<rscale>  0 0.38296393E+04</rscale>
<asrwt>0</asrwt>
<pdfrwt beam="1">  1        2 0.22386454E+00 0.38296393E+04</pdfrwt>
<pdfrwt beam="2">  1       -2 0.38765352E+00 0.38296393E+04</pdfrwt>
<totfact> 0.96114323E-02</totfact>
</mgrwt>
</event>
<event>
 6    1  0.1585031E-006  0.2267584E+04  0.7818608E-02  0.8490813E-01
          2   -1    0    0  501    0  0.00000000000E+00  0.00000000000E+00  0.19410353314E+04  0.19410353314E+04  0.00000000000E+00 0. -1.
         -2   -1    0    0    0  501 -0.00000000000E+00 -0.00000000000E+00 -0.66226753126E+03  0.66226753126E+03  0.00000000000E+00 0.  1.
         23    2    1    2    0    0  0.56284748196E+03 -0.88958922538E+03  0.16283100262E+03  0.10691968644E+04  0.92204780673E+02 0.  0.
         13    1    3    3    0    0  0.84712756475E+02 -0.12662055849E+03  0.56706927288E+02  0.16255673639E+03  0.00000000000E+00 0.  1.
        -13    1    3    3    0    0  0.47813472548E+03 -0.76296866689E+03  0.10612407533E+03  0.90664012802E+03  0.00000000000E+00 0. -1.
         22    1    1    2    0    0 -0.56284748196E+03  0.88958922538E+03  0.11159367975E+04  0.15341059983E+04  0.00000000000E+00 0.  1.
<mgrwt>
<rscale>  0 0.22675843E+04</rscale>
<asrwt>0</asrwt>
<pdfrwt beam="1">  1        2 0.29862082E+00 0.22675843E+04</pdfrwt>
<pdfrwt beam="2">  1       -2 0.10188731E+00 0.22675843E+04</pdfrwt>
<totfact> 0.51741647E+00</totfact>
</mgrwt>
</event>
<event>
 6    1  0.1585031E-006  0.1589667E+04  0.7818608E-02  0.8826921E-01
         -1   -1    0    0    0  501 -0.00000000000E+00  0.00000000000E+00  0.32529409730E+03  0.32529409730E+03  0.00000000000E+00 0.  1.
          1   -1    0    0  501    0  0.00000000000E+00 -0.00000000000E+00 -0.19421214723E+04  0.19421214723E+04  0.00000000000E+00 0. -1.
         23    2    1    2    0    0  0.22505770914E+03 -0.55445358091E+03 -0.70278613478E+02  0.60913850663E+03  0.89671014933E+02 0.  0.
         13    1    3    3    0    0  0.48758275917E+02 -0.19619215107E+03 -0.55211970086E+02  0.20956405048E+03  0.00000000000E+00 0. -1.
        -13    1    3    3    0    0  0.17629943322E+03 -0.35826142983E+03 -0.15066643392E+02  0.39957445615E+03  0.00000000000E+00 0.  1.
         22    1    1    2    0    0 -0.22505770914E+03  0.55445358091E+03 -0.15465487615E+04  0.16582770629E+04  0.00000000000E+00 0. -1.
<mgrwt>
<rscale>  0 0.15896675E+04</rscale>
<asrwt>0</asrwt>
<pdfrwt beam="1">  1        1 0.29878792E+00 0.15896675E+04</pdfrwt>
<pdfrwt beam="2">  1       -1 0.50045245E-01 0.15896675E+04</pdfrwt>
<totfact> 0.12557074E+01</totfact>
</mgrwt>
</event>
<event>
 6    1  0.1585031E-006  0.7540723E+03  0.7818608E-02  0.9628983E-01
         -2   -1    0    0    0  501 -0.00000000000E+00  0.00000000000E+00  0.18609508837E+03  0.18609508837E+03  0.00000000000E+00 0. -1.
          2   -1    0    0  501    0  0.00000000000E+00 -0.00000000000E+00 -0.76389044842E+03  0.76389044842E+03  0.00000000000E+00 0.  1.
         23    2    1    2    0    0  0.62909123947E+02  0.13839380066E+03  0.13484927964E+03  0.22130674307E+03  0.87646701997E+02 0.  0.
         13    1    3    3    0    0  0.50542473184E+02  0.14935833655E+03  0.12916716538E+03  0.20382985773E+03  0.00000000000E+00 0. -1.
        -13    1    3    3    0    0  0.12366650764E+02 -0.10964535892E+02  0.56821142645E+01  0.17476885333E+02  0.00000000000E+00 0.  1.
         22    1    1    2    0    0 -0.62909123947E+02 -0.13839380066E+03 -0.71264463970E+03  0.72867879373E+03  0.00000000000E+00 0.  1.
<mgrwt>
<rscale>  0 0.75407231E+03</rscale>
<asrwt>0</asrwt>
<pdfrwt beam="1">  1        2 0.11752161E+00 0.75407231E+03</pdfrwt>
<pdfrwt beam="2">  1       -2 0.28630013E-01 0.75407231E+03</pdfrwt>
<totfact> 0.41164550E+02</totfact>
</mgrwt>
</event>
<event>
 6    1  0.1585031E-006  0.4222806E+04  0.7818608E-02  0.7961048E-01
          1   -1    0    0  501    0  0.00000000000E+00  0.00000000000E+00  0.27566714301E+04  0.27566714301E+04  0.00000000000E+00 0. -1.
         -1   -1    0    0    0  501 -0.00000000000E+00 -0.00000000000E+00 -0.16171757357E+04  0.16171757357E+04  0.00000000000E+00 0.  1.
         23    2    1    2    0    0  0.17915606885E+04 -0.42325899166E+03  0.16389793317E+04  0.24664086272E+04  0.89891002811E+02 0.  0.
         11    1    3    3    0    0  0.13133998975E+04 -0.27632799003E+03  0.12237767924E+04  0.18163166262E+04  0.00000000000E+00 0. -1.
        -11    1    3    3    0    0  0.47816079093E+03 -0.14693100162E+03  0.41520253930E+03  0.65009200108E+03  0.00000000000E+00 0.  1.
         22    1    1    2    0    0 -0.17915606885E+04  0.42325899166E+03 -0.49948363732E+03  0.19074385386E+04  0.00000000000E+00 0.  1.
<mgrwt>
<rscale>  0 0.42228058E+04</rscale>
<asrwt>0</asrwt>
<pdfrwt beam="1">  1        1 0.42410330E+00 0.42228058E+04</pdfrwt>
<pdfrwt beam="2">  1       -1 0.24879627E+00 0.42228058E+04</pdfrwt>
<totfact> 0.48814919E-02</totfact>
</mgrwt>
</event>
<event>
 6    1  0.1585031E-006  0.2653714E+04  0.7818608E-02  0.8350181E-01
          2   -1    0    0  501    0  0.00000000000E+00  0.00000000000E+00  0.13608009955E+04  0.13608009955E+04  0.00000000000E+00 0. -1.
         -2   -1    0    0    0  501 -0.00000000000E+00 -0.00000000000E+00 -0.12937594923E+04  0.12937594923E+04  0.00000000000E+00 0.  1.
         23    2    1    2    0    0  0.56330408211E+03 -0.13726302892E+03 -0.11585104603E+04  0.12987838678E+04  0.92414395552E+02 0.  0.
         13    1    3    3    0    0  0.53034903197E+03 -0.13859706607E+03 -0.10381024171E+04  0.11739403182E+04  0.00000000000E+00 0.  1.
        -13    1    3    3    0    0  0.32955050135E+02  0.13340371558E+01 -0.12040804326E+03  0.12484354956E+03  0.00000000000E+00 0. -1.
         22    1    1    2    0    0 -0.56330408211E+03  0.13726302892E+03  0.12255519635E+04  0.13557766200E+04  0.00000000000E+00 0. -1.
<mgrwt>
<rscale>  0 0.26537138E+04</rscale>
<asrwt>0</asrwt>
<pdfrwt beam="1">  1        2 0.20935400E+00 0.26537138E+04</pdfrwt>
<pdfrwt beam="2">  1       -2 0.19903992E+00 0.26537138E+04</pdfrwt>
<totfact> 0.18114460E+00</totfact>
</mgrwt>
</event>
<event>
 6    1  0.1585031E-006  0.2381873E+04  0.7818608E-02  0.8446321E-01
         -2   -1    0    0    0  501 -0.00000000000E+00  0.00000000000E+00  0.10226132104E+04  0.10226132104E+04  0.00000000000E+00 0.  1.
          2   -1    0    0  501    0  0.00000000000E+00 -0.00000000000E+00 -0.13869663591E+04  0.13869663591E+04  0.00000000000E+00 0. -1.
         23    2    1    2    0    0  0.40490033808E+02  0.17078737170E+03 -0.13722502211E+04  0.13865134535E+04  0.92418170631E+02 0.  0.
         13    1    3    3    0    0  0.68754559507E+02  0.10708182974E+03 -0.96295001013E+03  0.97132200105E+03  0.00000000000E+00 0. -1.
        -13    1    3    3    0    0 -0.28264525699E+02  0.63705541961E+02 -0.40930021097E+03  0.41519145246E+03  0.00000000000E+00 0.  1.
         22    1    1    2    0    0 -0.40490033808E+02 -0.17078737170E+03  0.10078970724E+04  0.10230661160E+04  0.00000000000E+00 0.  1.
<mgrwt>
<rscale>  0 0.23818733E+04</rscale>
<asrwt>0</asrwt>
<pdfrwt beam="1">  1        2 0.21337944E+00 0.23818733E+04</pdfrwt>
<pdfrwt beam="2">  1       -2 0.15732511E+00 0.23818733E+04</pdfrwt>
<totfact> 0.34966733E+00</totfact>
</mgrwt>
</event>
<event>
 6    1  0.1585031E-006  0.3776384E+04  0.7818608E-02  0.8051242E-01
          2   -1    0    0  501    0  0.00000000000E+00  0.00000000000E+00  0.30854678665E+04  0.30854678665E+04  0.00000000000E+00 0. -1.
         -2   -1    0    0    0  501 -0.00000000000E+00 -0.00000000000E+00 -0.11555037068E+04  0.11555037068E+04  0.00000000000E+00 0.  1.
         23    2    1    2    0    0  0.19886067073E+03  0.16404916723E+04 -0.57853972288E+02  0.16559803898E+04  0.90363022602E+02 0.  0.
         13    1    3    3    0    0  0.12574839573E+03  0.83374673273E+03  0.84677385176E+01  0.84321881855E+03  0.00000000000E+00 0.  1.
        -13    1    3    3    0    0  0.73112274992E+02  0.80674493959E+03 -0.66321710806E+02  0.81276157121E+03  0.00000000000E+00 0. -1.
         22    1    1    2    0    0 -0.19886067073E+03 -0.16404916723E+04  0.19878181319E+04  0.25849911835E+04  0.00000000000E+00 0.  1.
<mgrwt>
<rscale>  0 0.37763843E+04</rscale>
<asrwt>0</asrwt>
<pdfrwt beam="1">  1        2 0.47468736E+00 0.37763843E+04</pdfrwt>
<pdfrwt beam="2">  1       -2 0.17776980E+00 0.37763843E+04</pdfrwt>
<totfact> 0.23188827E-01</totfact>
</mgrwt>
</event>
<event>
 6    1  0.1585031E-006  0.3029560E+04  0.7818608E-02  0.8235340E-01
          1   -1    0    0  501    0  0.00000000000E+00  0.00000000000E+00  0.15555188776E+04  0.15555188776E+04  0.00000000000E+00 0. -1.
         -1   -1    0    0    0  501 -0.00000000000E+00 -0.00000000000E+00 -0.14751083246E+04  0.14751083246E+04  0.00000000000E+00 0.  1.
         23    2    1    2    0    0 -0.10480739595E+04  0.78419669043E+03  0.80007495560E+03  0.15368600429E+04  0.91626322973E+02 0.  0.
         11    1    3    3    0    0 -0.81402173903E+03  0.56423442052E+03  0.58503821886E+03  0.11503310786E+04  0.00000000000E+00 0. -1.
        -11    1    3    3    0    0 -0.23405222050E+03  0.21996226991E+03  0.21503673674E+03  0.38652896431E+03  0.00000000000E+00 0.  1.
         22    1    1    2    0    0  0.10480739595E+04 -0.78419669043E+03 -0.71966440262E+03  0.14937671593E+04  0.00000000000E+00 0.  1.
<mgrwt>
<rscale>  0 0.30295603E+04</rscale>
<asrwt>0</asrwt>
<pdfrwt beam="1">  1        1 0.23931060E+00 0.30295603E+04</pdfrwt>
<pdfrwt beam="2">  1       -1 0.22693974E+00 0.30295603E+04</pdfrwt>
<totfact> 0.50282595E-01</totfact>
</mgrwt>
</event>
<event>
 6    1  0.1585031E-006  0.1774157E+04  0.7818608E-02  0.8720164E-01
         -1   -1    0    0    0  501 -0.00000000000E+00  0.00000000000E+00  0.64980267489E+03  0.64980267489E+03  0.00000000000E+00 0.  1.
          1   -1    0    0  501    0  0.00000000000E+00 -0.00000000000E+00 -0.12109957275E+04  0.12109957275E+04  0.00000000000E+00 0. -1.
         23    2    1    2    0    0  0.61852362296E+02  0.15341601093E+03 -0.11929135412E+04  0.12077800544E+04  0.91256539174E+02 0.  0.
         11    1    3    3    0    0 -0.24118832591E+02  0.35187156013E+02 -0.28410240311E+03  0.28728736395E+03  0.00000000000E+00 0. -1.
        -11    1    3    3    0    0  0.85971194887E+02  0.11822885492E+03 -0.90881113806E+03  0.92049269044E+03  0.00000000000E+00 0.  1.
         22    1    1    2    0    0 -0.61852362296E+02 -0.15341601093E+03  0.63172048857E+03  0.65301834799E+03  0.00000000000E+00 0.  1.
<mgrwt>
<rscale>  0 0.17741570E+04</rscale>
<asrwt>0</asrwt>
<pdfrwt beam="1">  1        1 0.18630704E+00 0.17741570E+04</pdfrwt>
<pdfrwt beam="2">  1       -1 0.99969642E-01 0.17741570E+04</pdfrwt>
<totfact> 0.94624755E+00</totfact>
</mgrwt>
</event>
<event>
 6    1  0.1585031E-006  0.3283555E+04  0.7818608E-02  0.8167092E-01
         -1   -1    0    0    0  501 -0.00000000000E+00  0.00000000000E+00  0.14027689796E+04  0.14027689796E+04  0.00000000000E+00 0.  1.
          1   -1    0    0  501    0  0.00000000000E+00 -0.00000000000E+00 -0.19215089528E+04  0.19215089528E+04  0.00000000000E+00 0. -1.
         23    2    1    2    0    0 -0.39413638387E+03  0.81417201408E+03 -0.16451964825E+04  0.18795897913E+04  0.89256708395E+02 0.  0.
         13    1    3    3    0    0 -0.19698861192E+03  0.50730039877E+03 -0.98382410116E+03  0.11243078181E+04  0.00000000000E+00 0. -1.
        -13    1    3    3    0    0 -0.19714777195E+03  0.30687161531E+03 -0.66137238136E+03  0.75528197324E+03  0.00000000000E+00 0.  1.
         22    1    1    2    0    0  0.39413638387E+03 -0.81417201408E+03  0.11264565093E+04  0.14446881411E+04  0.00000000000E+00 0.  1.
<mgrwt>
<rscale>  0 0.32835549E+04</rscale>
<asrwt>0</asrwt>
<pdfrwt beam="1">  1        1 0.29561676E+00 0.32835549E+04</pdfrwt>
<pdfrwt beam="2">  1       -1 0.21581061E+00 0.32835549E+04</pdfrwt>
<totfact> 0.32867032E-01</totfact>
</mgrwt>
</event>
<event>
 6    1  0.1585031E-006  0.1927792E+04  0.7818608E-02  0.8641145E-01
          1   -1    0    0  501    0  0.00000000000E+00  0.00000000000E+00  0.99526227987E+03  0.99526227987E+03  0.00000000000E+00 0. -1.
         -1   -1    0    0    0  501 -0.00000000000E+00 -0.00000000000E+00 -0.93351793615E+03  0.93351793615E+03  0.00000000000E+00 0.  1.
         23    2    1    2    0    0  0.76352521459E+03  0.15037399188E+03 -0.53340546515E+03  0.94909333453E+03  0.10331348721E+03 0.  0.
         13    1    3    3    0    0  0.40621715788E+03  0.33341891411E+02 -0.24860241402E+03  0.47741724030E+03  0.00000000000E+00 0.  1.
        -13    1    3    3    0    0  0.35730805671E+03  0.11703210047E+03 -0.28480305114E+03  0.47167609423E+03  0.00000000000E+00 0. -1.
         22    1    1    2    0    0 -0.76352521459E+03 -0.15037399188E+03  0.59514980887E+03  0.97968688148E+03  0.00000000000E+00 0. -1.
<mgrwt>
<rscale>  0 0.19277917E+04</rscale>
<asrwt>0</asrwt>
<pdfrwt beam="1">  1        1 0.15311727E+00 0.19277917E+04</pdfrwt>
<pdfrwt beam="2">  1       -1 0.14361814E+00 0.19277917E+04</pdfrwt>
<totfact> 0.55832494E+00</totfact>
</mgrwt>
</event>
<event>
 6    1  0.1585031E-006  0.4167392E+04  0.7818608E-02  0.7971604E-01
         -1   -1    0    0    0  501 -0.00000000000E+00  0.00000000000E+00  0.12454272459E+04  0.12454272459E+04  0.00000000000E+00 0.  1.
          1   -1    0    0  501    0  0.00000000000E+00 -0.00000000000E+00 -0.34861839451E+04  0.34861839451E+04  0.00000000000E+00 0. -1.
         23    2    1    2    0    0 -0.63781536250E+03  0.12281318731E+04 -0.28880429955E+04  0.32038363766E+04  0.93052942010E+02 0.  0.
         11    1    3    3    0    0 -0.53464351811E+02  0.11315251925E+03 -0.32726131001E+03  0.35037393533E+03  0.00000000000E+00 0. -1.
        -11    1    3    3    0    0 -0.58435101069E+03  0.11149793538E+04 -0.25607816855E+04  0.28534624413E+04  0.00000000000E+00 0.  1.
         22    1    1    2    0    0  0.63781536250E+03 -0.12281318731E+04  0.64728629623E+03  0.15277748144E+04  0.00000000000E+00 0.  1.
<mgrwt>
<rscale>  0 0.41673917E+04</rscale>
<asrwt>0</asrwt>
<pdfrwt beam="1">  1        1 0.53633598E+00 0.41673917E+04</pdfrwt>
<pdfrwt beam="2">  1       -1 0.19160419E+00 0.41673917E+04</pdfrwt>
<totfact> 0.34011370E-02</totfact>
</mgrwt>
</event>
<event>
 6    1  0.1585031E-006  0.4861131E+04  0.7818608E-02  0.7850293E-01
          2   -1    0    0  501    0  0.00000000000E+00  0.00000000000E+00  0.30884447562E+04  0.30884447562E+04  0.00000000000E+00 0. -1.
         -2   -1    0    0    0  501 -0.00000000000E+00 -0.00000000000E+00 -0.19128232308E+04  0.19128232308E+04  0.00000000000E+00 0.  1.
         23    2    1    2    0    0 -0.76626248462E+03  0.16932179377E+04  0.21984186889E+04  0.28798865461E+04  0.80972878870E+02 0.  0.
         11    1    3    3    0    0 -0.17187511042E+03  0.45702318419E+03  0.55260358452E+03  0.73741573491E+03  0.00000000000E+00 0. -1.
        -11    1    3    3    0    0 -0.59438737420E+03  0.12361947535E+04  0.16458151043E+04  0.21424708112E+04  0.00000000000E+00 0.  1.
         22    1    1    2    0    0  0.76626248462E+03 -0.16932179377E+04 -0.10227971636E+04  0.21213814409E+04  0.00000000000E+00 0.  1.
<mgrwt>
<rscale>  0 0.48611311E+04</rscale>
<asrwt>0</asrwt>
<pdfrwt beam="1">  1        2 0.47514535E+00 0.48611311E+04</pdfrwt>
<pdfrwt beam="2">  1       -2 0.29428050E+00 0.48611311E+04</pdfrwt>
<totfact> 0.38788471E-02</totfact>
</mgrwt>
</event>
<event>
 6    1  0.1585031E-006  0.1667074E+04  0.7818608E-02  0.8780369E-01
         -2   -1    0    0    0  501 -0.00000000000E+00  0.00000000000E+00  0.12266585253E+04  0.12266585253E+04  0.00000000000E+00 0.  1.
          2   -1    0    0  501    0  0.00000000000E+00 -0.00000000000E+00 -0.56640390777E+03  0.56640390777E+03  0.00000000000E+00 0. -1.
         23    2    1    2    0    0  0.36319489246E+03  0.57880142641E+03 -0.17760891517E+03  0.71188857077E+03  0.91207397293E+02 0.  0.
         13    1    3    3    0    0  0.29682721570E+03  0.39597627439E+03 -0.12699124940E+03  0.51091132624E+03  0.00000000000E+00 0. -1.
        -13    1    3    3    0    0  0.66367676764E+02  0.18282515202E+03 -0.50617665764E+02  0.20097724452E+03  0.00000000000E+00 0.  1.
         22    1    1    2    0    0 -0.36319489246E+03 -0.57880142641E+03  0.83786353268E+03  0.10811738623E+04  0.00000000000E+00 0.  1.
<mgrwt>
<rscale>  0 0.16670743E+04</rscale>
<asrwt>0</asrwt>
<pdfrwt beam="1">  1        2 0.87139063E-01 0.16670743E+04</pdfrwt>
<pdfrwt beam="2">  1       -2 0.18871670E+00 0.16670743E+04</pdfrwt>
<totfact> 0.80105357E+00</totfact>
</mgrwt>
</event>
<event>
 6    1  0.1909505E-006  0.3079026E+04  0.7818608E-02  0.8221518E-01
          1   -1    0    0  501    0  0.00000000000E+00  0.00000000000E+00  0.11513585075E+04  0.11513585075E+04  0.00000000000E+00 0. -1.
         -1   -1    0    0    0  501 -0.00000000000E+00 -0.00000000000E+00 -0.20585256680E+04  0.20585256680E+04  0.00000000000E+00 0.  1.
         23    2    1    2    0    0  0.14219668370E+04 -0.58636738126E+03 -0.43897688610E+03  0.16020848956E+04  0.90326710819E+02 0.  0.
         13    1    3    3    0    0  0.10690986334E+04 -0.39809311263E+03 -0.32307718278E+03  0.11856765496E+04  0.00000000000E+00 0.  1.
        -13    1    3    3    0    0  0.35286820363E+03 -0.18827426864E+03 -0.11589970332E+03  0.41640834597E+03  0.00000000000E+00 0. -1.
         22    1    1    2    0    0 -0.14219668370E+04  0.58636738126E+03 -0.46819027439E+03  0.16077992799E+04  0.00000000000E+00 0. -1.
<mgrwt>
<rscale>  0 0.30790265E+04</rscale>
<asrwt>0</asrwt>
<pdfrwt beam="1">  1        1 0.17713208E+00 0.30790265E+04</pdfrwt>
<pdfrwt beam="2">  1       -1 0.31669626E+00 0.30790265E+04</pdfrwt>
<totfact> 0.25227931E-01</totfact>
</mgrwt>
</event>
<event>
 6    1  0.1585031E-006  0.8888549E+03  0.7818608E-02  0.9439622E-01
          1   -1    0    0  501    0  0.00000000000E+00  0.00000000000E+00  0.63988640114E+03  0.63988640114E+03  0.00000000000E+00 0. -1.
         -1   -1    0    0    0  501 -0.00000000000E+00 -0.00000000000E+00 -0.30867315639E+03  0.30867315639E+03  0.00000000000E+00 0.  1.
         23    2    1    2    0    0  0.72049470931E+02  0.26809485195E+03  0.53079421804E+03  0.60665527150E+03  0.96031977148E+02 0.  0.
         11    1    3    3    0    0  0.13991492048E+02  0.20173571306E+03  0.32512574232E+03  0.38288354377E+03  0.00000000000E+00 0.  1.
        -11    1    3    3    0    0  0.58057978883E+02  0.66359138889E+02  0.20566847572E+03  0.22377172773E+03  0.00000000000E+00 0. -1.
         22    1    1    2    0    0 -0.72049470931E+02 -0.26809485195E+03 -0.19958097329E+03  0.34190428603E+03  0.00000000000E+00 0.  1.
<mgrwt>
<rscale>  0 0.88885489E+03</rscale>
<asrwt>0</asrwt>
<pdfrwt beam="1">  1        1 0.98444061E-01 0.88885489E+03</pdfrwt>
<pdfrwt beam="2">  1       -1 0.47488178E-01 0.88885489E+03</pdfrwt>
<totfact> 0.13906274E+02</totfact>
</mgrwt>
</event>
<event>
 6    1  0.1585031E-006  0.3220463E+04  0.7818608E-02  0.8183434E-01
         -2   -1    0    0    0  501 -0.00000000000E+00  0.00000000000E+00  0.80277936224E+03  0.80277936224E+03  0.00000000000E+00 0.  1.
          2   -1    0    0  501    0  0.00000000000E+00 -0.00000000000E+00 -0.32298353259E+04  0.32298353259E+04  0.00000000000E+00 0. -1.
         23    2    1    2    0    0  0.13313030965E+04 -0.86506949710E+03 -0.15410367500E+04  0.22144443946E+04  0.90865516854E+02 0.  0.
         11    1    3    3    0    0  0.74931823281E+03 -0.47495648469E+03 -0.92201413909E+03  0.12795200464E+04  0.00000000000E+00 0. -1.
        -11    1    3    3    0    0  0.58198486369E+03 -0.39011301241E+03 -0.61902261091E+03  0.93492434819E+03  0.00000000000E+00 0.  1.
         22    1    1    2    0    0 -0.13313030965E+04  0.86506949710E+03 -0.88601921370E+03  0.18181702936E+04  0.00000000000E+00 0.  1.
<mgrwt>
<rscale>  0 0.32204628E+04</rscale>
<asrwt>0</asrwt>
<pdfrwt beam="1">  1        2 0.49689774E+00 0.32204628E+04</pdfrwt>
<pdfrwt beam="2">  1       -2 0.12350452E+00 0.32204628E+04</pdfrwt>
<totfact> 0.51448663E-01</totfact>
</mgrwt>
</event>
<event>
 6    1  0.1585031E-006  0.3250876E+04  0.7818608E-02  0.8175509E-01
          2   -1    0    0  501    0  0.00000000000E+00  0.00000000000E+00  0.29892932480E+04  0.29892932480E+04  0.00000000000E+00 0. -1.
         -2   -1    0    0    0  501 -0.00000000000E+00 -0.00000000000E+00 -0.88383741979E+03  0.88383741979E+03  0.00000000000E+00 0.  1.
         23    2    1    2    0    0 -0.21233928413E+03  0.13248317052E+04 -0.36842960373E+02  0.13453428764E+04  0.91230656344E+02 0.  0.
         11    1    3    3    0    0 -0.83939226365E+01  0.27477980253E+03 -0.18128547256E+02  0.27550506718E+03  0.00000000000E+00 0.  1.
        -11    1    3    3    0    0 -0.20394536150E+03  0.10500519027E+04 -0.18714413117E+02  0.10698378092E+04  0.00000000000E+00 0. -1.
         22    1    1    2    0    0  0.21233928413E+03 -0.13248317052E+04  0.21422987886E+04  0.25277877914E+04  0.00000000000E+00 0. -1.
<mgrwt>
<rscale>  0 0.32508763E+04</rscale>
<asrwt>0</asrwt>
<pdfrwt beam="1">  1        2 0.45989126E+00 0.32508763E+04</pdfrwt>
<pdfrwt beam="2">  1       -2 0.13597499E+00 0.32508763E+04</pdfrwt>
<totfact> 0.57389055E-01</totfact>
</mgrwt>
</event>
<event>
 6    1  0.1585031E-006  0.1763340E+04  0.7818608E-02  0.8726042E-01
          1   -1    0    0  501    0  0.00000000000E+00  0.00000000000E+00  0.40285782370E+03  0.40285782370E+03  0.00000000000E+00 0. -1.
         -1   -1    0    0    0  501 -0.00000000000E+00 -0.00000000000E+00 -0.19295681817E+04  0.19295681817E+04  0.00000000000E+00 0.  1.
         23    2    1    2    0    0 -0.48714701265E+03 -0.53605799075E+03 -0.14248209580E+04  0.16009536333E+04  0.90925200621E+02 0.  0.
         13    1    3    3    0    0 -0.22615428891E+03 -0.31577210192E+03 -0.77077620754E+03  0.86310702977E+03  0.00000000000E+00 0.  1.
        -13    1    3    3    0    0 -0.26099272375E+03 -0.22028588883E+03 -0.65404475047E+03  0.73784660349E+03  0.00000000000E+00 0. -1.
         22    1    1    2    0    0  0.48714701265E+03  0.53605799075E+03 -0.10188940000E+03  0.73147237215E+03  0.00000000000E+00 0. -1.
<mgrwt>
<rscale>  0 0.17633396E+04</rscale>
<asrwt>0</asrwt>
<pdfrwt beam="1">  1        1 0.61978127E-01 0.17633396E+04</pdfrwt>
<pdfrwt beam="2">  1       -1 0.29685664E+00 0.17633396E+04</pdfrwt>
<totfact> 0.19493231E+00</totfact>
</mgrwt>
</event>
<event>
 6    1  0.1585031E-006  0.3714738E+04  0.7818608E-02  0.8064704E-01
         -2   -1    0    0    0  501 -0.00000000000E+00  0.00000000000E+00  0.27937835966E+04  0.27937835966E+04  0.00000000000E+00 0.  1.
          2   -1    0    0  501    0  0.00000000000E+00 -0.00000000000E+00 -0.12348198513E+04  0.12348198513E+04  0.00000000000E+00 0. -1.
         23    2    1    2    0    0  0.11171149674E+03 -0.15526305886E+04  0.18763763161E+04  0.24399272873E+04  0.96518830338E+02 0.  0.
         11    1    3    3    0    0  0.97474972444E+02 -0.69566959490E+03  0.83221354219E+03  0.10890532289E+04  0.00000000000E+00 0.  1.
        -11    1    3    3    0    0  0.14236524296E+02 -0.85696099369E+03  0.10441627739E+04  0.13508740584E+04  0.00000000000E+00 0. -1.
         22    1    1    2    0    0 -0.11171149674E+03  0.15526305886E+04 -0.31741257088E+03  0.15886761606E+04  0.00000000000E+00 0. -1.
<mgrwt>
<rscale>  0 0.37147379E+04</rscale>
<asrwt>0</asrwt>
<pdfrwt beam="1">  1        2 0.18997229E+00 0.37147379E+04</pdfrwt>
<pdfrwt beam="2">  1       -2 0.42981286E+00 0.37147379E+04</pdfrwt>
<totfact> 0.68792882E-02</totfact>
</mgrwt>
</event>
<event>
 6    1  0.1585031E-006  0.2048206E+04  0.7818608E-02  0.8584409E-01
          1   -1    0    0  501    0  0.00000000000E+00  0.00000000000E+00  0.34543863669E+04  0.34543863669E+04  0.00000000000E+00 0. -1.
         -1   -1    0    0    0  501 -0.00000000000E+00 -0.00000000000E+00 -0.30361017366E+03  0.30361017366E+03  0.00000000000E+00 0.  1.
         23    2    1    2    0    0 -0.39295630229E+03  0.88547495887E+03  0.21765180480E+04  0.23840753303E+04  0.90021159616E+02 0.  0.
         13    1    3    3    0    0 -0.14829949606E+03  0.44243091667E+03  0.10203127286E+04  0.11219518353E+04  0.00000000000E+00 0. -1.
        -13    1    3    3    0    0 -0.24465680624E+03  0.44304404220E+03  0.11562053194E+04  0.12621234950E+04  0.00000000000E+00 0.  1.
         22    1    1    2    0    0  0.39295630229E+03 -0.88547495887E+03  0.97425814522E+03  0.13739212102E+04  0.00000000000E+00 0.  1.
<mgrwt>
<rscale>  0 0.20482059E+04</rscale>
<asrwt>0</asrwt>
<pdfrwt beam="1">  1        1 0.53144403E+00 0.20482059E+04</pdfrwt>
<pdfrwt beam="2">  1       -1 0.46709260E-01 0.20482059E+04</pdfrwt>
<totfact> 0.11491662E+00</totfact>
</mgrwt>
</event>
<event>
 6    1  0.1585031E-006  0.2534414E+04  0.7818608E-02  0.8390827E-01
          2   -1    0    0  501    0  0.00000000000E+00  0.00000000000E+00  0.19863725649E+04  0.19863725649E+04  0.00000000000E+00 0. -1.
         -2   -1    0    0    0  501 -0.00000000000E+00 -0.00000000000E+00 -0.80841479553E+03  0.80841479553E+03  0.00000000000E+00 0.  1.
         23    2    1    2    0    0  0.25982655813E+03  0.11536593350E+04  0.92494644976E+02  0.11895864708E+04  0.90116649881E+02 0.  0.
         13    1    3    3    0    0  0.87791407994E+02  0.57661026935E+03  0.64144114021E+02  0.58677184783E+03  0.00000000000E+00 0.  1.
        -13    1    3    3    0    0  0.17203515013E+03  0.57704906567E+03  0.28350530955E+02  0.60281462298E+03  0.00000000000E+00 0. -1.
         22    1    1    2    0    0 -0.25982655813E+03 -0.11536593350E+04  0.10854631244E+04  0.16052008896E+04  0.00000000000E+00 0. -1.
<mgrwt>
<rscale>  0 0.25344135E+04</rscale>
<asrwt>0</asrwt>
<pdfrwt beam="1">  1        2 0.30559578E+00 0.25344135E+04</pdfrwt>
<pdfrwt beam="2">  1       -2 0.12437151E+00 0.25344135E+04</pdfrwt>
<totfact> 0.29362400E+00</totfact>
</mgrwt>
</event>
<event>
 6    1  0.1585031E-006  0.2055290E+04  0.7818608E-02  0.8581198E-01
         -2   -1    0    0    0  501 -0.00000000000E+00  0.00000000000E+00  0.13088881535E+04  0.13088881535E+04  0.00000000000E+00 0. -1.
          2   -1    0    0  501    0  0.00000000000E+00 -0.00000000000E+00 -0.80683283700E+03  0.80683283700E+03  0.00000000000E+00 0.  1.
         23    2    1    2    0    0 -0.69423197755E+03 -0.64243274645E+03 -0.15650223661E+03  0.96316907275E+03  0.92324646135E+02 0.  0.
         11    1    3    3    0    0 -0.39957553211E+03 -0.35150707896E+03 -0.43542761779E+02  0.53396048967E+03  0.00000000000E+00 0. -1.
        -11    1    3    3    0    0 -0.29465644543E+03 -0.29092566749E+03 -0.11295947483E+03  0.42920858308E+03  0.00000000000E+00 0.  1.
         22    1    1    2    0    0  0.69423197755E+03  0.64243274645E+03  0.65855755311E+03  0.11525519178E+04  0.00000000000E+00 0. -1.
<mgrwt>
<rscale>  0 0.20552897E+04</rscale>
<asrwt>0</asrwt>
<pdfrwt beam="1">  1        2 0.12412813E+00 0.20552897E+04</pdfrwt>
<pdfrwt beam="2">  1       -2 0.20136741E+00 0.20552897E+04</pdfrwt>
<totfact> 0.41017691E+00</totfact>
</mgrwt>
</event>
<event>
 6    1  0.2652234E-006  0.5373637E+04  0.7818608E-02  0.7773320E-01
          2   -1    0    0  501    0  0.00000000000E+00  0.00000000000E+00  0.25514753096E+04  0.25514753096E+04  0.00000000000E+00 0. -1.
         -2   -1    0    0    0  501 -0.00000000000E+00 -0.00000000000E+00 -0.28293409271E+04  0.28293409271E+04  0.00000000000E+00 0.  1.
         23    2    1    2    0    0 -0.10900805988E+04 -0.11978355826E+04 -0.22846901115E+04  0.28019734063E+04  0.90334208233E+02 0.  0.
         13    1    3    3    0    0 -0.54534254817E+03 -0.58521081668E+03 -0.12046624283E+04  0.14460573160E+04  0.00000000000E+00 0. -1.
        -13    1    3    3    0    0 -0.54473805059E+03 -0.61262476594E+03 -0.10800276831E+04  0.13559160903E+04  0.00000000000E+00 0.  1.
         22    1    1    2    0    0  0.10900805988E+04  0.11978355826E+04  0.20068244940E+04  0.25788428305E+04  0.00000000000E+00 0. -1.
<mgrwt>
<rscale>  0 0.53736370E+04</rscale>
<asrwt>0</asrwt>
<pdfrwt beam="1">  1        2 0.39253466E+00 0.53736370E+04</pdfrwt>
<pdfrwt beam="2">  1       -2 0.43528322E+00 0.53736370E+04</pdfrwt>
<totfact> 0.10001910E-02</totfact>
</mgrwt>
</event>
<event>
 6    1  0.1585031E-006  0.1582091E+04  0.7818608E-02  0.8831626E-01
          1   -1    0    0  501    0  0.00000000000E+00  0.00000000000E+00  0.93483467629E+03  0.93483467629E+03  0.00000000000E+00 0. -1.
         -1   -1    0    0    0  501 -0.00000000000E+00 -0.00000000000E+00 -0.66937297454E+03  0.66937297454E+03  0.00000000000E+00 0.  1.
         23    2    1    2    0    0 -0.76802321992E+03  0.17691840392E+03  0.10723640836E+03  0.80034508082E+03  0.88841505761E+02 0.  0.
         13    1    3    3    0    0 -0.24396268100E+03  0.15837014865E+02  0.21436395754E+02  0.24541418016E+03  0.00000000000E+00 0.  1.
        -13    1    3    3    0    0 -0.52406053891E+03  0.16108138906E+03  0.85800012602E+02  0.55493090066E+03  0.00000000000E+00 0. -1.
         22    1    1    2    0    0  0.76802321992E+03 -0.17691840392E+03  0.15822529339E+03  0.80386257000E+03  0.00000000000E+00 0.  1.
<mgrwt>
<rscale>  0 0.15820911E+04</rscale>
<asrwt>0</asrwt>
<pdfrwt beam="1">  1        1 0.14382072E+00 0.15820911E+04</pdfrwt>
<pdfrwt beam="2">  1       -1 0.10298046E+00 0.15820911E+04</pdfrwt>
<totfact> 0.14594123E+01</totfact>
</mgrwt>
</event>
<event>
 6    1  0.1585031E-006  0.1126408E+04  0.7818608E-02  0.9179828E-01
         -2   -1    0    0    0  501 -0.00000000000E+00  0.00000000000E+00  0.15296332070E+03  0.15296332070E+03  0.00000000000E+00 0.  1.
          2   -1    0    0  501    0  0.00000000000E+00 -0.00000000000E+00 -0.20736927860E+04  0.20736927860E+04  0.00000000000E+00 0. -1.
         23    2    1    2    0    0  0.43252136107E+03 -0.91073291733E+02 -0.28787210821E+03  0.53503196971E+03  0.89553256143E+02 0.  0.
         11    1    3    3    0    0  0.36458308633E+03 -0.45565823190E+02 -0.25319563401E+03  0.44621194534E+03  0.00000000000E+00 0. -1.
        -11    1    3    3    0    0  0.67938274737E+02 -0.45507468543E+02 -0.34676474201E+02  0.88820024378E+02  0.00000000000E+00 0.  1.
         22    1    1    2    0    0 -0.43252136107E+03  0.91073291733E+02 -0.16328573571E+04  0.16916241370E+04  0.00000000000E+00 0. -1.
<mgrwt>
<rscale>  0 0.11264083E+04</rscale>
<asrwt>0</asrwt>
<pdfrwt beam="1">  1        2 0.31902964E+00 0.11264083E+04</pdfrwt>
<pdfrwt beam="2">  1       -2 0.23532820E-01 0.11264083E+04</pdfrwt>
<totfact> 0.96677725E+01</totfact>
</mgrwt>
</event>
<event>
 6    1  0.1585031E-006  0.3523605E+04  0.7818608E-02  0.8108219E-01
          2   -1    0    0  501    0  0.00000000000E+00  0.00000000000E+00  0.21490298608E+04  0.21490298608E+04  0.00000000000E+00 0. -1.
         -2   -1    0    0    0  501 -0.00000000000E+00 -0.00000000000E+00 -0.14443482806E+04  0.14443482806E+04  0.00000000000E+00 0.  1.
         23    2    1    2    0    0  0.11662551336E+04  0.12176524033E+04 -0.16444110910E+03  0.16964852449E+04  0.90514617157E+02 0.  0.
         11    1    3    3    0    0  0.36256563817E+03  0.42860857708E+03 -0.29722974223E+02  0.56217667110E+03  0.00000000000E+00 0.  1.
        -11    1    3    3    0    0  0.80368949539E+03  0.78904382621E+03 -0.13471813488E+03  0.11343085738E+04  0.00000000000E+00 0. -1.
         22    1    1    2    0    0 -0.11662551336E+04 -0.12176524033E+04  0.86912268935E+03  0.18968928965E+04  0.00000000000E+00 0. -1.
<mgrwt>
<rscale>  0 0.35236047E+04</rscale>
<asrwt>0</asrwt>
<pdfrwt beam="1">  1        2 0.33061998E+00 0.35236047E+04</pdfrwt>
<pdfrwt beam="2">  1       -2 0.22220743E+00 0.35236047E+04</pdfrwt>
<totfact> 0.43297024E-01</totfact>
</mgrwt>
</event>
<event>
 6    1  0.1585031E-006  0.1907378E+04  0.7818608E-02  0.8651193E-01
         -2   -1    0    0    0  501 -0.00000000000E+00  0.00000000000E+00  0.63074761154E+03  0.63074761154E+03  0.00000000000E+00 0. -1.
          2   -1    0    0  501    0  0.00000000000E+00 -0.00000000000E+00 -0.14419757881E+04  0.14419757881E+04  0.00000000000E+00 0.  1.
         23    2    1    2    0    0 -0.41734000262E+03  0.73668370639E+03 -0.87874992220E+03  0.12233502501E+04  0.86653607438E+02 0.  0.
         13    1    3    3    0    0 -0.33624752546E+03  0.51547899986E+03 -0.64171105303E+03  0.88914232452E+03  0.00000000000E+00 0. -1.
        -13    1    3    3    0    0 -0.81092477158E+02  0.22120470653E+03 -0.23703886917E+03  0.33420792561E+03  0.00000000000E+00 0.  1.
         22    1    1    2    0    0  0.41734000262E+03 -0.73668370639E+03  0.67521745613E+02  0.84937314955E+03  0.00000000000E+00 0.  1.
<mgrwt>
<rscale>  0 0.19073781E+04</rscale>
<asrwt>0</asrwt>
<pdfrwt beam="1">  1        2 0.22184243E+00 0.19073781E+04</pdfrwt>
<pdfrwt beam="2">  1       -2 0.97038095E-01 0.19073781E+04</pdfrwt>
<totfact> 0.11366832E+01</totfact>
</mgrwt>
</event>
<event>
 6    1  0.1585031E-006  0.3359038E+04  0.7818608E-02  0.8148034E-01
          2   -1    0    0  501    0  0.00000000000E+00  0.00000000000E+00  0.33374575930E+04  0.33374575930E+04  0.00000000000E+00 0. -1.
         -2   -1    0    0    0  501 -0.00000000000E+00 -0.00000000000E+00 -0.84518933000E+03  0.84518933000E+03  0.00000000000E+00 0.  1.
         23    2    1    2    0    0  0.10724108652E+04  0.95014745620E+03  0.15873028668E+03  0.14443546195E+04  0.90109437345E+02 0.  0.
         11    1    3    3    0    0  0.28858221780E+03  0.27332395253E+03  0.82516975017E+02  0.40594917247E+03  0.00000000000E+00 0. -1.
        -11    1    3    3    0    0  0.78382864741E+03  0.67682350366E+03  0.76213311661E+02  0.10384054471E+04  0.00000000000E+00 0.  1.
         22    1    1    2    0    0 -0.10724108652E+04 -0.95014745620E+03  0.23335379764E+04  0.27382923035E+04  0.00000000000E+00 0.  1.
<mgrwt>
<rscale>  0 0.33590377E+04</rscale>
<asrwt>0</asrwt>
<pdfrwt beam="1">  1        2 0.51345501E+00 0.33590377E+04</pdfrwt>
<pdfrwt beam="2">  1       -2 0.13002913E+00 0.33590377E+04</pdfrwt>
<totfact> 0.37881525E-01</totfact>
</mgrwt>
</event>
<event>
 6    1  0.1585031E-006  0.2673025E+04  0.7818608E-02  0.8343811E-01
         -2   -1    0    0    0  501 -0.00000000000E+00  0.00000000000E+00  0.24086556731E+04  0.24086556731E+04  0.00000000000E+00 0.  1.
          2   -1    0    0  501    0  0.00000000000E+00 -0.00000000000E+00 -0.74160268675E+03  0.74160268675E+03  0.00000000000E+00 0. -1.
         23    2    1    2    0    0  0.25726482565E+03 -0.11540322032E+04  0.10415136344E+03  0.11905040387E+04  0.92069772650E+02 0.  0.
         11    1    3    3    0    0  0.19887982314E+03 -0.74401684294E+03  0.97617121103E+02  0.77630106850E+03  0.00000000000E+00 0. -1.
        -11    1    3    3    0    0  0.58385002512E+02 -0.41001536026E+03  0.65342423343E+01  0.41420297016E+03  0.00000000000E+00 0.  1.
         22    1    1    2    0    0 -0.25726482565E+03  0.11540322032E+04  0.15629016229E+04  0.19597543212E+04  0.00000000000E+00 0.  1.
<mgrwt>
<rscale>  0 0.26730249E+04</rscale>
<asrwt>0</asrwt>
<pdfrwt beam="1">  1        2 0.11409272E+00 0.26730249E+04</pdfrwt>
<pdfrwt beam="2">  1       -2 0.37056241E+00 0.26730249E+04</pdfrwt>
<totfact> 0.38524395E-01</totfact>
</mgrwt>
</event>
<event>
 6    1  0.1585031E-006  0.6698044E+03  0.7818608E-02  0.9770311E-01
         -1   -1    0    0    0  501 -0.00000000000E+00  0.00000000000E+00  0.52596189119E+03  0.52596189119E+03  0.00000000000E+00 0.  1.
          1   -1    0    0  501    0  0.00000000000E+00 -0.00000000000E+00 -0.21324637557E+03  0.21324637557E+03  0.00000000000E+00 0. -1.
         23    2    1    2    0    0 -0.71460515586E+00 -0.30616839397E+03  0.27102076038E+02  0.32050236401E+03  0.90816555125E+02 0.  0.
         11    1    3    3    0    0 -0.85250428960E+01 -0.26995354862E+03  0.53079883260E+02  0.27525455269E+03  0.00000000000E+00 0. -1.
        -11    1    3    3    0    0  0.78104377402E+01 -0.36214845347E+02 -0.25977807222E+02  0.45247811320E+02  0.00000000000E+00 0.  1.
         22    1    1    2    0    0  0.71460515586E+00  0.30616839397E+03  0.28561343958E+03  0.41870590275E+03  0.00000000000E+00 0. -1.
<mgrwt>
<rscale>  0 0.66980435E+03</rscale>
<asrwt>0</asrwt>
<pdfrwt beam="1">  1        1 0.32807135E-01 0.66980435E+03</pdfrwt>
<pdfrwt beam="2">  1       -1 0.80917213E-01 0.66980435E+03</pdfrwt>
<totfact> 0.21149828E+02</totfact>
</mgrwt>
</event>
<event>
 6    1  0.1585031E-006  0.9107039E+03  0.7818608E-02  0.9412299E-01
         -1   -1    0    0    0  501 -0.00000000000E+00  0.00000000000E+00  0.57474152765E+03  0.57474152765E+03  0.00000000000E+00 0.  1.
          1   -1    0    0  501    0  0.00000000000E+00 -0.00000000000E+00 -0.36076287351E+03  0.36076287351E+03  0.00000000000E+00 0. -1.
         23    2    1    2    0    0  0.15329573001E+03 -0.42432532157E+03  0.10905310584E+03  0.47229717967E+03  0.87295398864E+02 0.  0.
         13    1    3    3    0    0  0.10899207085E+03 -0.21049267219E+03  0.88260595796E+02  0.25293550428E+03  0.00000000000E+00 0. -1.
        -13    1    3    3    0    0  0.44303659161E+02 -0.21383264938E+03  0.20792510043E+02  0.21936167539E+03  0.00000000000E+00 0.  1.
         22    1    1    2    0    0 -0.15329573001E+03  0.42432532157E+03  0.10492554830E+03  0.46320722150E+03  0.00000000000E+00 0.  1.
<mgrwt>
<rscale>  0 0.91070391E+03</rscale>
<asrwt>0</asrwt>
<pdfrwt beam="1">  1        1 0.55501981E-01 0.91070391E+03</pdfrwt>
<pdfrwt beam="2">  1       -1 0.88421773E-01 0.91070391E+03</pdfrwt>
<totfact> 0.87119529E+01</totfact>
</mgrwt>
</event>
<event>
 6    1  0.1585031E-006  0.3449972E+04  0.7818608E-02  0.8125749E-01
         -2   -1    0    0    0  501 -0.00000000000E+00  0.00000000000E+00  0.97568969277E+03  0.97568969277E+03  0.00000000000E+00 0.  1.
          2   -1    0    0  501    0  0.00000000000E+00 -0.00000000000E+00 -0.30497154819E+04  0.30497154819E+04  0.00000000000E+00 0. -1.
         23    2    1    2    0    0 -0.85164612828E+03 -0.12963237672E+04 -0.16048966020E+03  0.15622005640E+04  0.94642663744E+02 0.  0.
         13    1    3    3    0    0 -0.58636442205E+03 -0.96126781022E+03 -0.97213568580E+02  0.11301811874E+04  0.00000000000E+00 0.  1.
        -13    1    3    3    0    0 -0.26528170623E+03 -0.33505595700E+03 -0.63276091618E+02  0.43201937660E+03  0.00000000000E+00 0. -1.
         22    1    1    2    0    0  0.85164612828E+03  0.12963237672E+04 -0.19135361289E+04  0.24632046106E+04  0.00000000000E+00 0. -1.
<mgrwt>
<rscale>  0 0.34499716E+04</rscale>
<asrwt>0</asrwt>
<pdfrwt beam="1">  1        2 0.46918698E+00 0.34499716E+04</pdfrwt>
<pdfrwt beam="2">  1       -2 0.15010611E+00 0.34499716E+04</pdfrwt>
<totfact> 0.39939093E-01</totfact>
</mgrwt>
</event>
<event>
 6    1  0.1585031E-006  0.3057618E+04  0.7818608E-02  0.8227466E-01
          2   -1    0    0  501    0  0.00000000000E+00  0.00000000000E+00  0.18260093486E+04  0.18260093486E+04  0.00000000000E+00 0. -1.
         -2   -1    0    0    0  501 -0.00000000000E+00 -0.00000000000E+00 -0.12799807137E+04  0.12799807137E+04  0.00000000000E+00 0.  1.
         23    2    1    2    0    0  0.27656106716E+03 -0.11546200282E+03  0.17947677726E+04  0.18217911166E+04  0.88960760149E+02 0.  0.
         11    1    3    3    0    0  0.22542327846E+03 -0.65647443213E+02  0.11999105781E+04  0.12226653821E+04  0.00000000000E+00 0. -1.
        -11    1    3    3    0    0  0.51137788698E+02 -0.49814559603E+02  0.59485719456E+03  0.59912573447E+03  0.00000000000E+00 0.  1.
         22    1    1    2    0    0 -0.27656106716E+03  0.11546200282E+03 -0.12487391377E+04  0.12841989456E+04  0.00000000000E+00 0.  1.
<mgrwt>
<rscale>  0 0.30576179E+04</rscale>
<asrwt>0</asrwt>
<pdfrwt beam="1">  1        2 0.28092452E+00 0.30576179E+04</pdfrwt>
<pdfrwt beam="2">  1       -2 0.19692011E+00 0.30576179E+04</pdfrwt>
<totfact> 0.99118194E-01</totfact>
</mgrwt>
</event>
<event>
 6    1  0.1585031E-006  0.2850504E+04  0.7818608E-02  0.8287758E-01
         -1   -1    0    0    0  501 -0.00000000000E+00  0.00000000000E+00  0.88104946194E+03  0.88104946194E+03  0.00000000000E+00 0.  1.
          1   -1    0    0  501    0  0.00000000000E+00 -0.00000000000E+00 -0.23055952159E+04  0.23055952159E+04  0.00000000000E+00 0. -1.
         23    2    1    2    0    0  0.25655803346E+03  0.12989753510E+04 -0.12985854417E+04  0.18565976909E+04  0.86439860209E+02 0.  0.
         11    1    3    3    0    0  0.67979236157E+02  0.54768860964E+03 -0.51777669363E+03  0.75675405129E+03  0.00000000000E+00 0. -1.
        -11    1    3    3    0    0  0.18857879731E+03  0.75128674140E+03 -0.78080874804E+03  0.10998436396E+04  0.00000000000E+00 0.  1.
         22    1    1    2    0    0 -0.25655803346E+03 -0.12989753510E+04 -0.12596031229E+03  0.13300469869E+04  0.00000000000E+00 0.  1.
<mgrwt>
<rscale>  0 0.28505041E+04</rscale>
<asrwt>0</asrwt>
<pdfrwt beam="1">  1        1 0.35470695E+00 0.28505041E+04</pdfrwt>
<pdfrwt beam="2">  1       -1 0.13554607E+00 0.28505041E+04</pdfrwt>
<totfact> 0.72474740E-01</totfact>
</mgrwt>
</event>
<event>
 6    1  0.1585031E-006  0.2374956E+04  0.7818608E-02  0.8448939E-01
          1   -1    0    0  501    0  0.00000000000E+00  0.00000000000E+00  0.92957618572E+03  0.92957618572E+03  0.00000000000E+00 0. -1.
         -1   -1    0    0    0  501 -0.00000000000E+00 -0.00000000000E+00 -0.15169326423E+04  0.15169326423E+04  0.00000000000E+00 0.  1.
         23    2    1    2    0    0 -0.24818077156E+03 -0.29207407259E+03  0.86232918296E+03  0.94701244166E+03  0.79498337336E+02 0.  0.
         13    1    3    3    0    0 -0.11310097460E+03 -0.14453315956E+03  0.50774087802E+03  0.53989115929E+03  0.00000000000E+00 0.  1.
        -13    1    3    3    0    0 -0.13507979696E+03 -0.14754091303E+03  0.35458830493E+03  0.40712128237E+03  0.00000000000E+00 0. -1.
         22    1    1    2    0    0  0.24818077156E+03  0.29207407259E+03 -0.14496856396E+04  0.14994963864E+04  0.00000000000E+00 0.  1.
<mgrwt>
<rscale>  0 0.23749564E+04</rscale>
<asrwt>0</asrwt>
<pdfrwt beam="1">  1        1 0.14301172E+00 0.23749564E+04</pdfrwt>
<pdfrwt beam="2">  1       -1 0.23337425E+00 0.23749564E+04</pdfrwt>
<totfact> 0.13859280E+00</totfact>
</mgrwt>
</event>
<event>
 6    1  0.1585031E-006  0.3009142E+04  0.7818608E-02  0.8241125E-01
         -2   -1    0    0    0  501 -0.00000000000E+00  0.00000000000E+00  0.12848523980E+04  0.12848523980E+04  0.00000000000E+00 0.  1.
          2   -1    0    0  501    0  0.00000000000E+00 -0.00000000000E+00 -0.17618624312E+04  0.17618624312E+04  0.00000000000E+00 0. -1.
         23    2    1    2    0    0  0.45489587760E+03 -0.43208534579E+03 -0.16217044510E+04  0.17413592011E+04  0.93693838788E+02 0.  0.
         11    1    3    3    0    0  0.32358016590E+03 -0.24590664083E+03 -0.10545983097E+04  0.11301998914E+04  0.00000000000E+00 0.  1.
        -11    1    3    3    0    0  0.13131571170E+03 -0.18617870495E+03 -0.56710614129E+03  0.61115930968E+03  0.00000000000E+00 0. -1.
         22    1    1    2    0    0 -0.45489587760E+03  0.43208534579E+03  0.11446944179E+04  0.13053556281E+04  0.00000000000E+00 0.  1.
<mgrwt>
<rscale>  0 0.30091415E+04</rscale>
<asrwt>0</asrwt>
<pdfrwt beam="1">  1        2 0.27105576E+00 0.30091415E+04</pdfrwt>
<pdfrwt beam="2">  1       -2 0.19766960E+00 0.30091415E+04</pdfrwt>
<totfact> 0.10679401E+00</totfact>
</mgrwt>
</event>
<event>
 6    1  0.1585031E-006  0.1366343E+04  0.7818608E-02  0.8978548E-01
          2   -1    0    0  501    0  0.00000000000E+00  0.00000000000E+00  0.82022696662E+03  0.82022696662E+03  0.00000000000E+00 0. -1.
         -2   -1    0    0    0  501 -0.00000000000E+00 -0.00000000000E+00 -0.56901723738E+03  0.56901723738E+03  0.00000000000E+00 0.  1.
         23    2    1    2    0    0  0.48838386568E+03  0.16645827725E+03  0.57642141874E+03  0.77933453748E+03  0.94199315305E+02 0.  0.
         13    1    3    3    0    0  0.32795384972E+03  0.63995657426E+02  0.36835045962E+03  0.49732407223E+03  0.00000000000E+00 0. -1.
        -13    1    3    3    0    0  0.16043001596E+03  0.10246261982E+03  0.20807095912E+03  0.28201046525E+03  0.00000000000E+00 0.  1.
         22    1    1    2    0    0 -0.48838386568E+03 -0.16645827725E+03 -0.32521168950E+03  0.60990966652E+03  0.00000000000E+00 0.  1.
<mgrwt>
<rscale>  0 0.13663430E+04</rscale>
<asrwt>0</asrwt>
<pdfrwt beam="1">  1        2 0.12618876E+00 0.13663430E+04</pdfrwt>
<pdfrwt beam="2">  1       -2 0.87541113E-01 0.13663430E+04</pdfrwt>
<totfact> 0.36622501E+01</totfact>
</mgrwt>
</event>
<event>
 6    1  0.1585031E-006  0.4524402E+04  0.7818608E-02  0.7906379E-01
          2   -1    0    0  501    0  0.00000000000E+00  0.00000000000E+00  0.40400668662E+04  0.40400668662E+04  0.00000000000E+00 0. -1.
         -2   -1    0    0    0  501 -0.00000000000E+00 -0.00000000000E+00 -0.12667001624E+04  0.12667001624E+04  0.00000000000E+00 0.  1.
         23    2    1    2    0    0 -0.18992012202E+04 -0.85944844594E+03  0.24151744778E+04  0.31916030688E+04  0.87438458139E+02 0.  0.
         13    1    3    3    0    0 -0.13698577255E+04 -0.62357524062E+03  0.18025482678E+04  0.23483050327E+04  0.00000000000E+00 0. -1.
        -13    1    3    3    0    0 -0.52934349476E+03 -0.23587320533E+03  0.61262621000E+03  0.84329803606E+03  0.00000000000E+00 0.  1.
         22    1    1    2    0    0  0.18992012202E+04  0.85944844594E+03  0.35819222599E+03  0.21151639598E+04  0.00000000000E+00 0.  1.
<mgrwt>
<rscale>  0 0.45244020E+04</rscale>
<asrwt>0</asrwt>
<pdfrwt beam="1">  1        2 0.62154874E+00 0.45244020E+04</pdfrwt>
<pdfrwt beam="2">  1       -2 0.19487695E+00 0.45244020E+04</pdfrwt>
<totfact> 0.34348949E-02</totfact>
</mgrwt>
</event>
<event>
 6    1  0.1585031E-006  0.3007331E+04  0.7818608E-02  0.8241640E-01
          2   -1    0    0  501    0  0.00000000000E+00  0.00000000000E+00  0.79397760295E+03  0.79397760295E+03  0.00000000000E+00 0. -1.
         -2   -1    0    0    0  501 -0.00000000000E+00 -0.00000000000E+00 -0.28477004363E+04  0.28477004363E+04  0.00000000000E+00 0.  1.
         23    2    1    2    0    0  0.93583462154E+03  0.63841493888E+03  0.16700047845E+03  0.11486934624E+04  0.90815404058E+02 0.  0.
         11    1    3    3    0    0  0.63990645899E+03  0.40159248574E+03  0.14310057987E+03  0.76891779588E+03  0.00000000000E+00 0.  1.
        -11    1    3    3    0    0  0.29592816254E+03  0.23682245314E+03  0.23899898587E+02  0.37977566648E+03  0.00000000000E+00 0. -1.
         22    1    1    2    0    0 -0.93583462154E+03 -0.63841493888E+03 -0.22207233118E+04  0.24929845769E+04  0.00000000000E+00 0.  1.
<mgrwt>
<rscale>  0 0.30073313E+04</rscale>
<asrwt>0</asrwt>
<pdfrwt beam="1">  1        2 0.12215040E+00 0.30073313E+04</pdfrwt>
<pdfrwt beam="2">  1       -2 0.43810776E+00 0.30073313E+04</pdfrwt>
<totfact> 0.12369267E-01</totfact>
</mgrwt>
</event>
<event>
 6    1  0.1585031E-006  0.3859276E+04  0.7818608E-02  0.8033553E-01
          2   -1    0    0  501    0  0.00000000000E+00  0.00000000000E+00  0.32529374667E+04  0.32529374667E+04  0.00000000000E+00 0. -1.
         -2   -1    0    0    0  501 -0.00000000000E+00 -0.00000000000E+00 -0.11446584862E+04  0.11446584862E+04  0.00000000000E+00 0.  1.
         23    2    1    2    0    0  0.26457059471E+03  0.14775973584E+04  0.24349374049E+04  0.28613676888E+04  0.72203401321E+02 0.  0.
         13    1    3    3    0    0  0.10149004983E+03  0.71378165041E+03  0.12166305522E+04  0.14142045026E+04  0.00000000000E+00 0.  1.
        -13    1    3    3    0    0  0.16308054488E+03  0.76381570803E+03  0.12183068528E+04  0.14471631862E+04  0.00000000000E+00 0. -1.
         22    1    1    2    0    0 -0.26457059471E+03 -0.14775973584E+04 -0.32665842445E+03  0.15362282641E+04  0.00000000000E+00 0.  1.
<mgrwt>
<rscale>  0 0.38592758E+04</rscale>
<asrwt>0</asrwt>
<pdfrwt beam="1">  1        2 0.50045191E+00 0.38592758E+04</pdfrwt>
<pdfrwt beam="2">  1       -2 0.17610131E+00 0.38592758E+04</pdfrwt>
<totfact> 0.18413763E-01</totfact>
</mgrwt>
</event>
<event>
 6    1  0.2375641E-006  0.4721805E+04  0.7818608E-02  0.7872916E-01
         -2   -1    0    0    0  501 -0.00000000000E+00  0.00000000000E+00  0.15817998055E+04  0.15817998055E+04  0.00000000000E+00 0.  1.
          2   -1    0    0  501    0  0.00000000000E+00 -0.00000000000E+00 -0.35237459211E+04  0.35237459211E+04  0.00000000000E+00 0. -1.
         23    2    1    2    0    0 -0.16506472156E+04  0.12773089246E+04 -0.21624679956E+04  0.30067879466E+04  0.91387112938E+02 0.  0.
         13    1    3    3    0    0 -0.11546524190E+04  0.86553392766E+03 -0.14423888238E+04  0.20403079933E+04  0.00000000000E+00 0. -1.
        -13    1    3    3    0    0 -0.49599479668E+03  0.41177499697E+03 -0.72007917174E+03  0.96647995325E+03  0.00000000000E+00 0.  1.
         22    1    1    2    0    0  0.16506472156E+04 -0.12773089246E+04  0.22052187999E+03  0.20987577800E+04  0.00000000000E+00 0.  1.
<mgrwt>
<rscale>  0 0.47218050E+04</rscale>
<asrwt>0</asrwt>
<pdfrwt beam="1">  1        2 0.54211475E+00 0.47218050E+04</pdfrwt>
<pdfrwt beam="2">  1       -2 0.24335382E+00 0.47218050E+04</pdfrwt>
<totfact> 0.41035605E-02</totfact>
</mgrwt>
</event>
<event>
 6    1  0.1585031E-006  0.3009811E+04  0.7818608E-02  0.8240935E-01
         -1   -1    0    0    0  501 -0.00000000000E+00  0.00000000000E+00  0.95339775761E+03  0.95339775761E+03  0.00000000000E+00 0.  1.
          1   -1    0    0  501    0  0.00000000000E+00 -0.00000000000E+00 -0.23754411944E+04  0.23754411944E+04  0.00000000000E+00 0. -1.
         23    2    1    2    0    0 -0.82903083748E+03 -0.68016521041E+03  0.45394930122E+03  0.11679906010E+04  0.90637922717E+02 0.  0.
         13    1    3    3    0    0 -0.66621076713E+03 -0.52012776776E+03  0.32315103979E+03  0.90487362408E+03  0.00000000000E+00 0. -1.
        -13    1    3    3    0    0 -0.16282007035E+03 -0.16003744265E+03  0.13079826143E+03  0.26311697693E+03  0.00000000000E+00 0.  1.
         22    1    1    2    0    0  0.82903083748E+03  0.68016521041E+03 -0.18759927380E+04  0.21608483510E+04  0.00000000000E+00 0. -1.
<mgrwt>
<rscale>  0 0.30098108E+04</rscale>
<asrwt>0</asrwt>
<pdfrwt beam="1">  1        1 0.36545249E+00 0.30098108E+04</pdfrwt>
<pdfrwt beam="2">  1       -1 0.14667658E+00 0.30098108E+04</pdfrwt>
<totfact> 0.52032350E-01</totfact>
</mgrwt>
</event>
<event>
 6    1  0.1585031E-006  0.1872350E+04  0.7818608E-02  0.8668743E-01
          1   -1    0    0  501    0  0.00000000000E+00  0.00000000000E+00  0.79486105785E+03  0.79486105785E+03  0.00000000000E+00 0. -1.
         -1   -1    0    0    0  501 -0.00000000000E+00 -0.00000000000E+00 -0.11026128740E+04  0.11026128740E+04  0.00000000000E+00 0.  1.
         23    2    1    2    0    0  0.46615035793E+03 -0.15607656312E+03  0.65029464152E+03  0.82066890549E+03  0.94648200710E+02 0.  0.
         13    1    3    3    0    0  0.67937007141E+02 -0.48734273196E+02  0.15528051833E+03  0.17635902499E+03  0.00000000000E+00 0. -1.
        -13    1    3    3    0    0  0.39821335078E+03 -0.10734228992E+03  0.49501412319E+03  0.64430988050E+03  0.00000000000E+00 0.  1.
         22    1    1    2    0    0 -0.46615035793E+03  0.15607656312E+03 -0.95804645769E+03  0.10768050264E+04  0.00000000000E+00 0.  1.
<mgrwt>
<rscale>  0 0.18723504E+04</rscale>
<asrwt>0</asrwt>
<pdfrwt beam="1">  1        1 0.12228632E+00 0.18723504E+04</pdfrwt>
<pdfrwt beam="2">  1       -1 0.16963275E+00 0.18723504E+04</pdfrwt>
<totfact> 0.51872312E+00</totfact>
</mgrwt>
</event>
<event>
 6    1  0.1585031E-006  0.3114619E+04  0.7818608E-02  0.8211737E-01
         -1   -1    0    0    0  501 -0.00000000000E+00  0.00000000000E+00  0.17514586924E+04  0.17514586924E+04  0.00000000000E+00 0.  1.
          1   -1    0    0  501    0  0.00000000000E+00 -0.00000000000E+00 -0.13846814718E+04  0.13846814718E+04  0.00000000000E+00 0. -1.
         23    2    1    2    0    0 -0.95281469098E+03  0.86706271010E+03 -0.69509728622E+03  0.14666399255E+04  0.90657902362E+02 0.  0.
         13    1    3    3    0    0 -0.52833406946E+03  0.53578464748E+03 -0.42616091170E+03  0.86476308900E+03  0.00000000000E+00 0.  1.
        -13    1    3    3    0    0 -0.42448062152E+03  0.33127806262E+03 -0.26893637451E+03  0.60187683653E+03  0.00000000000E+00 0. -1.
         22    1    1    2    0    0  0.95281469098E+03 -0.86706271010E+03  0.10618745068E+04  0.16695002386E+04  0.00000000000E+00 0.  1.
<mgrwt>
<rscale>  0 0.31146187E+04</rscale>
<asrwt>0</asrwt>
<pdfrwt beam="1">  1        1 0.21302792E+00 0.31146187E+04</pdfrwt>
<pdfrwt beam="2">  1       -1 0.26945518E+00 0.31146187E+04</pdfrwt>
<totfact> 0.34574635E-01</totfact>
</mgrwt>
</event>
<event>
 6    1  0.1981720E-006  0.2701624E+04  0.7818608E-02  0.8334478E-01
         -4   -1    0    0    0  501 -0.00000000000E+00  0.00000000000E+00  0.13077367427E+04  0.13077367427E+04  0.00000000000E+00 0.  1.
          4   -1    0    0  501    0  0.00000000000E+00 -0.00000000000E+00 -0.13953056419E+04  0.13953056419E+04  0.00000000000E+00 0. -1.
         23    2    1    2    0    0  0.25383641208E+03 -0.42637302016E+03  0.12118022115E+04  0.13121462132E+04  0.83882110908E+02 0.  0.
         13    1    3    3    0    0  0.12317406888E+03 -0.28207558421E+03  0.70605376792E+03  0.77022750512E+03  0.00000000000E+00 0. -1.
        -13    1    3    3    0    0  0.13066234321E+03 -0.14429743595E+03  0.50574844359E+03  0.54191870806E+03  0.00000000000E+00 0.  1.
         22    1    1    2    0    0 -0.25383641208E+03  0.42637302016E+03 -0.12993711107E+04  0.13908961714E+04  0.00000000000E+00 0. -1.
<mgrwt>
<rscale>  0 0.27016236E+04</rscale>
<asrwt>0</asrwt>
<pdfrwt beam="1">  1        4 0.21466241E+00 0.27016236E+04</pdfrwt>
<pdfrwt beam="2">  1       -4 0.20119027E+00 0.27016236E+04</pdfrwt>
<totfact> 0.23820515E-02</totfact>
</mgrwt>
</event>
<event>
 6    1  0.1585031E-006  0.3042519E+04  0.7818608E-02  0.8231692E-01
          2   -1    0    0  501    0  0.00000000000E+00  0.00000000000E+00  0.13466448328E+04  0.13466448328E+04  0.00000000000E+00 0. -1.
         -2   -1    0    0    0  501 -0.00000000000E+00 -0.00000000000E+00 -0.17185163815E+04  0.17185163815E+04  0.00000000000E+00 0.  1.
         23    2    1    2    0    0 -0.17554045529E+02 -0.70079772784E+03  0.11724083818E+04  0.13692171988E+04  0.93748194747E+02 0.  0.
         13    1    3    3    0    0  0.53286387951E+01 -0.13647139644E+02  0.72800615376E+01  0.16359648769E+02  0.00000000000E+00 0. -1.
        -13    1    3    3    0    0 -0.22882684324E+02 -0.68715058819E+03  0.11651283202E+04  0.13528575500E+04  0.00000000000E+00 0.  1.
         22    1    1    2    0    0  0.17554045529E+02  0.70079772784E+03 -0.15442799305E+04  0.16959440155E+04  0.00000000000E+00 0.  1.
<mgrwt>
<rscale>  0 0.30425195E+04</rscale>
<asrwt>0</asrwt>
<pdfrwt beam="1">  1        2 0.20717613E+00 0.30425195E+04</pdfrwt>
<pdfrwt beam="2">  1       -2 0.26438714E+00 0.30425195E+04</pdfrwt>
<totfact> 0.69488944E-01</totfact>
</mgrwt>
</event>
<event>
 6    1  0.1585031E-006  0.7261658E+03  0.7818608E-02  0.9673503E-01
          2   -1    0    0  501    0  0.00000000000E+00  0.00000000000E+00  0.56538003835E+03  0.56538003835E+03  0.00000000000E+00 0. -1.
         -2   -1    0    0    0  501 -0.00000000000E+00 -0.00000000000E+00 -0.23316915592E+03  0.23316915592E+03  0.00000000000E+00 0.  1.
         23    2    1    2    0    0  0.12124401938E+03  0.33615778457E+03  0.16033481741E+03  0.40200972576E+03  0.90567088785E+02 0.  0.
         13    1    3    3    0    0  0.33665928815E+02  0.16931273611E+03  0.11734529014E+03  0.20873455509E+03  0.00000000000E+00 0.  1.
        -13    1    3    3    0    0  0.87578090566E+02  0.16684504845E+03  0.42989527273E+02  0.19327517067E+03  0.00000000000E+00 0. -1.
         22    1    1    2    0    0 -0.12124401938E+03 -0.33615778457E+03  0.17187606502E+03  0.39653946851E+03  0.00000000000E+00 0.  1.
<mgrwt>
<rscale>  0 0.72616578E+03</rscale>
<asrwt>0</asrwt>
<pdfrwt beam="1">  1        2 0.86981544E-01 0.72616578E+03</pdfrwt>
<pdfrwt beam="2">  1       -2 0.35872178E-01 0.72616578E+03</pdfrwt>
<totfact> 0.39196908E+02</totfact>
</mgrwt>
</event>
<event>
 6    1  0.1585031E-006  0.2921927E+03  0.7818608E-02  0.1089210E+00
         -1   -1    0    0    0  501 -0.00000000000E+00  0.00000000000E+00  0.14609952487E+02  0.14609952487E+02  0.00000000000E+00 0.  1.
          1   -1    0    0  501    0  0.00000000000E+00 -0.00000000000E+00 -0.14609321439E+04  0.14609321439E+04  0.00000000000E+00 0. -1.
         23    2    1    2    0    0 -0.37649415044E+02  0.34904592975E+02 -0.14069016401E+04  0.14108135175E+04  0.91579184968E+02 0.  0.
         13    1    3    3    0    0 -0.42905808335E+02  0.40573436480E+02 -0.13970181847E+04  0.13982656831E+04  0.00000000000E+00 0.  1.
        -13    1    3    3    0    0  0.52563932911E+01 -0.56688435048E+01 -0.98834554052E+01  0.12547834389E+02  0.00000000000E+00 0. -1.
         22    1    1    2    0    0  0.37649415044E+02 -0.34904592975E+02 -0.39420551360E+02  0.64728578954E+02  0.00000000000E+00 0.  1.
<mgrwt>
<rscale>  0 0.29219274E+03</rscale>
<asrwt>0</asrwt>
<pdfrwt beam="1">  1        1 0.22475892E+00 0.29219274E+03</pdfrwt>
<pdfrwt beam="2">  1       -1 0.22476837E-02 0.29219274E+03</pdfrwt>
<totfact> 0.43923870E+03</totfact>
</mgrwt>
</event>
<event>
 6    1  0.1585031E-006  0.1373638E+04  0.7818608E-02  0.8973125E-01
          2   -1    0    0  501    0  0.00000000000E+00  0.00000000000E+00  0.31094652737E+04  0.31094652737E+04  0.00000000000E+00 0. -1.
         -2   -1    0    0    0  501 -0.00000000000E+00 -0.00000000000E+00 -0.15170471151E+03  0.15170471151E+03  0.00000000000E+00 0.  1.
         23    2    1    2    0    0 -0.59513905304E+03 -0.15835576184E+03  0.77594039133E+03  0.99410000444E+03  0.82971610646E+02 0.  0.
         13    1    3    3    0    0 -0.14201526891E+03 -0.74674887926E+02  0.21079064026E+03  0.26491011591E+03  0.00000000000E+00 0. -1.
        -13    1    3    3    0    0 -0.45312378412E+03 -0.83680873919E+02  0.56514975107E+03  0.72918988853E+03  0.00000000000E+00 0.  1.
         22    1    1    2    0    0  0.59513905304E+03  0.15835576184E+03  0.21818201708E+04  0.22670699808E+04  0.00000000000E+00 0. -1.
<mgrwt>
<rscale>  0 0.13736383E+04</rscale>
<asrwt>0</asrwt>
<pdfrwt beam="1">  1        2 0.47837923E+00 0.13736383E+04</pdfrwt>
<pdfrwt beam="2">  1       -2 0.23339189E-01 0.13736383E+04</pdfrwt>
<totfact> 0.23773047E+01</totfact>
</mgrwt>
</event>
<event>
 6    1  0.1585031E-006  0.2782852E+04  0.7818608E-02  0.8308612E-01
          1   -1    0    0  501    0  0.00000000000E+00  0.00000000000E+00  0.31423697237E+04  0.31423697237E+04  0.00000000000E+00 0. -1.
         -1   -1    0    0    0  501 -0.00000000000E+00 -0.00000000000E+00 -0.61611669448E+03  0.61611669448E+03  0.00000000000E+00 0.  1.
         23    2    1    2    0    0 -0.99828123034E+03  0.40728427180E+03  0.80649782350E+02  0.10857684881E+04  0.99714238412E+02 0.  0.
         13    1    3    3    0    0 -0.23706677018E+03  0.13051270003E+03 -0.95895096624E+01  0.27078806674E+03  0.00000000000E+00 0. -1.
        -13    1    3    3    0    0 -0.76121446016E+03  0.27677157177E+03  0.90239292012E+02  0.81498042131E+03  0.00000000000E+00 0.  1.
         22    1    1    2    0    0  0.99828123034E+03 -0.40728427180E+03  0.24456032468E+04  0.26727179301E+04  0.00000000000E+00 0. -1.
<mgrwt>
<rscale>  0 0.27828521E+04</rscale>
<asrwt>0</asrwt>
<pdfrwt beam="1">  1        1 0.48344149E+00 0.27828521E+04</pdfrwt>
<pdfrwt beam="2">  1       -1 0.94787186E-01 0.27828521E+04</pdfrwt>
<totfact> 0.43774285E-01</totfact>
</mgrwt>
</event>
<event>
 6    1  0.1585031E-006  0.2939334E+04  0.7818608E-02  0.8261270E-01
          2   -1    0    0  501    0  0.00000000000E+00  0.00000000000E+00  0.93803329790E+03  0.93803329790E+03  0.00000000000E+00 0. -1.
         -2   -1    0    0    0  501 -0.00000000000E+00 -0.00000000000E+00 -0.23026060062E+04  0.23026060062E+04  0.00000000000E+00 0.  1.
         23    2    1    2    0    0 -0.18629621668E+03  0.12480477452E+04 -0.15104830668E+04  0.19703561517E+04  0.91732298080E+02 0.  0.
         13    1    3    3    0    0 -0.11799886657E+03  0.87805834861E+03 -0.11209765012E+04  0.14288101736E+04  0.00000000000E+00 0. -1.
        -13    1    3    3    0    0 -0.68297350111E+02  0.36998939663E+03 -0.38950656567E+03  0.54154597806E+03  0.00000000000E+00 0.  1.
         22    1    1    2    0    0  0.18629621668E+03 -0.12480477452E+04  0.14591035848E+03  0.12702831525E+04  0.00000000000E+00 0.  1.
<mgrwt>
<rscale>  0 0.29393340E+04</rscale>
<asrwt>0</asrwt>
<pdfrwt beam="1">  1        2 0.14431281E+00 0.29393340E+04</pdfrwt>
<pdfrwt beam="2">  1       -2 0.35424708E+00 0.29393340E+04</pdfrwt>
<totfact> 0.34782313E-01</totfact>
</mgrwt>
</event>
<event>
 6    1  0.1585031E-006  0.3492848E+04  0.7818608E-02  0.8115487E-01
         -3   -1    0    0    0  501 -0.00000000000E+00  0.00000000000E+00  0.13459451039E+04  0.13459451039E+04  0.00000000000E+00 0.  1.
          3   -1    0    0  501    0  0.00000000000E+00 -0.00000000000E+00 -0.22660632489E+04  0.22660632489E+04  0.00000000000E+00 0. -1.
         23    2    1    2    0    0  0.49907435964E+03  0.16412602259E+04 -0.79216823489E+03  0.18917811803E+04  0.92169279514E+02 0.  0.
         11    1    3    3    0    0  0.10717498265E+03  0.44530238324E+03 -0.24529463474E+03  0.51956726924E+03  0.00000000000E+00 0. -1.
        -11    1    3    3    0    0  0.39189937699E+03  0.11959578427E+04 -0.54687360015E+03  0.13722139110E+04  0.00000000000E+00 0.  1.
         22    1    1    2    0    0 -0.49907435964E+03 -0.16412602259E+04 -0.12794991008E+03  0.17202271725E+04  0.00000000000E+00 0. -1.
<mgrwt>
<rscale>  0 0.34928480E+04</rscale>
<asrwt>0</asrwt>
<pdfrwt beam="1">  1        3 0.34862511E+00 0.34928480E+04</pdfrwt>
<pdfrwt beam="2">  1       -3 0.20706848E+00 0.34928480E+04</pdfrwt>
<totfact> 0.58940419E-03</totfact>
</mgrwt>
</event>
<event>
 6    1  0.1585031E-006  0.7619365E+03  0.7818608E-02  0.9616808E-01
         -2   -1    0    0    0  501 -0.00000000000E+00  0.00000000000E+00  0.26150916869E+03  0.26150916869E+03  0.00000000000E+00 0.  1.
          2   -1    0    0  501    0  0.00000000000E+00 -0.00000000000E+00 -0.55499696513E+03  0.55499696513E+03  0.00000000000E+00 0. -1.
         23    2    1    2    0    0 -0.19745457392E+03 -0.19543080501E+03  0.12113953376E+03  0.31740961886E+03  0.94300430532E+02 0.  0.
         11    1    3    3    0    0 -0.19765701411E+02  0.10839513794E+01  0.32470658239E+02  0.38028956722E+02  0.00000000000E+00 0.  1.
        -11    1    3    3    0    0 -0.17768887251E+03 -0.19651475639E+03  0.88668875516E+02  0.27938066214E+03  0.00000000000E+00 0. -1.
         22    1    1    2    0    0  0.19745457392E+03  0.19543080501E+03 -0.41462733019E+03  0.49909651496E+03  0.00000000000E+00 0. -1.
<mgrwt>
<rscale>  0 0.76193647E+03</rscale>
<asrwt>0</asrwt>
<pdfrwt beam="1">  1        2 0.85384147E-01 0.76193647E+03</pdfrwt>
<pdfrwt beam="2">  1       -2 0.40232181E-01 0.76193647E+03</pdfrwt>
<totfact> 0.32068898E+02</totfact>
</mgrwt>
</event>
<event>
 6    1  0.1585031E-006  0.2950761E+04  0.7818608E-02  0.8257933E-01
         -1   -1    0    0    0  501 -0.00000000000E+00  0.00000000000E+00  0.67604367992E+03  0.67604367992E+03  0.00000000000E+00 0.  1.
          1   -1    0    0  501    0  0.00000000000E+00 -0.00000000000E+00 -0.32198328289E+04  0.32198328289E+04  0.00000000000E+00 0. -1.
         23    2    1    2    0    0  0.63292807908E+03 -0.77577410041E+03 -0.27013374054E+04  0.28823456207E+04  0.90934541009E+02 0.  0.
         11    1    3    3    0    0  0.21363499620E+03 -0.32278789269E+03 -0.97929898043E+03  0.10530234700E+04  0.00000000000E+00 0.  1.
        -11    1    3    3    0    0  0.41929308288E+03 -0.45298620773E+03 -0.17220384250E+04  0.18293221507E+04  0.00000000000E+00 0. -1.
         22    1    1    2    0    0 -0.63292807908E+03  0.77577410041E+03  0.15754825644E+03  0.10135308882E+04  0.00000000000E+00 0.  1.
<mgrwt>
<rscale>  0 0.29507610E+04</rscale>
<asrwt>0</asrwt>
<pdfrwt beam="1">  1        1 0.49535888E+00 0.29507610E+04</pdfrwt>
<pdfrwt beam="2">  1       -1 0.10400672E+00 0.29507610E+04</pdfrwt>
<totfact> 0.30530338E-01</totfact>
</mgrwt>
</event>
<event>
 6    1  0.1585031E-006  0.2087717E+04  0.7818608E-02  0.8566674E-01
         -2   -1    0    0    0  501 -0.00000000000E+00  0.00000000000E+00  0.35079163154E+03  0.35079163154E+03  0.00000000000E+00 0.  1.
          2   -1    0    0  501    0  0.00000000000E+00 -0.00000000000E+00 -0.31062330437E+04  0.31062330437E+04  0.00000000000E+00 0. -1.
         23    2    1    2    0    0  0.52596387503E+03 -0.84468141831E+03 -0.18918010779E+04  0.21394514047E+04  0.90643799627E+02 0.  0.
         13    1    3    3    0    0  0.50887773421E+03 -0.79565899361E+03 -0.18243756304E+04  0.20543554277E+04  0.00000000000E+00 0. -1.
        -13    1    3    3    0    0  0.17086140827E+02 -0.49022424700E+02 -0.67425447548E+02  0.85095977043E+02  0.00000000000E+00 0.  1.
         22    1    1    2    0    0 -0.52596387503E+03  0.84468141831E+03 -0.86364033425E+03  0.13175732705E+04  0.00000000000E+00 0.  1.
<mgrwt>
<rscale>  0 0.20877170E+04</rscale>
<asrwt>0</asrwt>
<pdfrwt beam="1">  1        2 0.47788199E+00 0.20877170E+04</pdfrwt>
<pdfrwt beam="2">  1       -2 0.53967945E-01 0.20877170E+04</pdfrwt>
<totfact> 0.44584585E+00</totfact>
</mgrwt>
</event>
<event>
 6    1  0.1949222E-006  0.3246587E+04  0.7818608E-02  0.8176621E-01
         -1   -1    0    0    0  501 -0.00000000000E+00  0.00000000000E+00  0.17215914496E+04  0.17215914496E+04  0.00000000000E+00 0.  1.
          1   -1    0    0  501    0  0.00000000000E+00 -0.00000000000E+00 -0.15306078310E+04  0.15306078310E+04  0.00000000000E+00 0. -1.
         23    2    1    2    0    0  0.12875767068E+04  0.94476576963E+03 -0.18926389967E+03  0.16105463603E+04  0.87193002901E+02 0.  0.
         11    1    3    3    0    0  0.63420698141E+03  0.50717952484E+03 -0.68337407920E+02  0.81493531461E+03  0.00000000000E+00 0. -1.
        -11    1    3    3    0    0  0.65336972539E+03  0.43758624479E+03 -0.12092649175E+03  0.79561104574E+03  0.00000000000E+00 0.  1.
         22    1    1    2    0    0 -0.12875767068E+04 -0.94476576963E+03  0.38024751836E+03  0.16416529203E+04  0.00000000000E+00 0. -1.
<mgrwt>
<rscale>  0 0.32465867E+04</rscale>
<asrwt>0</asrwt>
<pdfrwt beam="1">  1        1 0.23547813E+00 0.32465867E+04</pdfrwt>
<pdfrwt beam="2">  1       -1 0.26486022E+00 0.32465867E+04</pdfrwt>
<totfact> 0.28966125E-01</totfact>
</mgrwt>
</event>
<event>
 6    1  0.1585031E-006  0.1368186E+04  0.7818608E-02  0.8977175E-01
         -2   -1    0    0    0  501 -0.00000000000E+00  0.00000000000E+00  0.95875040778E+03  0.95875040778E+03  0.00000000000E+00 0.  1.
          2   -1    0    0  501    0  0.00000000000E+00 -0.00000000000E+00 -0.48811760325E+03  0.48811760325E+03  0.00000000000E+00 0. -1.
         23    2    1    2    0    0 -0.43797603706E+03  0.49131801789E+03  0.42086735244E+03  0.78679755723E+03  0.93298788676E+02 0.  0.
         13    1    3    3    0    0 -0.17124574096E+03  0.23616688912E+03  0.14362393241E+03  0.32515801893E+03  0.00000000000E+00 0. -1.
        -13    1    3    3    0    0 -0.26673029610E+03  0.25515112877E+03  0.27724342004E+03  0.46163953831E+03  0.00000000000E+00 0.  1.
         22    1    1    2    0    0  0.43797603706E+03 -0.49131801789E+03  0.49765452089E+02  0.66007045379E+03  0.00000000000E+00 0. -1.
<mgrwt>
<rscale>  0 0.13681856E+04</rscale>
<asrwt>0</asrwt>
<pdfrwt beam="1">  1        2 0.75095016E-01 0.13681856E+04</pdfrwt>
<pdfrwt beam="2">  1       -2 0.14750006E+00 0.13681856E+04</pdfrwt>
<totfact> 0.19334325E+01</totfact>
</mgrwt>
</event>
<event>
 6    1  0.1719100E-006  0.3610062E+04  0.7818608E-02  0.8088191E-01
          1   -1    0    0  501    0  0.00000000000E+00  0.00000000000E+00  0.24925003218E+04  0.24925003218E+04  0.00000000000E+00 0. -1.
         -1   -1    0    0    0  501 -0.00000000000E+00 -0.00000000000E+00 -0.13071763965E+04  0.13071763965E+04  0.00000000000E+00 0.  1.
         23    2    1    2    0    0 -0.40137910632E+03 -0.38466801283E+03  0.23992361921E+04  0.24645146837E+04  0.91780465245E+02 0.  0.
         13    1    3    3    0    0 -0.17000486262E+03 -0.12364256947E+03  0.75709713465E+03  0.78573863950E+03  0.00000000000E+00 0. -1.
        -13    1    3    3    0    0 -0.23137424370E+03 -0.26102544336E+03  0.16421390574E+04  0.16787760442E+04  0.00000000000E+00 0.  1.
         22    1    1    2    0    0  0.40137910632E+03  0.38466801283E+03 -0.12139122668E+04  0.13351620345E+04  0.00000000000E+00 0.  1.
<mgrwt>
<rscale>  0 0.36100624E+04</rscale>
<asrwt>0</asrwt>
<pdfrwt beam="1">  1        1 0.38346159E+00 0.36100624E+04</pdfrwt>
<pdfrwt beam="2">  1       -1 0.20110406E+00 0.36100624E+04</pdfrwt>
<totfact> 0.16389291E-01</totfact>
</mgrwt>
</event>
<event>
 6    1  0.1585031E-006  0.1675076E+04  0.7818608E-02  0.8775708E-01
          1   -1    0    0  501    0  0.00000000000E+00  0.00000000000E+00  0.77882108786E+03  0.77882108786E+03  0.00000000000E+00 0. -1.
         -1   -1    0    0    0  501 -0.00000000000E+00 -0.00000000000E+00 -0.90068190553E+03  0.90068190553E+03  0.00000000000E+00 0.  1.
         23    2    1    2    0    0 -0.73624341385E+03  0.37271797780E+03  0.66826008335E+02  0.83299500540E+03  0.91879857519E+02 0.  0.
         13    1    3    3    0    0 -0.45168382716E+03  0.19562442073E+03  0.54575730214E+01  0.49225702515E+03  0.00000000000E+00 0. -1.
        -13    1    3    3    0    0 -0.28455958669E+03  0.17709355707E+03  0.61368435314E+02  0.34073798025E+03  0.00000000000E+00 0.  1.
         22    1    1    2    0    0  0.73624341385E+03 -0.37271797780E+03 -0.18868682600E+03  0.84650798799E+03  0.00000000000E+00 0.  1.
<mgrwt>
<rscale>  0 0.16750762E+04</rscale>
<asrwt>0</asrwt>
<pdfrwt beam="1">  1        1 0.11981863E+00 0.16750762E+04</pdfrwt>
<pdfrwt beam="2">  1       -1 0.13856645E+00 0.16750762E+04</pdfrwt>
<totfact> 0.94778104E+00</totfact>
</mgrwt>
</event>
<event>
 6    1  0.1585031E-006  0.5230058E+04  0.7818608E-02  0.7793966E-01
          2   -1    0    0  501    0  0.00000000000E+00  0.00000000000E+00  0.37358119712E+04  0.37358119712E+04  0.00000000000E+00 0.  1.
         -2   -1    0    0    0  501 -0.00000000000E+00 -0.00000000000E+00 -0.18304928664E+04  0.18304928664E+04  0.00000000000E+00 0. -1.
         23    2    1    2    0    0  0.23042076437E+04  0.12100442526E+04  0.69101950345E+03  0.26943536750E+04  0.91944618200E+02 0.  0.
         11    1    3    3    0    0  0.11054672755E+04  0.59622923377E+03  0.37878384143E+03  0.13118781937E+04  0.00000000000E+00 0.  1.
        -11    1    3    3    0    0  0.11987403682E+04  0.61381501884E+03  0.31223566202E+03  0.13824754813E+04  0.00000000000E+00 0. -1.
         22    1    1    2    0    0 -0.23042076437E+04 -0.12100442526E+04  0.12142996013E+04  0.28719511626E+04  0.00000000000E+00 0.  1.
<mgrwt>
<rscale>  0 0.52300582E+04</rscale>
<asrwt>0</asrwt>
<pdfrwt beam="1">  1        2 0.57474030E+00 0.52300582E+04</pdfrwt>
<pdfrwt beam="2">  1       -2 0.28161429E+00 0.52300582E+04</pdfrwt>
<totfact> 0.16106571E-02</totfact>
</mgrwt>
</event>
<event>
 6    1  0.1585031E-006  0.3890447E+04  0.7818608E-02  0.8027019E-01
          2   -1    0    0  501    0  0.00000000000E+00  0.00000000000E+00  0.23511417612E+04  0.23511417612E+04  0.00000000000E+00 0. -1.
         -2   -1    0    0    0  501 -0.00000000000E+00 -0.00000000000E+00 -0.16093856616E+04  0.16093856616E+04  0.00000000000E+00 0.  1.
         23    2    1    2    0    0 -0.35610502169E+03  0.43885929470E+03  0.22647872800E+04  0.23360175755E+04  0.91150547711E+02 0.  0.
         13    1    3    3    0    0 -0.28423307810E+03  0.39978039190E+03  0.19230335616E+04  0.19846084962E+04  0.00000000000E+00 0.  1.
        -13    1    3    3    0    0 -0.71871943582E+02  0.39078902799E+02  0.34175371847E+03  0.35140907929E+03  0.00000000000E+00 0. -1.
         22    1    1    2    0    0  0.35610502169E+03 -0.43885929470E+03 -0.15230311805E+04  0.16245098472E+04  0.00000000000E+00 0.  1.
<mgrwt>
<rscale>  0 0.38904467E+04</rscale>
<asrwt>0</asrwt>
<pdfrwt beam="1">  1        2 0.36171412E+00 0.38904467E+04</pdfrwt>
<pdfrwt beam="2">  1       -2 0.24759780E+00 0.38904467E+04</pdfrwt>
<totfact> 0.22437238E-01</totfact>
</mgrwt>
</event>
<event>
 6    1  0.1585031E-006  0.2332492E+04  0.7818608E-02  0.8465219E-01
          2   -1    0    0  501    0  0.00000000000E+00  0.00000000000E+00  0.13012508761E+04  0.13012508761E+04  0.00000000000E+00 0. -1.
         -2   -1    0    0    0  501 -0.00000000000E+00 -0.00000000000E+00 -0.10452479122E+04  0.10452479122E+04  0.00000000000E+00 0.  1.
         23    2    1    2    0    0 -0.51234514173E+03 -0.53627424952E+03 -0.77479317316E+03  0.10766057647E+04  0.93208886395E+02 0.  0.
         11    1    3    3    0    0 -0.47193047639E+03 -0.50885042468E+03 -0.68934281644E+03  0.97818231829E+03  0.00000000000E+00 0. -1.
        -11    1    3    3    0    0 -0.40414665341E+02 -0.27423824839E+02 -0.85450356716E+02  0.98423446426E+02  0.00000000000E+00 0.  1.
         22    1    1    2    0    0  0.51234514173E+03  0.53627424952E+03  0.10307961371E+04  0.12698930236E+04  0.00000000000E+00 0. -1.
<mgrwt>
<rscale>  0 0.23324920E+04</rscale>
<asrwt>0</asrwt>
<pdfrwt beam="1">  1        2 0.20019244E+00 0.23324920E+04</pdfrwt>
<pdfrwt beam="2">  1       -2 0.16080737E+00 0.23324920E+04</pdfrwt>
<totfact> 0.37080616E+00</totfact>
</mgrwt>
</event>
<event>
 6    1  0.1585031E-006  0.1290445E+04  0.7818608E-02  0.9037177E-01
         -1   -1    0    0    0  501 -0.00000000000E+00  0.00000000000E+00  0.26892388902E+03  0.26892388902E+03  0.00000000000E+00 0.  1.
          1   -1    0    0  501    0  0.00000000000E+00 -0.00000000000E+00 -0.15480669159E+04  0.15480669159E+04  0.00000000000E+00 0. -1.
         23    2    1    2    0    0 -0.57914945189E+03 -0.15850091712E+03 -0.32274128921E+03  0.68772515320E+03  0.90924794315E+02 0.  0.
         11    1    3    3    0    0 -0.53391462160E+03 -0.12222185049E+03 -0.30582945588E+03  0.62732340940E+03  0.00000000000E+00 0. -1.
        -11    1    3    3    0    0 -0.45234830295E+02 -0.36279066631E+02 -0.16911833332E+02  0.60401743800E+02  0.00000000000E+00 0.  1.
         22    1    1    2    0    0  0.57914945189E+03  0.15850091712E+03 -0.95640173768E+03  0.11292656517E+04  0.00000000000E+00 0. -1.
<mgrwt>
<rscale>  0 0.12904452E+04</rscale>
<asrwt>0</asrwt>
<pdfrwt beam="1">  1        1 0.23816414E+00 0.12904452E+04</pdfrwt>
<pdfrwt beam="2">  1       -1 0.41372906E-01 0.12904452E+04</pdfrwt>
<totfact> 0.34100789E+01</totfact>
</mgrwt>
</event>
<event>
 6    1  0.1585031E-006  0.4425307E+03  0.7818608E-02  0.1029973E+00
          1   -1    0    0  501    0  0.00000000000E+00  0.00000000000E+00  0.12415575216E+04  0.12415575216E+04  0.00000000000E+00 0.  1.
         -1   -1    0    0    0  501 -0.00000000000E+00 -0.00000000000E+00 -0.39433013832E+02  0.39433013832E+02  0.00000000000E+00 0. -1.
         23    2    1    2    0    0 -0.15395553150E+03  0.14335713757E+03  0.70383225417E+03  0.74011278162E+03  0.90185990814E+02 0.  0.
         11    1    3    3    0    0 -0.71174173570E+02  0.11734433080E+03  0.50191038107E+03  0.52033593531E+03  0.00000000000E+00 0.  1.
        -11    1    3    3    0    0 -0.82781357928E+02  0.26012806770E+02  0.20192187310E+03  0.21977684631E+03  0.00000000000E+00 0. -1.
         22    1    1    2    0    0  0.15395553150E+03 -0.14335713757E+03  0.49829225362E+03  0.54087775383E+03  0.00000000000E+00 0.  1.
<mgrwt>
<rscale>  0 0.44253070E+03</rscale>
<asrwt>0</asrwt>
<pdfrwt beam="1">  1        1 0.19100882E+00 0.44253070E+03</pdfrwt>
<pdfrwt beam="2">  1       -1 0.60666185E-02 0.44253070E+03</pdfrwt>
<totfact> 0.14014841E+03</totfact>
</mgrwt>
</event>
<event>
 6    1  0.1585031E-006  0.2133418E+04  0.7818608E-02  0.8546664E-01
          2   -1    0    0  501    0  0.00000000000E+00  0.00000000000E+00  0.10452685553E+04  0.10452685553E+04  0.00000000000E+00 0. -1.
         -2   -1    0    0    0  501 -0.00000000000E+00 -0.00000000000E+00 -0.10885889405E+04  0.10885889405E+04  0.00000000000E+00 0.  1.
         23    2    1    2    0    0 -0.10367248683E+04 -0.86413728816E+02 -0.24834034925E+03  0.10735278438E+04  0.92321812676E+02 0.  0.
         13    1    3    3    0    0 -0.43424790220E+03 -0.75902143776E+02 -0.81662819234E+02  0.44833156485E+03  0.00000000000E+00 0. -1.
        -13    1    3    3    0    0 -0.60247696615E+03 -0.10511585040E+02 -0.16667753002E+03  0.62519627891E+03  0.00000000000E+00 0.  1.
         22    1    1    2    0    0  0.10367248683E+04  0.86413728816E+02  0.20501996405E+03  0.10603296520E+04  0.00000000000E+00 0. -1.
<mgrwt>
<rscale>  0 0.21334177E+04</rscale>
<asrwt>0</asrwt>
<pdfrwt beam="1">  1        2 0.16081055E+00 0.21334177E+04</pdfrwt>
<pdfrwt beam="2">  1       -2 0.16747522E+00 0.21334177E+04</pdfrwt>
<totfact> 0.48122608E+00</totfact>
</mgrwt>
</event>
<event>
 6    1  0.1585031E-006  0.4636408E+04  0.7818608E-02  0.7887181E-01
         -2   -1    0    0    0  501 -0.00000000000E+00  0.00000000000E+00  0.16479854679E+04  0.16479854679E+04  0.00000000000E+00 0. -1.
          2   -1    0    0  501    0  0.00000000000E+00 -0.00000000000E+00 -0.32609938505E+04  0.32609938505E+04  0.00000000000E+00 0.  1.
         23    2    1    2    0    0  0.49030040690E+03  0.66784751638E+03 -0.30981829587E+04  0.32083446382E+04  0.91229806073E+02 0.  0.
         13    1    3    3    0    0  0.48742058767E+03  0.64388726614E+03 -0.29659345169E+04  0.30739123604E+04  0.00000000000E+00 0. -1.
        -13    1    3    3    0    0  0.28798192303E+01  0.23960250239E+02 -0.13224844186E+03  0.13443227784E+03  0.00000000000E+00 0.  1.
         22    1    1    2    0    0 -0.49030040690E+03 -0.66784751638E+03  0.14851745761E+04  0.17006346803E+04  0.00000000000E+00 0. -1.
<mgrwt>
<rscale>  0 0.46364083E+04</rscale>
<asrwt>0</asrwt>
<pdfrwt beam="1">  1        2 0.50169136E+00 0.46364083E+04</pdfrwt>
<pdfrwt beam="2">  1       -2 0.25353623E+00 0.46364083E+04</pdfrwt>
<totfact> 0.54099311E-02</totfact>
</mgrwt>
</event>
<event>
 6    1  0.1585031E-006  0.3165793E+03  0.7818608E-02  0.1077234E+00
         -2   -1    0    0    0  501 -0.00000000000E+00  0.00000000000E+00  0.47240272966E+02  0.47240272966E+02  0.00000000000E+00 0. -1.
          2   -1    0    0  501    0  0.00000000000E+00 -0.00000000000E+00 -0.53038680055E+03  0.53038680055E+03  0.00000000000E+00 0.  1.
         23    2    1    2    0    0 -0.37188317147E+02 -0.13435555104E+03 -0.33430831418E+03  0.37369767692E+03  0.91943024596E+02 0.  0.
         13    1    3    3    0    0  0.29424632207E+02 -0.54814834580E+02 -0.10572933451E+03  0.12267504737E+03  0.00000000000E+00 0. -1.
        -13    1    3    3    0    0 -0.66612949355E+02 -0.79540716465E+02 -0.22857897967E+03  0.25102262955E+03  0.00000000000E+00 0.  1.
         22    1    1    2    0    0  0.37188317147E+02  0.13435555104E+03 -0.14883821339E+03  0.20392939659E+03  0.00000000000E+00 0. -1.
<mgrwt>
<rscale>  0 0.31657932E+03</rscale>
<asrwt>0</asrwt>
<pdfrwt beam="1">  1        2 0.81597974E-01 0.31657932E+03</pdfrwt>
<pdfrwt beam="2">  1       -2 0.72677339E-02 0.31657932E+03</pdfrwt>
<totfact> 0.64026948E+03</totfact>
</mgrwt>
</event>
<event>
 6    1  0.1585031E-006  0.2119699E+04  0.7818608E-02  0.8552615E-01
          2   -1    0    0  501    0  0.00000000000E+00  0.00000000000E+00  0.17351183859E+04  0.17351183859E+04  0.00000000000E+00 0. -1.
         -2   -1    0    0    0  501 -0.00000000000E+00 -0.00000000000E+00 -0.64738015366E+03  0.64738015366E+03  0.00000000000E+00 0.  1.
         23    2    1    2    0    0 -0.63271906054E+03  0.55202690736E+02 -0.40569126831E+03  0.75962688113E+03  0.95219991215E+02 0.  0.
         13    1    3    3    0    0 -0.44404507797E+03  0.87275185896E+01 -0.31917525102E+03  0.54692325030E+03  0.00000000000E+00 0. -1.
        -13    1    3    3    0    0 -0.18867398257E+03  0.46475172147E+02 -0.86516017282E+02  0.21270363083E+03  0.00000000000E+00 0.  1.
         22    1    1    2    0    0  0.63271906054E+03 -0.55202690736E+02  0.14934295006E+04  0.16228716585E+04  0.00000000000E+00 0. -1.
<mgrwt>
<rscale>  0 0.21196992E+04</rscale>
<asrwt>0</asrwt>
<pdfrwt beam="1">  1        2 0.26694129E+00 0.21196992E+04</pdfrwt>
<pdfrwt beam="2">  1       -2 0.99596947E-01 0.21196992E+04</pdfrwt>
<totfact> 0.71939818E+00</totfact>
</mgrwt>
</event>
<event>
 6    1  0.1585031E-006  0.6842667E+03  0.7818608E-02  0.9744523E-01
          2   -1    0    0  501    0  0.00000000000E+00  0.00000000000E+00  0.67320553925E+03  0.67320553925E+03  0.00000000000E+00 0.  1.
         -2   -1    0    0    0  501 -0.00000000000E+00 -0.00000000000E+00 -0.17387741572E+03  0.17387741572E+03  0.00000000000E+00 0. -1.
         23    2    1    2    0    0 -0.49607343779E+02  0.17042658392E+03  0.60711591040E+03  0.63941900515E+03  0.93599286456E+02 0.  0.
         13    1    3    3    0    0  0.12113686057E+02  0.91242573079E+01  0.10856931906E+02  0.18651177757E+02  0.00000000000E+00 0.  1.
        -13    1    3    3    0    0 -0.61721029835E+02  0.16130232661E+03  0.59625897849E+03  0.62076782739E+03  0.00000000000E+00 0. -1.
         22    1    1    2    0    0  0.49607343779E+02 -0.17042658392E+03 -0.10778778686E+03  0.20766394983E+03  0.00000000000E+00 0. -1.
<mgrwt>
<rscale>  0 0.68426673E+03</rscale>
<asrwt>0</asrwt>
<pdfrwt beam="1">  1        2 0.10357008E+00 0.68426673E+03</pdfrwt>
<pdfrwt beam="2">  1       -2 0.26750372E-01 0.68426673E+03</pdfrwt>
<totfact> 0.54862864E+02</totfact>
</mgrwt>
</event>
<event>
 6    1  0.1585031E-006  0.3748681E+04  0.7818608E-02  0.8057258E-01
         -2   -1    0    0    0  501 -0.00000000000E+00  0.00000000000E+00  0.45293733718E+04  0.45293733718E+04  0.00000000000E+00 0.  1.
          2   -1    0    0  501    0  0.00000000000E+00 -0.00000000000E+00 -0.77563745602E+03  0.77563745602E+03  0.00000000000E+00 0. -1.
         23    2    1    2    0    0  0.17957512790E+04 -0.49468843353E+03  0.15962684881E+04  0.24547292621E+04  0.90461937475E+02 0.  0.
         13    1    3    3    0    0  0.10367071803E+04 -0.31516877334E+03  0.88278448638E+03  0.13976414357E+04  0.00000000000E+00 0. -1.
        -13    1    3    3    0    0  0.75904409869E+03 -0.17951966019E+03  0.71348400170E+03  0.10570878265E+04  0.00000000000E+00 0.  1.
         22    1    1    2    0    0 -0.17957512790E+04  0.49468843353E+03  0.21574674277E+04  0.28502815657E+04  0.00000000000E+00 0.  1.
<mgrwt>
<rscale>  0 0.37486806E+04</rscale>
<asrwt>0</asrwt>
<pdfrwt beam="1">  1        2 0.11932884E+00 0.37486806E+04</pdfrwt>
<pdfrwt beam="2">  1       -2 0.69682665E+00 0.37486806E+04</pdfrwt>
<totfact> 0.67289927E-03</totfact>
</mgrwt>
</event>
<event>
 6    1  0.1585031E-006  0.4945891E+04  0.7818608E-02  0.7836909E-01
         -2   -1    0    0    0  501 -0.00000000000E+00  0.00000000000E+00  0.25451575396E+04  0.25451575396E+04  0.00000000000E+00 0.  1.
          2   -1    0    0  501    0  0.00000000000E+00 -0.00000000000E+00 -0.24027826331E+04  0.24027826331E+04  0.00000000000E+00 0. -1.
         23    2    1    2    0    0 -0.22126335078E+03 -0.21851126476E+04 -0.10640504714E+04  0.24421195595E+04  0.89831975609E+02 0.  0.
         11    1    3    3    0    0 -0.13098265233E+03 -0.13361685909E+04 -0.69866234612E+03  0.15134834100E+04  0.00000000000E+00 0.  1.
        -11    1    3    3    0    0 -0.90280698449E+02 -0.84894405676E+03 -0.36538812523E+03  0.92863614945E+03  0.00000000000E+00 0. -1.
         22    1    1    2    0    0  0.22126335078E+03  0.21851126476E+04  0.12064253778E+04  0.25058206132E+04  0.00000000000E+00 0.  1.
<mgrwt>
<rscale>  0 0.49458914E+04</rscale>
<asrwt>0</asrwt>
<pdfrwt beam="1">  1        2 0.36965887E+00 0.49458914E+04</pdfrwt>
<pdfrwt beam="2">  1       -2 0.39156270E+00 0.49458914E+04</pdfrwt>
<totfact> 0.24412861E-02</totfact>
</mgrwt>
</event>
<event>
 6    1  0.1585031E-006  0.3554102E+04  0.7818608E-02  0.8101087E-01
         -2   -1    0    0    0  501 -0.00000000000E+00  0.00000000000E+00  0.12078605739E+04  0.12078605739E+04  0.00000000000E+00 0.  1.
          2   -1    0    0  501    0  0.00000000000E+00 -0.00000000000E+00 -0.26144654841E+04  0.26144654841E+04  0.00000000000E+00 0. -1.
         23    2    1    2    0    0 -0.18938827023E+03 -0.10807231762E+04 -0.22055641256E+04  0.24650617770E+04  0.90476250846E+02 0.  0.
         11    1    3    3    0    0 -0.13215385367E+03 -0.78731540550E+03 -0.16907161787E+04  0.18697196008E+04  0.00000000000E+00 0. -1.
        -11    1    3    3    0    0 -0.57234416560E+02 -0.29340777071E+03 -0.51484794691E+03  0.59534217622E+03  0.00000000000E+00 0.  1.
         22    1    1    2    0    0  0.18938827023E+03  0.10807231762E+04  0.79895921535E+03  0.13572642809E+04  0.00000000000E+00 0.  1.
<mgrwt>
<rscale>  0 0.35541017E+04</rscale>
<asrwt>0</asrwt>
<pdfrwt beam="1">  1        2 0.40222545E+00 0.35541017E+04</pdfrwt>
<pdfrwt beam="2">  1       -2 0.18582471E+00 0.35541017E+04</pdfrwt>
<totfact> 0.40371999E-01</totfact>
</mgrwt>
</event>
<event>
 6    1  0.1585031E-006  0.1649684E+04  0.7818608E-02  0.8790594E-01
          2   -1    0    0  501    0  0.00000000000E+00  0.00000000000E+00  0.13829324221E+04  0.13829324221E+04  0.00000000000E+00 0. -1.
         -2   -1    0    0    0  501 -0.00000000000E+00 -0.00000000000E+00 -0.49197211769E+03  0.49197211769E+03  0.00000000000E+00 0.  1.
         23    2    1    2    0    0  0.45388080306E+03  0.55163952999E+03 -0.15904546690E+02  0.72047056048E+03  0.92254644780E+02 0.  0.
         11    1    3    3    0    0  0.23115041374E+03  0.32147369527E+03 -0.46749543118E+02  0.39869959908E+03  0.00000000000E+00 0. -1.
        -11    1    3    3    0    0  0.22273038932E+03  0.23016583471E+03  0.30844996428E+02  0.32177096140E+03  0.00000000000E+00 0.  1.
         22    1    1    2    0    0 -0.45388080306E+03 -0.55163952999E+03  0.90686485112E+03  0.11544339793E+04  0.00000000000E+00 0. -1.
<mgrwt>
<rscale>  0 0.16496838E+04</rscale>
<asrwt>0</asrwt>
<pdfrwt beam="1">  1        2 0.21275883E+00 0.16496838E+04</pdfrwt>
<pdfrwt beam="2">  1       -2 0.75688019E-01 0.16496838E+04</pdfrwt>
<totfact> 0.22123827E+01</totfact>
</mgrwt>
</event>
<event>
 6    1  0.1585031E-006  0.3788645E+04  0.7818608E-02  0.8048596E-01
         -2   -1    0    0    0  501 -0.00000000000E+00  0.00000000000E+00  0.16840878595E+04  0.16840878595E+04  0.00000000000E+00 0.  1.
          2   -1    0    0  501    0  0.00000000000E+00 -0.00000000000E+00 -0.21308014800E+04  0.21308014800E+04  0.00000000000E+00 0. -1.
         23    2    1    2    0    0  0.20230371347E+03  0.14284933219E+04 -0.14578546540E+04  0.20530930537E+04  0.91273937427E+02 0.  0.
         11    1    3    3    0    0  0.13630775392E+03  0.74119405574E+03 -0.80818362724E+03  0.11050381022E+04  0.00000000000E+00 0.  1.
        -11    1    3    3    0    0  0.65995959551E+02  0.68729926619E+03 -0.64967102677E+03  0.94805495147E+03  0.00000000000E+00 0. -1.
         22    1    1    2    0    0 -0.20230371347E+03 -0.14284933219E+04  0.10111410335E+04  0.17617962859E+04  0.00000000000E+00 0.  1.
<mgrwt>
<rscale>  0 0.37886446E+04</rscale>
<asrwt>0</asrwt>
<pdfrwt beam="1">  1        2 0.32781561E+00 0.37886446E+04</pdfrwt>
<pdfrwt beam="2">  1       -2 0.25909044E+00 0.37886446E+04</pdfrwt>
<totfact> 0.25614552E-01</totfact>
</mgrwt>
</event>
<event>
 6    1  0.1585031E-006  0.2950816E+04  0.7818608E-02  0.8257917E-01
         -2   -1    0    0    0  501 -0.00000000000E+00  0.00000000000E+00  0.13501052893E+04  0.13501052893E+04  0.00000000000E+00 0.  1.
          2   -1    0    0  501    0  0.00000000000E+00 -0.00000000000E+00 -0.16123395685E+04  0.16123395685E+04  0.00000000000E+00 0. -1.
         23    2    1    2    0    0  0.10999619392E+04 -0.32158609339E+02 -0.11157777934E+04  0.15697902077E+04  0.91273041093E+02 0.  0.
         11    1    3    3    0    0  0.35789523570E+03 -0.51868328044E+02 -0.38120620465E+03  0.52544980127E+03  0.00000000000E+00 0. -1.
        -11    1    3    3    0    0  0.74206670353E+03  0.19709718705E+02 -0.73457158874E+03  0.10443404064E+04  0.00000000000E+00 0.  1.
         22    1    1    2    0    0 -0.10999619392E+04  0.32158609339E+02  0.85354351413E+03  0.13926546501E+04  0.00000000000E+00 0.  1.
<mgrwt>
<rscale>  0 0.29508156E+04</rscale>
<asrwt>0</asrwt>
<pdfrwt beam="1">  1        2 0.24805224E+00 0.29508156E+04</pdfrwt>
<pdfrwt beam="2">  1       -2 0.20770851E+00 0.29508156E+04</pdfrwt>
<totfact> 0.11177394E+00</totfact>
</mgrwt>
</event>
<event>
 6    1  0.1585031E-006  0.2386373E+04  0.7818608E-02  0.8444623E-01
         -1   -1    0    0    0  501 -0.00000000000E+00  0.00000000000E+00  0.92535929153E+03  0.92535929153E+03  0.00000000000E+00 0.  1.
          1   -1    0    0  501    0  0.00000000000E+00 -0.00000000000E+00 -0.15385313753E+04  0.15385313753E+04  0.00000000000E+00 0. -1.
         23    2    1    2    0    0 -0.11830723450E+04 -0.26972495777E+02 -0.45168777910E+03  0.12695436194E+04  0.85623961235E+02 0.  0.
         13    1    3    3    0    0 -0.81217950945E+03 -0.58177065304E+02 -0.31237436799E+03  0.87212262456E+03  0.00000000000E+00 0.  1.
        -13    1    3    3    0    0 -0.37089283555E+03  0.31204569527E+02 -0.13931341111E+03  0.39742099484E+03  0.00000000000E+00 0. -1.
         22    1    1    2    0    0  0.11830723450E+04  0.26972495777E+02 -0.16148430466E+03  0.11943470474E+04  0.00000000000E+00 0.  1.
<mgrwt>
<rscale>  0 0.23863732E+04</rscale>
<asrwt>0</asrwt>
<pdfrwt beam="1">  1        1 0.23669713E+00 0.23863732E+04</pdfrwt>
<pdfrwt beam="2">  1       -1 0.14236297E+00 0.23863732E+04</pdfrwt>
<totfact> 0.22139216E+00</totfact>
</mgrwt>
</event>
<event>
 6    1  0.1585031E-006  0.6936296E+03  0.7818608E-02  0.9728189E-01
         -2   -1    0    0    0  501 -0.00000000000E+00  0.00000000000E+00  0.70513101274E+02  0.70513101274E+02  0.00000000000E+00 0.  1.
          2   -1    0    0  501    0  0.00000000000E+00 -0.00000000000E+00 -0.17057896734E+04  0.17057896734E+04  0.00000000000E+00 0. -1.
         23    2    1    2    0    0  0.12440349945E+03 -0.22171858406E+03 -0.14132483734E+04  0.14387648031E+04  0.90209936655E+02 0.  0.
         13    1    3    3    0    0  0.26324488809E+02 -0.30635241025E+02 -0.45257028641E+03  0.45436919003E+03  0.00000000000E+00 0. -1.
        -13    1    3    3    0    0  0.98079010640E+02 -0.19108334303E+03 -0.96067808694E+03  0.98439561308E+03  0.00000000000E+00 0.  1.
         22    1    1    2    0    0 -0.12440349945E+03  0.22171858406E+03 -0.22202819872E+03  0.33753797152E+03  0.00000000000E+00 0.  1.
<mgrwt>
<rscale>  0 0.69362964E+03</rscale>
<asrwt>0</asrwt>
<pdfrwt beam="1">  1        2 0.26242915E+00 0.69362964E+03</pdfrwt>
<pdfrwt beam="2">  1       -2 0.10848171E-01 0.69362964E+03</pdfrwt>
<totfact> 0.59661501E+02</totfact>
</mgrwt>
</event>
<event>
 6    1  0.1585031E-006  0.1565750E+04  0.7818608E-02  0.8841870E-01
          1   -1    0    0  501    0  0.00000000000E+00  0.00000000000E+00  0.20955713293E+04  0.20955713293E+04  0.00000000000E+00 0. -1.
         -1   -1    0    0    0  501 -0.00000000000E+00 -0.00000000000E+00 -0.29247054488E+03  0.29247054488E+03  0.00000000000E+00 0.  1.
         23    2    1    2    0    0 -0.49814825536E+03  0.41364683530E+03  0.15680550870E+04  0.16992009139E+04  0.96081222175E+02 0.  0.
         11    1    3    3    0    0 -0.16891926796E+03  0.19654537544E+03  0.66970543652E+03  0.71810108996E+03  0.00000000000E+00 0. -1.
        -11    1    3    3    0    0 -0.32922898740E+03  0.21710145986E+03  0.89834965048E+03  0.98109982394E+03  0.00000000000E+00 0.  1.
         22    1    1    2    0    0  0.49814825536E+03 -0.41364683530E+03  0.23504569742E+03  0.68884096027E+03  0.00000000000E+00 0.  1.
<mgrwt>
<rscale>  0 0.15657495E+04</rscale>
<asrwt>0</asrwt>
<pdfrwt beam="1">  1        1 0.32239558E+00 0.15657495E+04</pdfrwt>
<pdfrwt beam="2">  1       -1 0.44995470E-01 0.15657495E+04</pdfrwt>
<totfact> 0.12103877E+01</totfact>
</mgrwt>
</event>
<event>
 6    1  0.1585031E-006  0.1621548E+04  0.7818608E-02  0.8807418E-01
         -1   -1    0    0    0  501 -0.00000000000E+00  0.00000000000E+00  0.21019023602E+03  0.21019023602E+03  0.00000000000E+00 0.  1.
          1   -1    0    0  501    0  0.00000000000E+00 -0.00000000000E+00 -0.31274272447E+04  0.31274272447E+04  0.00000000000E+00 0. -1.
         23    2    1    2    0    0 -0.50117915929E+03 -0.46506142186E+03 -0.23508720841E+04  0.24497932281E+04  0.86166284489E+02 0.  0.
         13    1    3    3    0    0 -0.12670003303E+03 -0.14697142988E+03 -0.78597667544E+03  0.80957571228E+03  0.00000000000E+00 0. -1.
        -13    1    3    3    0    0 -0.37447912627E+03 -0.31808999199E+03 -0.15648954087E+04  0.16402175158E+04  0.00000000000E+00 0.  1.
         22    1    1    2    0    0  0.50117915929E+03  0.46506142186E+03 -0.56636492455E+03  0.88782425264E+03  0.00000000000E+00 0.  1.
<mgrwt>
<rscale>  0 0.16215482E+04</rscale>
<asrwt>0</asrwt>
<pdfrwt beam="1">  1        1 0.48114261E+00 0.16215482E+04</pdfrwt>
<pdfrwt beam="2">  1       -1 0.32336962E-01 0.16215482E+04</pdfrwt>
<totfact> 0.41463059E+00</totfact>
</mgrwt>
</event>
<event>
 6    1  0.1585031E-006  0.2449102E+04  0.7818608E-02  0.8421346E-01
         -2   -1    0    0    0  501 -0.00000000000E+00  0.00000000000E+00  0.11275241022E+04  0.11275241022E+04  0.00000000000E+00 0.  1.
          2   -1    0    0  501    0  0.00000000000E+00 -0.00000000000E+00 -0.13299273385E+04  0.13299273385E+04  0.00000000000E+00 0. -1.
         23    2    1    2    0    0  0.99039091548E+03  0.71514946654E+03 -0.44077400629E+02  0.12256316507E+04  0.88978654911E+02 0.  0.
         13    1    3    3    0    0  0.51740272064E+03  0.33633519915E+03 -0.54907599030E+02  0.61954966383E+03  0.00000000000E+00 0. -1.
        -13    1    3    3    0    0  0.47298819484E+03  0.37881426739E+03  0.10830198401E+02  0.60608198689E+03  0.00000000000E+00 0.  1.
         22    1    1    2    0    0 -0.99039091548E+03 -0.71514946654E+03 -0.15832583568E+03  0.12318197901E+04  0.00000000000E+00 0. -1.
<mgrwt>
<rscale>  0 0.24491020E+04</rscale>
<asrwt>0</asrwt>
<pdfrwt beam="1">  1        2 0.20460420E+00 0.24491020E+04</pdfrwt>
<pdfrwt beam="2">  1       -2 0.17346525E+00 0.24491020E+04</pdfrwt>
<totfact> 0.28653518E+00</totfact>
</mgrwt>
</event>
<event>
 6    1  0.1585031E-006  0.2173085E+04  0.7818608E-02  0.8529715E-01
         -2   -1    0    0    0  501 -0.00000000000E+00  0.00000000000E+00  0.78718760652E+03  0.78718760652E+03  0.00000000000E+00 0.  1.
          2   -1    0    0  501    0  0.00000000000E+00 -0.00000000000E+00 -0.14997375254E+04  0.14997375254E+04  0.00000000000E+00 0. -1.
         23    2    1    2    0    0  0.20098928852E+03 -0.10412240428E+04 -0.11663062306E+03  0.10705107254E+04  0.88579397085E+02 0.  0.
         13    1    3    3    0    0  0.10899251106E+03 -0.76997190323E+03 -0.90373145656E+02  0.78288147551E+03  0.00000000000E+00 0.  1.
        -13    1    3    3    0    0  0.91996777459E+02 -0.27125213953E+03 -0.26257477402E+02  0.28762924987E+03  0.00000000000E+00 0. -1.
         22    1    1    2    0    0 -0.20098928852E+03  0.10412240428E+04 -0.59591929586E+03  0.12164144066E+04  0.00000000000E+00 0. -1.
<mgrwt>
<rscale>  0 0.21730852E+04</rscale>
<asrwt>0</asrwt>
<pdfrwt beam="1">  1        2 0.23072885E+00 0.21730852E+04</pdfrwt>
<pdfrwt beam="2">  1       -2 0.12110579E+00 0.21730852E+04</pdfrwt>
<totfact> 0.60382609E+00</totfact>
</mgrwt>
</event>
<event>
 6    1  0.1585031E-006  0.2754460E+04  0.7818608E-02  0.8317548E-01
         -2   -1    0    0    0  501 -0.00000000000E+00  0.00000000000E+00  0.17936239703E+04  0.17936239703E+04  0.00000000000E+00 0. -1.
          2   -1    0    0  501    0  0.00000000000E+00 -0.00000000000E+00 -0.10575028405E+04  0.10575028405E+04  0.00000000000E+00 0.  1.
         23    2    1    2    0    0  0.87413699949E+03  0.92055381589E+03 -0.18030084292E+03  0.12854435562E+04  0.91224559962E+02 0.  0.
         11    1    3    3    0    0  0.34727517118E+03  0.40653417471E+03 -0.40366812084E+02  0.53618985373E+03  0.00000000000E+00 0. -1.
        -11    1    3    3    0    0  0.52686182831E+03  0.51401964118E+03 -0.13993403083E+03  0.74925370245E+03  0.00000000000E+00 0.  1.
         22    1    1    2    0    0 -0.87413699949E+03 -0.92055381589E+03  0.91642197273E+03  0.15656832547E+04  0.00000000000E+00 0. -1.
<mgrwt>
<rscale>  0 0.27544600E+04</rscale>
<asrwt>0</asrwt>
<pdfrwt beam="1">  1        2 0.16269275E+00 0.27544600E+04</pdfrwt>
<pdfrwt beam="2">  1       -2 0.27594215E+00 0.27544600E+04</pdfrwt>
<totfact> 0.90161530E-01</totfact>
</mgrwt>
</event>
<event>
 6    1  0.1585031E-006  0.5187057E+04  0.7818608E-02  0.7800282E-01
          2   -1    0    0  501    0  0.00000000000E+00  0.00000000000E+00  0.31521177759E+04  0.31521177759E+04  0.00000000000E+00 0. -1.
         -2   -1    0    0    0  501 -0.00000000000E+00 -0.00000000000E+00 -0.21339273726E+04  0.21339273726E+04  0.00000000000E+00 0.  1.
         23    2    1    2    0    0 -0.42489448076E+03 -0.25044467061E+04 -0.19681116481E+02  0.25419668123E+04  0.91756772288E+02 0.  0.
         13    1    3    3    0    0 -0.93236177131E+02 -0.36973714916E+03 -0.15915633026E+02  0.38164361853E+03  0.00000000000E+00 0.  1.
        -13    1    3    3    0    0 -0.33165830362E+03 -0.21347095569E+04 -0.37654834553E+01  0.21603231938E+04  0.00000000000E+00 0. -1.
         22    1    1    2    0    0  0.42489448076E+03  0.25044467061E+04  0.10378715198E+04  0.27440783362E+04  0.00000000000E+00 0.  1.
<mgrwt>
<rscale>  0 0.51870571E+04</rscale>
<asrwt>0</asrwt>
<pdfrwt beam="1">  1        2 0.48494119E+00 0.51870571E+04</pdfrwt>
<pdfrwt beam="2">  1       -2 0.32829652E+00 0.51870571E+04</pdfrwt>
<totfact> 0.21238622E-02</totfact>
</mgrwt>
</event>
<event>
 6    1  0.1585031E-006  0.1106475E+04  0.7818608E-02  0.9198903E-01
         -2   -1    0    0    0  501 -0.00000000000E+00  0.00000000000E+00  0.21602042157E+03  0.21602042157E+03  0.00000000000E+00 0.  1.
          2   -1    0    0  501    0  0.00000000000E+00 -0.00000000000E+00 -0.14168657741E+04  0.14168657741E+04  0.00000000000E+00 0. -1.
         23    2    1    2    0    0  0.28498999645E+03  0.24232507073E+02  0.86277504127E+02  0.31436742045E+03  0.97859873534E+02 0.  0.
         13    1    3    3    0    0  0.12701267439E+03  0.59664532150E+02  0.43333112392E+02  0.14686672354E+03  0.00000000000E+00 0.  1.
        -13    1    3    3    0    0  0.15797732206E+03 -0.35432025078E+02  0.42944391735E+02  0.16750069691E+03  0.00000000000E+00 0. -1.
         22    1    1    2    0    0 -0.28498999645E+03 -0.24232507073E+02 -0.12871228566E+04  0.13185187752E+04  0.00000000000E+00 0. -1.
<mgrwt>
<rscale>  0 0.11064754E+04</rscale>
<asrwt>0</asrwt>
<pdfrwt beam="1">  1        2 0.21797936E+00 0.11064754E+04</pdfrwt>
<pdfrwt beam="2">  1       -2 0.33233910E-01 0.11064754E+04</pdfrwt>
<totfact> 0.11867013E+02</totfact>
</mgrwt>
</event>
<event>
 6    1  0.1585031E-006  0.3072520E+04  0.7818608E-02  0.8223320E-01
          2   -1    0    0  501    0  0.00000000000E+00  0.00000000000E+00  0.12102100841E+04  0.12102100841E+04  0.00000000000E+00 0. -1.
         -2   -1    0    0    0  501 -0.00000000000E+00 -0.00000000000E+00 -0.19501534850E+04  0.19501534850E+04  0.00000000000E+00 0.  1.
         23    2    1    2    0    0 -0.18038434768E+03  0.15242543708E+04 -0.35120017582E+03  0.15770091568E+04  0.87900041162E+02 0.  0.
         11    1    3    3    0    0 -0.41319373776E+02  0.71110240219E+03 -0.15189010384E+03  0.72831622300E+03  0.00000000000E+00 0. -1.
        -11    1    3    3    0    0 -0.13906497390E+03  0.81315196864E+03 -0.19931007198E+03  0.84869293379E+03  0.00000000000E+00 0.  1.
         22    1    1    2    0    0  0.18038434768E+03 -0.15242543708E+04 -0.38874322503E+03  0.15833544123E+04  0.00000000000E+00 0. -1.
<mgrwt>
<rscale>  0 0.30725204E+04</rscale>
<asrwt>0</asrwt>
<pdfrwt beam="1">  1        2 0.18618617E+00 0.30725204E+04</pdfrwt>
<pdfrwt beam="2">  1       -2 0.30002361E+00 0.30725204E+04</pdfrwt>
<totfact> 0.50491083E-01</totfact>
</mgrwt>
</event>
<event>
 6    1  0.1585031E-006  0.2316346E+04  0.7818608E-02  0.8471504E-01
         -2   -1    0    0    0  501 -0.00000000000E+00  0.00000000000E+00  0.10103027249E+04  0.10103027249E+04  0.00000000000E+00 0.  1.
          2   -1    0    0  501    0  0.00000000000E+00 -0.00000000000E+00 -0.13276860238E+04  0.13276860238E+04  0.00000000000E+00 0. -1.
         23    2    1    2    0    0  0.89963460438E+03 -0.71771198806E+03 -0.44892348518E+02  0.11553204786E+04  0.91088781350E+02 0.  0.
         13    1    3    3    0    0  0.81959141419E+03 -0.63398684375E+03 -0.17656844087E+02  0.10363306270E+04  0.00000000000E+00 0. -1.
        -13    1    3    3    0    0  0.80043190184E+02 -0.83725144306E+02 -0.27235504430E+02  0.11898985161E+03  0.00000000000E+00 0.  1.
         22    1    1    2    0    0 -0.89963460438E+03  0.71771198806E+03 -0.27249095035E+03  0.11826682701E+04  0.00000000000E+00 0. -1.
<mgrwt>
<rscale>  0 0.23163461E+04</rscale>
<asrwt>0</asrwt>
<pdfrwt beam="1">  1        2 0.20425939E+00 0.23163461E+04</pdfrwt>
<pdfrwt beam="2">  1       -2 0.15543119E+00 0.23163461E+04</pdfrwt>
<totfact> 0.39302601E+00</totfact>
</mgrwt>
</event>
<event>
 6    1  0.1585031E-006  0.3095727E+04  0.7818608E-02  0.8216911E-01
         -2   -1    0    0    0  501 -0.00000000000E+00  0.00000000000E+00  0.13463426414E+04  0.13463426414E+04  0.00000000000E+00 0.  1.
          2   -1    0    0  501    0  0.00000000000E+00 -0.00000000000E+00 -0.17795483490E+04  0.17795483490E+04  0.00000000000E+00 0. -1.
         23    2    1    2    0    0 -0.49541189890E+03  0.14080427677E+04  0.19239847266E+03  0.15074355614E+04  0.85600316867E+02 0.  0.
         11    1    3    3    0    0 -0.16028566023E+03  0.56386105451E+03  0.96981375174E+02  0.59416846837E+03  0.00000000000E+00 0. -1.
        -11    1    3    3    0    0 -0.33512623866E+03  0.84418171323E+03  0.95417097486E+02  0.91326709307E+03  0.00000000000E+00 0.  1.
         22    1    1    2    0    0  0.49541189890E+03 -0.14080427677E+04 -0.62560418024E+03  0.16184554290E+04  0.00000000000E+00 0. -1.
<mgrwt>
<rscale>  0 0.30957273E+04</rscale>
<asrwt>0</asrwt>
<pdfrwt beam="1">  1        2 0.27377667E+00 0.30957273E+04</pdfrwt>
<pdfrwt beam="2">  1       -2 0.20712964E+00 0.30957273E+04</pdfrwt>
<totfact> 0.89904781E-01</totfact>
</mgrwt>
</event>
<event>
 6    1  0.1585031E-006  0.2664891E+04  0.7818608E-02  0.8346487E-01
         -1   -1    0    0    0  501 -0.00000000000E+00  0.00000000000E+00  0.95805260164E+03  0.95805260164E+03  0.00000000000E+00 0.  1.
          1   -1    0    0  501    0  0.00000000000E+00 -0.00000000000E+00 -0.18531454174E+04  0.18531454174E+04  0.00000000000E+00 0. -1.
         23    2    1    2    0    0 -0.29346410956E+03 -0.32060908592E+02 -0.18166315535E+04  0.18435293099E+04  0.10630630235E+03 0.  0.
         11    1    3    3    0    0 -0.21382201668E+03 -0.54372997027E+02 -0.10825793878E+04  0.11048322988E+04  0.00000000000E+00 0. -1.
        -11    1    3    3    0    0 -0.79642092878E+02  0.22312088436E+02 -0.73405216568E+03  0.73869701109E+03  0.00000000000E+00 0.  1.
         22    1    1    2    0    0  0.29346410956E+03  0.32060908592E+02  0.92153873773E+03  0.96766870911E+03  0.00000000000E+00 0.  1.
<mgrwt>
<rscale>  0 0.26648908E+04</rscale>
<asrwt>0</asrwt>
<pdfrwt beam="1">  1        1 0.28509929E+00 0.26648908E+04</pdfrwt>
<pdfrwt beam="2">  1       -1 0.14739271E+00 0.26648908E+04</pdfrwt>
<totfact> 0.12007868E+00</totfact>
</mgrwt>
</event>
<event>
 6    1  0.1585031E-006  0.3826371E+03  0.7818608E-02  0.1049963E+00
          1   -1    0    0  501    0  0.00000000000E+00  0.00000000000E+00  0.42092792621E+02  0.42092792621E+02  0.00000000000E+00 0. -1.
         -1   -1    0    0    0  501 -0.00000000000E+00 -0.00000000000E+00 -0.86957388162E+03  0.86957388162E+03  0.00000000000E+00 0.  1.
         23    2    1    2    0    0 -0.67814041023E+02  0.16354083492E+03 -0.51849212682E+03  0.55555078356E+03  0.91968683219E+02 0.  0.
         11    1    3    3    0    0 -0.71114547243E+02  0.89060034060E+02 -0.21854356424E+03  0.24647567419E+03  0.00000000000E+00 0.  1.
        -11    1    3    3    0    0  0.33005062205E+01  0.74480800862E+02 -0.29994856259E+03  0.30907510938E+03  0.00000000000E+00 0. -1.
         22    1    1    2    0    0  0.67814041023E+02 -0.16354083492E+03 -0.30898896218E+03  0.35611589068E+03  0.00000000000E+00 0. -1.
<mgrwt>
<rscale>  0 0.38263713E+03</rscale>
<asrwt>0</asrwt>
<pdfrwt beam="1">  1        1 0.64758147E-02 0.38263713E+03</pdfrwt>
<pdfrwt beam="2">  1       -1 0.13378059E+00 0.38263713E+03</pdfrwt>
<totfact> 0.59008190E+02</totfact>
</mgrwt>
</event>
<event>
 6    1  0.1585031E-006  0.8256389E+03  0.7818608E-02  0.9523630E-01
         -1   -1    0    0    0  501 -0.00000000000E+00  0.00000000000E+00  0.14027092940E+03  0.14027092940E+03  0.00000000000E+00 0.  1.
          1   -1    0    0  501    0  0.00000000000E+00 -0.00000000000E+00 -0.12149337238E+04  0.12149337238E+04  0.00000000000E+00 0. -1.
         23    2    1    2    0    0  0.11579909897E+03 -0.12289678349E+03 -0.11532668894E+04  0.11689476950E+04  0.88888383996E+02 0.  0.
         11    1    3    3    0    0  0.25186071334E+02 -0.83085946925E+02 -0.40780060029E+03  0.41693997454E+03  0.00000000000E+00 0.  1.
        -11    1    3    3    0    0  0.90613027640E+02 -0.39810836562E+02 -0.74546628912E+03  0.75200772051E+03  0.00000000000E+00 0. -1.
         22    1    1    2    0    0 -0.11579909897E+03  0.12289678349E+03  0.78604094997E+02  0.18625695817E+03  0.00000000000E+00 0.  1.
<mgrwt>
<rscale>  0 0.82563886E+03</rscale>
<asrwt>0</asrwt>
<pdfrwt beam="1">  1        1 0.18691288E+00 0.82563886E+03</pdfrwt>
<pdfrwt beam="2">  1       -1 0.21580143E-01 0.82563886E+03</pdfrwt>
<totfact> 0.18943104E+02</totfact>
</mgrwt>
</event>
<event>
 6    1  0.1585031E-006  0.1758499E+04  0.7818608E-02  0.8728686E-01
          1   -1    0    0  501    0  0.00000000000E+00  0.00000000000E+00  0.72031752831E+03  0.72031752831E+03  0.00000000000E+00 0. -1.
         -1   -1    0    0    0  501 -0.00000000000E+00 -0.00000000000E+00 -0.10732483649E+04  0.10732483649E+04  0.00000000000E+00 0.  1.
         23    2    1    2    0    0  0.63690619643E+03  0.59170276120E+03 -0.60065530894E+02  0.87621549781E+03  0.91564567014E+02 0.  0.
         11    1    3    3    0    0  0.24744530985E+03  0.27221687854E+03  0.76111211240E+01  0.36795263213E+03  0.00000000000E+00 0. -1.
        -11    1    3    3    0    0  0.38946088658E+03  0.31948588266E+03 -0.67676652018E+02  0.50826286568E+03  0.00000000000E+00 0.  1.
         22    1    1    2    0    0 -0.63690619643E+03 -0.59170276120E+03 -0.29286530571E+03  0.91735039541E+03  0.00000000000E+00 0. -1.
<mgrwt>
<rscale>  0 0.17584989E+04</rscale>
<asrwt>0</asrwt>
<pdfrwt beam="1">  1        1 0.11081808E+00 0.17584989E+04</pdfrwt>
<pdfrwt beam="2">  1       -1 0.16511513E+00 0.17584989E+04</pdfrwt>
<totfact> 0.66040453E+00</totfact>
</mgrwt>
</event>
<event>
 6    1  0.1585031E-006  0.4728875E+04  0.7818608E-02  0.7871748E-01
          2   -1    0    0  501    0  0.00000000000E+00  0.00000000000E+00  0.42308045676E+04  0.42308045676E+04  0.00000000000E+00 0. -1.
         -2   -1    0    0    0  501 -0.00000000000E+00 -0.00000000000E+00 -0.13213953197E+04  0.13213953197E+04  0.00000000000E+00 0.  1.
         23    2    1    2    0    0  0.10446569272E+02  0.66319502501E+03  0.41188000720E+04  0.41728656503E+04  0.91416246899E+02 0.  0.
         11    1    3    3    0    0  0.22244254764E+02  0.71047881309E+02  0.35187042050E+03  0.35966011891E+03  0.00000000000E+00 0. -1.
        -11    1    3    3    0    0 -0.11797685492E+02  0.59214714371E+03  0.37669296515E+04  0.38132055314E+04  0.00000000000E+00 0.  1.
         22    1    1    2    0    0 -0.10446569272E+02 -0.66319502501E+03 -0.12093908240E+04  0.13793342370E+04  0.00000000000E+00 0.  1.
<mgrwt>
<rscale>  0 0.47288753E+04</rscale>
<asrwt>0</asrwt>
<pdfrwt beam="1">  1        2 0.65089301E+00 0.47288753E+04</pdfrwt>
<pdfrwt beam="2">  1       -2 0.20329159E+00 0.47288753E+04</pdfrwt>
<totfact> 0.20446921E-02</totfact>
</mgrwt>
</event>
<event>
 6    1  0.1585031E-006  0.3708440E+04  0.7818608E-02  0.8066094E-01
         -2   -1    0    0    0  501 -0.00000000000E+00  0.00000000000E+00  0.19107575401E+04  0.19107575401E+04  0.00000000000E+00 0.  1.
          2   -1    0    0  501    0  0.00000000000E+00 -0.00000000000E+00 -0.17993552064E+04  0.17993552064E+04  0.00000000000E+00 0. -1.
         23    2    1    2    0    0 -0.98506165788E+03 -0.74651606168E+01  0.16260086836E+04  0.19033381081E+04  0.91594303666E+02 0.  0.
         13    1    3    3    0    0 -0.65294653305E+03  0.20995422871E+02  0.10084424329E+04  0.12015557096E+04  0.00000000000E+00 0.  1.
        -13    1    3    3    0    0 -0.33211512483E+03 -0.28460583488E+02  0.61756625066E+03  0.70178239855E+03  0.00000000000E+00 0. -1.
         22    1    1    2    0    0  0.98506165788E+03  0.74651606168E+01 -0.15146063499E+04  0.18067746383E+04  0.00000000000E+00 0. -1.
<mgrwt>
<rscale>  0 0.37084398E+04</rscale>
<asrwt>0</asrwt>
<pdfrwt beam="1">  1        2 0.27682388E+00 0.37084398E+04</pdfrwt>
<pdfrwt beam="2">  1       -2 0.29396270E+00 0.37084398E+04</pdfrwt>
<totfact> 0.24141600E-01</totfact>
</mgrwt>
</event>
<event>
 6    1  0.1585031E-006  0.4090693E+04  0.7818608E-02  0.7986497E-01
          2   -1    0    0  501    0  0.00000000000E+00  0.00000000000E+00  0.30404899931E+04  0.30404899931E+04  0.00000000000E+00 0. -1.
         -2   -1    0    0    0  501 -0.00000000000E+00 -0.00000000000E+00 -0.13759103211E+04  0.13759103211E+04  0.00000000000E+00 0.  1.
         23    2    1    2    0    0 -0.16552443211E+03  0.14944071323E+04 -0.66269833876E+03  0.16456830868E+04  0.91938671438E+02 0.  0.
         13    1    3    3    0    0 -0.79688346622E+02  0.36185480783E+03 -0.16737980028E+03  0.40657733837E+03  0.00000000000E+00 0.  1.
        -13    1    3    3    0    0 -0.85836085491E+02  0.11325523244E+04 -0.49531853849E+03  0.12391057484E+04  0.00000000000E+00 0. -1.
         22    1    1    2    0    0  0.16552443211E+03 -0.14944071323E+04  0.23272780108E+04  0.27707172274E+04  0.00000000000E+00 0. -1.
<mgrwt>
<rscale>  0 0.40906926E+04</rscale>
<asrwt>0</asrwt>
<pdfrwt beam="1">  1        2 0.46776769E+00 0.40906926E+04</pdfrwt>
<pdfrwt beam="2">  1       -2 0.21167851E+00 0.40906926E+04</pdfrwt>
<totfact> 0.14352384E-01</totfact>
</mgrwt>
</event>
<event>
 6    1  0.1585031E-006  0.2588434E+04  0.7818608E-02  0.8372141E-01
         -2   -1    0    0    0  501 -0.00000000000E+00  0.00000000000E+00  0.61517754539E+03  0.61517754539E+03  0.00000000000E+00 0.  1.
          2   -1    0    0  501    0  0.00000000000E+00 -0.00000000000E+00 -0.27227873771E+04  0.27227873771E+04  0.00000000000E+00 0. -1.
         23    2    1    2    0    0  0.10262682271E+04 -0.43795241450E+03 -0.21353549403E+03  0.11396595779E+04  0.90541454436E+02 0.  0.
         11    1    3    3    0    0  0.42731295160E+03 -0.23098919364E+03 -0.89085114284E+02  0.49385071000E+03  0.00000000000E+00 0. -1.
        -11    1    3    3    0    0  0.59895527551E+03 -0.20696322087E+03 -0.12445037975E+03  0.64580886791E+03  0.00000000000E+00 0.  1.
         22    1    1    2    0    0 -0.10262682271E+04  0.43795241450E+03 -0.18940743377E+04  0.21983053446E+04  0.00000000000E+00 0. -1.
<mgrwt>
<rscale>  0 0.25884340E+04</rscale>
<asrwt>0</asrwt>
<pdfrwt beam="1">  1        2 0.41889037E+00 0.25884340E+04</pdfrwt>
<pdfrwt beam="2">  1       -2 0.94642699E-01 0.25884340E+04</pdfrwt>
<totfact> 0.21420875E+00</totfact>
</mgrwt>
</event>
<event>
 6    1  0.1585031E-006  0.1835533E+04  0.7818608E-02  0.8687628E-01
         -2   -1    0    0    0  501 -0.00000000000E+00  0.00000000000E+00  0.59265266437E+03  0.59265266437E+03  0.00000000000E+00 0.  1.
          2   -1    0    0  501    0  0.00000000000E+00 -0.00000000000E+00 -0.14212299339E+04  0.14212299339E+04  0.00000000000E+00 0. -1.
         23    2    1    2    0    0  0.40160291735E+02 -0.37538090897E+03  0.50101622438E+03  0.63173118294E+03  0.74453707427E+02 0.  0.
         13    1    3    3    0    0  0.59043575219E+02 -0.29726835132E+03  0.37337394733E+03  0.48089782804E+03  0.00000000000E+00 0. -1.
        -13    1    3    3    0    0 -0.18883283485E+02 -0.78112557651E+02  0.12764227705E+03  0.15083335490E+03  0.00000000000E+00 0.  1.
         22    1    1    2    0    0 -0.40160291735E+02  0.37538090897E+03 -0.13295934939E+04  0.13821514153E+04  0.00000000000E+00 0. -1.
<mgrwt>
<rscale>  0 0.18355334E+04</rscale>
<asrwt>0</asrwt>
<pdfrwt beam="1">  1        2 0.21865076E+00 0.18355334E+04</pdfrwt>
<pdfrwt beam="2">  1       -2 0.91177334E-01 0.18355334E+04</pdfrwt>
<totfact> 0.13585939E+01</totfact>
</mgrwt>
</event>
<event>
 6    1  0.1585031E-006  0.4423363E+04  0.7818608E-02  0.7924193E-01
          2   -1    0    0  501    0  0.00000000000E+00  0.00000000000E+00  0.23389877537E+04  0.23389877537E+04  0.00000000000E+00 0. -1.
         -2   -1    0    0    0  501 -0.00000000000E+00 -0.00000000000E+00 -0.20913043353E+04  0.20913043353E+04  0.00000000000E+00 0.  1.
         23    2    1    2    0    0 -0.20045133433E+04 -0.61727288220E+03  0.82332422432E+03  0.22553295854E+04  0.97720037033E+02 0.  0.
         13    1    3    3    0    0 -0.14867429605E+04 -0.42472220020E+03  0.57508156478E+03  0.16497006953E+04  0.00000000000E+00 0.  1.
        -13    1    3    3    0    0 -0.51777038282E+03 -0.19255068200E+03  0.24824265954E+03  0.60562889006E+03  0.00000000000E+00 0. -1.
         22    1    1    2    0    0  0.20045133433E+04  0.61727288220E+03 -0.57564080583E+03  0.21749625036E+04  0.00000000000E+00 0.  1.
<mgrwt>
<rscale>  0 0.44233631E+04</rscale>
<asrwt>0</asrwt>
<pdfrwt beam="1">  1        2 0.35984427E+00 0.44233631E+04</pdfrwt>
<pdfrwt beam="2">  1       -2 0.32173913E+00 0.44233631E+04</pdfrwt>
<totfact> 0.76719163E-02</totfact>
</mgrwt>
</event>
<event>
 6    1  0.1585031E-006  0.1941828E+04  0.7818608E-02  0.8634311E-01
         -2   -1    0    0    0  501 -0.00000000000E+00  0.00000000000E+00  0.10009027328E+04  0.10009027328E+04  0.00000000000E+00 0.  1.
          2   -1    0    0  501    0  0.00000000000E+00 -0.00000000000E+00 -0.94182412499E+03  0.94182412499E+03  0.00000000000E+00 0. -1.
         23    2    1    2    0    0 -0.38273277573E+02  0.52318935725E+03  0.84441703195E+03  0.99829666569E+03  0.91455790262E+02 0.  0.
         13    1    3    3    0    0 -0.48524661882E+01  0.10248540236E+03  0.10427368854E+03  0.14628672615E+03  0.00000000000E+00 0.  1.
        -13    1    3    3    0    0 -0.33420811385E+02  0.42070395489E+03  0.74014334341E+03  0.85200993955E+03  0.00000000000E+00 0. -1.
         22    1    1    2    0    0  0.38273277573E+02 -0.52318935725E+03 -0.78533842414E+03  0.94443019210E+03  0.00000000000E+00 0. -1.
<mgrwt>
<rscale>  0 0.19418284E+04</rscale>
<asrwt>0</asrwt>
<pdfrwt beam="1">  1        2 0.14489602E+00 0.19418284E+04</pdfrwt>
<pdfrwt beam="2">  1       -2 0.15398504E+00 0.19418284E+04</pdfrwt>
<totfact> 0.71678447E+00</totfact>
</mgrwt>
</event>
<event>
 6    1  0.1585031E-006  0.4635643E+04  0.7818608E-02  0.7887311E-01
          2   -1    0    0  501    0  0.00000000000E+00  0.00000000000E+00  0.31093741706E+04  0.31093741706E+04  0.00000000000E+00 0. -1.
         -2   -1    0    0    0  501 -0.00000000000E+00 -0.00000000000E+00 -0.17277744719E+04  0.17277744719E+04  0.00000000000E+00 0.  1.
         23    2    1    2    0    0  0.50671014242E+03 -0.21491575104E+04  0.14232753006E+04  0.26286717854E+04  0.92572141006E+02 0.  0.
         11    1    3    3    0    0  0.22467562609E+03 -0.98037144763E+03  0.59408115221E+03  0.11681351496E+04  0.00000000000E+00 0. -1.
        -11    1    3    3    0    0  0.28203451633E+03 -0.11687860627E+04  0.82919414836E+03  0.14605366358E+04  0.00000000000E+00 0.  1.
         22    1    1    2    0    0 -0.50671014242E+03  0.21491575104E+04 -0.41675601891E+02  0.22084768572E+04  0.00000000000E+00 0. -1.
<mgrwt>
<rscale>  0 0.46356433E+04</rscale>
<asrwt>0</asrwt>
<pdfrwt beam="1">  1        2 0.47836525E+00 0.46356433E+04</pdfrwt>
<pdfrwt beam="2">  1       -2 0.26581146E+00 0.46356433E+04</pdfrwt>
<totfact> 0.57142224E-02</totfact>
</mgrwt>
</event>
<event>
 6    1  0.1585031E-006  0.3804946E+04  0.7818608E-02  0.8045094E-01
          1   -1    0    0  501    0  0.00000000000E+00  0.00000000000E+00  0.24832279763E+04  0.24832279763E+04  0.00000000000E+00 0. -1.
         -1   -1    0    0    0  501 -0.00000000000E+00 -0.00000000000E+00 -0.14575395640E+04  0.14575395640E+04  0.00000000000E+00 0.  1.
         23    2    1    2    0    0  0.41864919256E+03 -0.57770502986E+03  0.23385016546E+04  0.24466159893E+04  0.91266437149E+02 0.  0.
         13    1    3    3    0    0  0.56367821978E+02 -0.11755147024E+03  0.52229891843E+03  0.53832317403E+03  0.00000000000E+00 0.  1.
        -13    1    3    3    0    0  0.36228137058E+03 -0.46015355962E+03  0.18162027362E+04  0.19082928153E+04  0.00000000000E+00 0. -1.
         22    1    1    2    0    0 -0.41864919256E+03  0.57770502986E+03 -0.13128132423E+04  0.14941515510E+04  0.00000000000E+00 0.  1.
<mgrwt>
<rscale>  0 0.38049457E+04</rscale>
<asrwt>0</asrwt>
<pdfrwt beam="1">  1        1 0.38203507E+00 0.38049457E+04</pdfrwt>
<pdfrwt beam="2">  1       -1 0.22423686E+00 0.38049457E+04</pdfrwt>
<totfact> 0.11410325E-01</totfact>
</mgrwt>
</event>
<event>
 6    1  0.1585031E-006  0.3539537E+04  0.7818608E-02  0.8104484E-01
         -2   -1    0    0    0  501 -0.00000000000E+00  0.00000000000E+00  0.10985020956E+04  0.10985020956E+04  0.00000000000E+00 0.  1.
          2   -1    0    0  501    0  0.00000000000E+00 -0.00000000000E+00 -0.28512291331E+04  0.28512291331E+04  0.00000000000E+00 0. -1.
         23    2    1    2    0    0 -0.15733819424E+03  0.14415567723E+04  0.25277841920E+03  0.14748790368E+04  0.92358046622E+02 0.  0.
         13    1    3    3    0    0 -0.11854621548E+03  0.68513687388E+03  0.10541010340E+03  0.70326170879E+03  0.00000000000E+00 0. -1.
        -13    1    3    3    0    0 -0.38791978760E+02  0.75641989845E+03  0.14736831580E+03  0.77161732801E+03  0.00000000000E+00 0.  1.
         22    1    1    2    0    0  0.15733819424E+03 -0.14415567723E+04 -0.20055054567E+04  0.24748521920E+04  0.00000000000E+00 0. -1.
<mgrwt>
<rscale>  0 0.35395374E+04</rscale>
<asrwt>0</asrwt>
<pdfrwt beam="1">  1        2 0.43865063E+00 0.35395374E+04</pdfrwt>
<pdfrwt beam="2">  1       -2 0.16900032E+00 0.35395374E+04</pdfrwt>
<totfact> 0.38176859E-01</totfact>
</mgrwt>
</event>
<event>
 6    1  0.1585031E-006  0.1164924E+04  0.7818608E-02  0.9144125E-01
         -3   -1    0    0    0  501 -0.00000000000E+00  0.00000000000E+00  0.49443293069E+03  0.49443293069E+03  0.00000000000E+00 0.  1.
          3   -1    0    0  501    0  0.00000000000E+00 -0.00000000000E+00 -0.68616411304E+03  0.68616411304E+03  0.00000000000E+00 0. -1.
         23    2    1    2    0    0  0.50214830016E+03 -0.21684224599E+03  0.95552821910E+02  0.56277378899E+03  0.91708891579E+02 0.  0.
         11    1    3    3    0    0  0.28358279284E+03 -0.14226508760E+03  0.97221605555E+02  0.33182916708E+03  0.00000000000E+00 0. -1.
        -11    1    3    3    0    0  0.21856550733E+03 -0.74577158390E+02 -0.16687836458E+01  0.23094462190E+03  0.00000000000E+00 0.  1.
         22    1    1    2    0    0 -0.50214830016E+03  0.21684224599E+03 -0.28728400426E+03  0.61782325475E+03  0.00000000000E+00 0. -1.
<mgrwt>
<rscale>  0 0.11649243E+04</rscale>
<asrwt>0</asrwt>
<pdfrwt beam="1">  1        3 0.10556371E+00 0.11649243E+04</pdfrwt>
<pdfrwt beam="2">  1       -3 0.76066605E-01 0.11649243E+04</pdfrwt>
<totfact> 0.32471626E+00</totfact>
</mgrwt>
</event>
<event>
 6    1  0.1585031E-006  0.2187418E+04  0.7818608E-02  0.8523683E-01
          2   -1    0    0  501    0  0.00000000000E+00  0.00000000000E+00  0.16829842893E+04  0.16829842893E+04  0.00000000000E+00 0. -1.
         -2   -1    0    0    0  501 -0.00000000000E+00 -0.00000000000E+00 -0.71076103233E+03  0.71076103233E+03  0.00000000000E+00 0.  1.
         23    2    1    2    0    0 -0.80783719574E+03  0.10553520844E+03  0.12827076368E+04  0.15218857199E+04  0.84015760802E+02 0.  0.
         11    1    3    3    0    0 -0.41383086492E+03  0.26261510956E+02  0.59242983569E+03  0.72313122041E+03  0.00000000000E+00 0. -1.
        -11    1    3    3    0    0 -0.39400633081E+03  0.79273697484E+02  0.69027780110E+03  0.79875449953E+03  0.00000000000E+00 0.  1.
         22    1    1    2    0    0  0.80783719574E+03 -0.10553520844E+03 -0.31048437978E+03  0.87185960173E+03  0.00000000000E+00 0.  1.
<mgrwt>
<rscale>  0 0.21874183E+04</rscale>
<asrwt>0</asrwt>
<pdfrwt beam="1">  1        2 0.25892066E+00 0.21874183E+04</pdfrwt>
<pdfrwt beam="2">  1       -2 0.10934785E+00 0.21874183E+04</pdfrwt>
<totfact> 0.61135392E+00</totfact>
</mgrwt>
</event>
<event>
 6    1  0.1585031E-006  0.4930627E+04  0.7818608E-02  0.7839299E-01
         -1   -1    0    0    0  501 -0.00000000000E+00  0.00000000000E+00  0.19806420008E+04  0.19806420008E+04  0.00000000000E+00 0. -1.
          1   -1    0    0  501    0  0.00000000000E+00 -0.00000000000E+00 -0.30685861007E+04  0.30685861007E+04  0.00000000000E+00 0.  1.
         23    2    1    2    0    0 -0.12881815648E+04  0.13074653550E+04 -0.22283218228E+04  0.28883628236E+04  0.91346903117E+02 0.  0.
         11    1    3    3    0    0 -0.57314933608E+03  0.64143440864E+03 -0.10150633267E+04  0.13305231374E+04  0.00000000000E+00 0. -1.
        -11    1    3    3    0    0 -0.71503222869E+03  0.66603094636E+03 -0.12132584961E+04  0.15578396862E+04  0.00000000000E+00 0.  1.
         22    1    1    2    0    0  0.12881815648E+04 -0.13074653550E+04  0.11403777228E+04  0.21608652779E+04  0.00000000000E+00 0.  1.
<mgrwt>
<rscale>  0 0.49306269E+04</rscale>
<asrwt>0</asrwt>
<pdfrwt beam="1">  1        1 0.47209017E+00 0.49306269E+04</pdfrwt>
<pdfrwt beam="2">  1       -1 0.30471416E+00 0.49306269E+04</pdfrwt>
<totfact> 0.11891884E-02</totfact>
</mgrwt>
</event>
<event>
 6    1  0.1585031E-006  0.3890932E+04  0.7818608E-02  0.8026918E-01
          1   -1    0    0  501    0  0.00000000000E+00  0.00000000000E+00  0.27519913107E+04  0.27519913107E+04  0.00000000000E+00 0. -1.
         -1   -1    0    0    0  501 -0.00000000000E+00 -0.00000000000E+00 -0.13753085971E+04  0.13753085971E+04  0.00000000000E+00 0.  1.
         23    2    1    2    0    0 -0.10399319525E+04  0.59313264563E+03  0.23139211551E+04  0.26068786841E+04  0.91217106578E+02 0.  0.
         11    1    3    3    0    0 -0.36111256971E+03  0.15726076437E+03  0.74491968385E+03  0.84263786492E+03  0.00000000000E+00 0.  1.
        -11    1    3    3    0    0 -0.67881938281E+03  0.43587188126E+03  0.15690014712E+04  0.17642408192E+04  0.00000000000E+00 0. -1.
         22    1    1    2    0    0  0.10399319525E+04 -0.59313264563E+03 -0.93723844147E+03  0.15204212237E+04  0.00000000000E+00 0.  1.
<mgrwt>
<rscale>  0 0.38909317E+04</rscale>
<asrwt>0</asrwt>
<pdfrwt beam="1">  1        1 0.42338328E+00 0.38909317E+04</pdfrwt>
<pdfrwt beam="2">  1       -1 0.21158594E+00 0.38909317E+04</pdfrwt>
<totfact> 0.89269005E-02</totfact>
</mgrwt>
</event>
<event>
 6    1  0.1585031E-006  0.3174052E+04  0.7818608E-02  0.8195704E-01
         -1   -1    0    0    0  501 -0.00000000000E+00  0.00000000000E+00  0.84341738346E+03  0.84341738346E+03  0.00000000000E+00 0.  1.
          1   -1    0    0  501    0  0.00000000000E+00 -0.00000000000E+00 -0.29862448141E+04  0.29862448141E+04  0.00000000000E+00 0. -1.
         23    2    1    2    0    0 -0.53228315527E+03  0.10516885270E+04  0.20752407680E+03  0.12003036591E+04  0.91041288881E+02 0.  0.
         11    1    3    3    0    0 -0.27817216088E+03  0.51611099671E+03  0.14678150888E+03  0.60439649516E+03  0.00000000000E+00 0. -1.
        -11    1    3    3    0    0 -0.25411099439E+03  0.53557753033E+03  0.60742567920E+02  0.59590716393E+03  0.00000000000E+00 0.  1.
         22    1    1    2    0    0  0.53228315527E+03 -0.10516885270E+04 -0.23503515074E+04  0.26293585384E+04  0.00000000000E+00 0. -1.
<mgrwt>
<rscale>  0 0.31740515E+04</rscale>
<asrwt>0</asrwt>
<pdfrwt beam="1">  1        1 0.45942228E+00 0.31740515E+04</pdfrwt>
<pdfrwt beam="2">  1       -1 0.12975652E+00 0.31740515E+04</pdfrwt>
<totfact> 0.26115185E-01</totfact>
</mgrwt>
</event>
<event>
 6    1  0.1585031E-006  0.1609577E+04  0.7818608E-02  0.8814686E-01
          2   -1    0    0  501    0  0.00000000000E+00  0.00000000000E+00  0.31819299550E+04  0.31819299550E+04  0.00000000000E+00 0. -1.
         -2   -1    0    0    0  501 -0.00000000000E+00 -0.00000000000E+00 -0.20355075303E+03  0.20355075303E+03  0.00000000000E+00 0.  1.
         23    2    1    2    0    0 -0.68848213335E+03 -0.39833471860E+03  0.17135764956E+04  0.18913575263E+04  0.90612859411E+02 0.  0.
         13    1    3    3    0    0 -0.60392691619E+03 -0.31455980192E+03  0.14835668827E+04  0.16323744315E+04  0.00000000000E+00 0. -1.
        -13    1    3    3    0    0 -0.84555217154E+02 -0.83774916682E+02  0.23000961281E+03  0.25898309482E+03  0.00000000000E+00 0.  1.
         22    1    1    2    0    0  0.68848213335E+03  0.39833471860E+03  0.12648027064E+04  0.14941231817E+04  0.00000000000E+00 0.  1.
<mgrwt>
<rscale>  0 0.16095766E+04</rscale>
<asrwt>0</asrwt>
<pdfrwt beam="1">  1        2 0.48952765E+00 0.16095766E+04</pdfrwt>
<pdfrwt beam="2">  1       -2 0.31315503E-01 0.16095766E+04</pdfrwt>
<totfact> 0.12174192E+01</totfact>
</mgrwt>
</event>
<event>
 6    1  0.1585031E-006  0.7681732E+03  0.7818608E-02  0.9607263E-01
         -1   -1    0    0    0  501 -0.00000000000E+00  0.00000000000E+00  0.11495406253E+03  0.11495406253E+03  0.00000000000E+00 0.  1.
          1   -1    0    0  501    0  0.00000000000E+00 -0.00000000000E+00 -0.12833170565E+04  0.12833170565E+04  0.00000000000E+00 0. -1.
         23    2    1    2    0    0 -0.32517382909E+03 -0.47207613487E+02 -0.93384669686E+03  0.99458253669E+03  0.95698438662E+02 0.  0.
         11    1    3    3    0    0 -0.12704163336E+03 -0.59624611125E+02 -0.45699163250E+03  0.47805441430E+03  0.00000000000E+00 0. -1.
        -11    1    3    3    0    0 -0.19813219573E+03  0.12416997638E+02 -0.47685506436E+03  0.51652812239E+03  0.00000000000E+00 0.  1.
         22    1    1    2    0    0  0.32517382909E+03  0.47207613487E+02 -0.23451629712E+03  0.40368858234E+03  0.00000000000E+00 0.  1.
<mgrwt>
<rscale>  0 0.76817318E+03</rscale>
<asrwt>0</asrwt>
<pdfrwt beam="1">  1        1 0.19743339E+00 0.76817318E+03</pdfrwt>
<pdfrwt beam="2">  1       -1 0.17685241E-01 0.76817318E+03</pdfrwt>
<totfact> 0.23658503E+02</totfact>
</mgrwt>
</event>
<event>
 6    1  0.1585031E-006  0.2429952E+04  0.7818608E-02  0.8428374E-01
          1   -1    0    0  501    0  0.00000000000E+00  0.00000000000E+00  0.14604516819E+04  0.14604516819E+04  0.00000000000E+00 0. -1.
         -1   -1    0    0    0  501 -0.00000000000E+00 -0.00000000000E+00 -0.10107605825E+04  0.10107605825E+04  0.00000000000E+00 0.  1.
         23    2    1    2    0    0 -0.61513922701E+03 -0.39227584819E+01  0.12886984724E+04  0.14308541393E+04  0.90488444998E+02 0.  0.
         11    1    3    3    0    0 -0.78172888654E+02 -0.30905838549E+02  0.16715637317E+03  0.18710271101E+03  0.00000000000E+00 0. -1.
        -11    1    3    3    0    0 -0.53696633836E+03  0.26983080067E+02  0.11215420992E+04  0.12437514283E+04  0.00000000000E+00 0.  1.
         22    1    1    2    0    0  0.61513922701E+03  0.39227584819E+01 -0.83900737298E+03  0.10403581251E+04  0.00000000000E+00 0.  1.
<mgrwt>
<rscale>  0 0.24299523E+04</rscale>
<asrwt>0</asrwt>
<pdfrwt beam="1">  1        1 0.22468488E+00 0.24299523E+04</pdfrwt>
<pdfrwt beam="2">  1       -1 0.15550163E+00 0.24299523E+04</pdfrwt>
<totfact> 0.19704464E+00</totfact>
</mgrwt>
</event>
<event>
 6    1  0.1585031E-006  0.3920007E+04  0.7818608E-02  0.8020881E-01
         -1   -1    0    0    0  501 -0.00000000000E+00  0.00000000000E+00  0.13735856459E+04  0.13735856459E+04  0.00000000000E+00 0.  1.
          1   -1    0    0  501    0  0.00000000000E+00 -0.00000000000E+00 -0.27967780261E+04  0.27967780261E+04  0.00000000000E+00 0. -1.
         23    2    1    2    0    0  0.60165865299E+03 -0.15246470977E+04  0.42935991091E+03  0.16968051223E+04  0.90861338829E+02 0.  0.
         13    1    3    3    0    0  0.47545198044E+03 -0.11410874523E+04  0.29098521799E+03  0.12699636045E+04  0.00000000000E+00 0.  1.
        -13    1    3    3    0    0  0.12620667254E+03 -0.38355964535E+03  0.13837469291E+03  0.42684151787E+03  0.00000000000E+00 0. -1.
         22    1    1    2    0    0 -0.60165865299E+03  0.15246470977E+04 -0.18525522911E+04  0.24735585496E+04  0.00000000000E+00 0. -1.
<mgrwt>
<rscale>  0 0.39200072E+04</rscale>
<asrwt>0</asrwt>
<pdfrwt beam="1">  1        1 0.43027354E+00 0.39200072E+04</pdfrwt>
<pdfrwt beam="2">  1       -1 0.21132087E+00 0.39200072E+04</pdfrwt>
<totfact> 0.83093914E-02</totfact>
</mgrwt>
</event>
<event>
 6    1  0.1585031E-006  0.2766140E+04  0.7818608E-02  0.8313858E-01
          1   -1    0    0  501    0  0.00000000000E+00  0.00000000000E+00  0.27724560814E+04  0.27724560814E+04  0.00000000000E+00 0. -1.
         -1   -1    0    0    0  501 -0.00000000000E+00 -0.00000000000E+00 -0.68995957502E+03  0.68995957502E+03  0.00000000000E+00 0.  1.
         23    2    1    2    0    0 -0.72934965681E+03 -0.16336345707E+03 -0.41215019829E+03  0.85820738476E+03  0.89518647903E+02 0.  0.
         11    1    3    3    0    0 -0.99773855689E+02 -0.53576336864E+02 -0.72679800987E+02  0.13456448128E+03  0.00000000000E+00 0. -1.
        -11    1    3    3    0    0 -0.62957580112E+03 -0.10978712021E+03 -0.33947039731E+03  0.72364290348E+03  0.00000000000E+00 0.  1.
         22    1    1    2    0    0  0.72934965681E+03  0.16336345707E+03  0.24946467047E+04  0.26042082717E+04  0.00000000000E+00 0. -1.
<mgrwt>
<rscale>  0 0.27661400E+04</rscale>
<asrwt>0</asrwt>
<pdfrwt beam="1">  1        1 0.42653170E+00 0.27661400E+04</pdfrwt>
<pdfrwt beam="2">  1       -1 0.10614763E+00 0.27661400E+04</pdfrwt>
<totfact> 0.62799308E-01</totfact>
</mgrwt>
</event>
<event>
 6    1  0.1585031E-006  0.2638072E+04  0.7818608E-02  0.8355383E-01
          2   -1    0    0  501    0  0.00000000000E+00  0.00000000000E+00  0.18346493247E+04  0.18346493247E+04  0.00000000000E+00 0. -1.
         -2   -1    0    0    0  501 -0.00000000000E+00 -0.00000000000E+00 -0.94833173250E+03  0.94833173250E+03  0.00000000000E+00 0.  1.
         23    2    1    2    0    0  0.75505505506E+03  0.34772734191E+02 -0.69445017303E+03  0.10307984164E+04  0.94694525554E+02 0.  0.
         13    1    3    3    0    0  0.35515610568E+03 -0.26734493066E+01 -0.38472319198E+03  0.52359807217E+03  0.00000000000E+00 0.  1.
        -13    1    3    3    0    0  0.39989894938E+03  0.37446183498E+02 -0.30972698105E+03  0.50720034421E+03  0.00000000000E+00 0. -1.
         22    1    1    2    0    0 -0.75505505506E+03 -0.34772734191E+02  0.15807677652E+04  0.17521826408E+04  0.00000000000E+00 0. -1.
<mgrwt>
<rscale>  0 0.26380722E+04</rscale>
<asrwt>0</asrwt>
<pdfrwt beam="1">  1        2 0.28225374E+00 0.26380722E+04</pdfrwt>
<pdfrwt beam="2">  1       -2 0.14589719E+00 0.26380722E+04</pdfrwt>
<totfact> 0.23471064E+00</totfact>
</mgrwt>
</event>
<event>
 6    1  0.1585031E-006  0.2365571E+04  0.7818608E-02  0.8452507E-01
         -1   -1    0    0    0  501 -0.00000000000E+00  0.00000000000E+00  0.10169651530E+04  0.10169651530E+04  0.00000000000E+00 0.  1.
          1   -1    0    0  501    0  0.00000000000E+00 -0.00000000000E+00 -0.13756441135E+04  0.13756441135E+04  0.00000000000E+00 0. -1.
         23    2    1    2    0    0 -0.93645008366E+03 -0.38632522425E+03  0.43442015078E+03  0.11060665589E+04  0.92067515171E+02 0.  0.
         13    1    3    3    0    0 -0.42600255296E+03 -0.15033358876E+03  0.15095921962E+03  0.47630562565E+03  0.00000000000E+00 0. -1.
        -13    1    3    3    0    0 -0.51044753070E+03 -0.23599163549E+03  0.28346093116E+03  0.62976093330E+03  0.00000000000E+00 0.  1.
         22    1    1    2    0    0  0.93645008366E+03  0.38632522425E+03 -0.79309911127E+03  0.12865427076E+04  0.00000000000E+00 0. -1.
<mgrwt>
<rscale>  0 0.23655715E+04</rscale>
<asrwt>0</asrwt>
<pdfrwt beam="1">  1        1 0.21163756E+00 0.23655715E+04</pdfrwt>
<pdfrwt beam="2">  1       -1 0.15645618E+00 0.23655715E+04</pdfrwt>
<totfact> 0.22342800E+00</totfact>
</mgrwt>
</event>
<event>
 6    1  0.1585031E-006  0.2634551E+04  0.7818608E-02  0.8356559E-01
         -1   -1    0    0    0  501 -0.00000000000E+00  0.00000000000E+00  0.10756641669E+04  0.10756641669E+04  0.00000000000E+00 0.  1.
          1   -1    0    0  501    0  0.00000000000E+00 -0.00000000000E+00 -0.16131560686E+04  0.16131560686E+04  0.00000000000E+00 0. -1.
         23    2    1    2    0    0  0.69360479468E+03  0.90199494537E+03 -0.94321209295E+03  0.14808089084E+04  0.91997163708E+02 0.  0.
         11    1    3    3    0    0  0.59789572417E+03  0.75304604073E+03 -0.83361184357E+03  0.12725825483E+04  0.00000000000E+00 0.  1.
        -11    1    3    3    0    0  0.95709070509E+02  0.14894890464E+03 -0.10960024938E+03  0.20822636009E+03  0.00000000000E+00 0. -1.
         22    1    1    2    0    0 -0.69360479468E+03 -0.90199494537E+03  0.40572019125E+03  0.12080113270E+04  0.00000000000E+00 0. -1.
<mgrwt>
<rscale>  0 0.26345506E+04</rscale>
<asrwt>0</asrwt>
<pdfrwt beam="1">  1        1 0.24817786E+00 0.26345506E+04</pdfrwt>
<pdfrwt beam="2">  1       -1 0.16548679E+00 0.26345506E+04</pdfrwt>
<totfact> 0.12754043E+00</totfact>
</mgrwt>
</event>
<event>
 6    1  0.1585031E-006  0.3262903E+04  0.7818608E-02  0.8172399E-01
         -1   -1    0    0    0  501 -0.00000000000E+00  0.00000000000E+00  0.18336164359E+04  0.18336164359E+04  0.00000000000E+00 0.  1.
          1   -1    0    0  501    0  0.00000000000E+00 -0.00000000000E+00 -0.14515758948E+04  0.14515758948E+04  0.00000000000E+00 0. -1.
         23    2    1    2    0    0 -0.10976482403E+03 -0.10136637258E+04  0.14718953084E+04  0.17927628084E+04  0.89220079208E+02 0.  0.
         11    1    3    3    0    0 -0.74499735436E+02 -0.55734536588E+03  0.73719796903E+03  0.92717037970E+03  0.00000000000E+00 0.  1.
        -11    1    3    3    0    0 -0.35265088592E+02 -0.45631835995E+03  0.73469733934E+03  0.86559242865E+03  0.00000000000E+00 0. -1.
         22    1    1    2    0    0  0.10976482403E+03  0.10136637258E+04 -0.10898547673E+04  0.14924295224E+04  0.00000000000E+00 0. -1.
<mgrwt>
<rscale>  0 0.32629026E+04</rscale>
<asrwt>0</asrwt>
<pdfrwt beam="1">  1        1 0.22331937E+00 0.32629026E+04</pdfrwt>
<pdfrwt beam="2">  1       -1 0.28209484E+00 0.32629026E+04</pdfrwt>
<totfact> 0.25377632E-01</totfact>
</mgrwt>
</event>
<event>
 6    1  0.1585031E-006  0.2419545E+04  0.7818608E-02  0.8432222E-01
          2   -1    0    0  501    0  0.00000000000E+00  0.00000000000E+00  0.19674246293E+04  0.19674246293E+04  0.00000000000E+00 0. -1.
         -2   -1    0    0    0  501 -0.00000000000E+00 -0.00000000000E+00 -0.74389095498E+03  0.74389095498E+03  0.00000000000E+00 0.  1.
         23    2    1    2    0    0  0.11500675215E+04 -0.35615603832E+03  0.72450928798E+03  0.14080398016E+04  0.90332424742E+02 0.  0.
         13    1    3    3    0    0  0.60027841297E+03 -0.19739487022E+03  0.43113125259E+03  0.76496605469E+03  0.00000000000E+00 0. -1.
        -13    1    3    3    0    0  0.54978910851E+03 -0.15876116809E+03  0.29337803539E+03  0.64307374692E+03  0.00000000000E+00 0.  1.
         22    1    1    2    0    0 -0.11500675215E+04  0.35615603832E+03  0.49902438636E+03  0.13032757827E+04  0.00000000000E+00 0.  1.
<mgrwt>
<rscale>  0 0.24195449E+04</rscale>
<asrwt>0</asrwt>
<pdfrwt beam="1">  1        2 0.30268071E+00 0.24195449E+04</pdfrwt>
<pdfrwt beam="2">  1       -2 0.11444476E+00 0.24195449E+04</pdfrwt>
<totfact> 0.37314624E+00</totfact>
</mgrwt>
</event>
<event>
 6    1  0.1585031E-006  0.1784645E+04  0.7818608E-02  0.8714508E-01
         -2   -1    0    0    0  501 -0.00000000000E+00  0.00000000000E+00  0.49080021669E+03  0.49080021669E+03  0.00000000000E+00 0.  1.
          2   -1    0    0  501    0  0.00000000000E+00 -0.00000000000E+00 -0.16223289640E+04  0.16223289640E+04  0.00000000000E+00 0. -1.
         23    2    1    2    0    0  0.82730587349E+03 -0.21590274705E+01 -0.17875472312E+03  0.85129796738E+03  0.91188313556E+02 0.  0.
         11    1    3    3    0    0  0.39575432280E+03  0.37843141691E+02 -0.61253001847E+02  0.40225056572E+03  0.00000000000E+00 0. -1.
        -11    1    3    3    0    0  0.43155155069E+03 -0.40002169161E+02 -0.11750172128E+03  0.44904740167E+03  0.00000000000E+00 0.  1.
         22    1    1    2    0    0 -0.82730587349E+03  0.21590274705E+01 -0.95277402421E+03  0.12618312133E+04  0.00000000000E+00 0. -1.
<mgrwt>
<rscale>  0 0.17846450E+04</rscale>
<asrwt>0</asrwt>
<pdfrwt beam="1">  1        2 0.24958907E+00 0.17846450E+04</pdfrwt>
<pdfrwt beam="2">  1       -2 0.75507725E-01 0.17846450E+04</pdfrwt>
<totfact> 0.16110286E+01</totfact>
</mgrwt>
</event>
<event>
 6    1  0.1585031E-006  0.3831486E+04  0.7818608E-02  0.8039432E-01
         -2   -1    0    0    0  501 -0.00000000000E+00  0.00000000000E+00  0.40548174271E+04  0.40548174271E+04  0.00000000000E+00 0.  1.
          2   -1    0    0  501    0  0.00000000000E+00 -0.00000000000E+00 -0.90511357459E+03  0.90511357459E+03  0.00000000000E+00 0. -1.
         23    2    1    2    0    0  0.10092812034E+04  0.75364047792E+03 -0.29067540735E+03  0.12962126761E+04  0.95145108649E+02 0.  0.
         11    1    3    3    0    0  0.30565429024E+03  0.18309592642E+03 -0.10566608152E+03  0.37163689833E+03  0.00000000000E+00 0.  1.
        -11    1    3    3    0    0  0.70362691319E+03  0.57054455149E+03 -0.18500932583E+03  0.92457577778E+03  0.00000000000E+00 0. -1.
         22    1    1    2    0    0 -0.10092812034E+04 -0.75364047792E+03  0.34403792599E+04  0.36637183256E+04  0.00000000000E+00 0.  1.
<mgrwt>
<rscale>  0 0.38314855E+04</rscale>
<asrwt>0</asrwt>
<pdfrwt beam="1">  1        2 0.13924825E+00 0.38314855E+04</pdfrwt>
<pdfrwt beam="2">  1       -2 0.62381805E+00 0.38314855E+04</pdfrwt>
<totfact> 0.95848350E-03</totfact>
</mgrwt>
</event>
<event>
 6    1  0.1585031E-006  0.1434128E+04  0.7818608E-02  0.8929479E-01
          2   -1    0    0  501    0  0.00000000000E+00  0.00000000000E+00  0.34868603128E+04  0.34868603128E+04  0.00000000000E+00 0.  1.
         -2   -1    0    0    0  501 -0.00000000000E+00 -0.00000000000E+00 -0.14746230599E+03  0.14746230599E+03  0.00000000000E+00 0. -1.
         23    2    1    2    0    0 -0.41657415255E+03 -0.57766608172E+03  0.15351082211E+04  0.16945562006E+04  0.87928037511E+02 0.  0.
         13    1    3    3    0    0 -0.34453803051E+03 -0.41735395292E+03  0.11893942934E+04  0.13067323986E+04  0.00000000000E+00 0. -1.
        -13    1    3    3    0    0 -0.72036122039E+02 -0.16031212880E+03  0.34571392770E+03  0.38782380191E+03  0.00000000000E+00 0.  1.
         22    1    1    2    0    0  0.41657415255E+03  0.57766608172E+03  0.18042897857E+04  0.19397664182E+04  0.00000000000E+00 0. -1.
<mgrwt>
<rscale>  0 0.14341276E+04</rscale>
<asrwt>0</asrwt>
<pdfrwt beam="1">  1        2 0.53643999E+00 0.14341276E+04</pdfrwt>
<pdfrwt beam="2">  1       -2 0.22686511E-01 0.14341276E+04</pdfrwt>
<totfact> 0.13999775E+01</totfact>
</mgrwt>
</event>
<event>
 6    1  0.1585031E-006  0.2009296E+04  0.7818608E-02  0.8602287E-01
          1   -1    0    0  501    0  0.00000000000E+00  0.00000000000E+00  0.92935533198E+03  0.92935533198E+03  0.00000000000E+00 0. -1.
         -1   -1    0    0    0  501 -0.00000000000E+00 -0.00000000000E+00 -0.10860403373E+04  0.10860403373E+04  0.00000000000E+00 0.  1.
         23    2    1    2    0    0 -0.25834477889E+03 -0.37420410987E+03  0.81754814982E+03  0.94026731359E+03  0.94588070616E+02 0.  0.
         11    1    3    3    0    0 -0.13076541389E+03 -0.25045990367E+03  0.43888412296E+03  0.52196650295E+03  0.00000000000E+00 0. -1.
        -11    1    3    3    0    0 -0.12757936500E+03 -0.12374420620E+03  0.37866402686E+03  0.41830081064E+03  0.00000000000E+00 0.  1.
         22    1    1    2    0    0  0.25834477889E+03  0.37420410987E+03 -0.97423315514E+03  0.10751283557E+04  0.00000000000E+00 0.  1.
<mgrwt>
<rscale>  0 0.20092958E+04</rscale>
<asrwt>0</asrwt>
<pdfrwt beam="1">  1        1 0.14297774E+00 0.20092958E+04</pdfrwt>
<pdfrwt beam="2">  1       -1 0.16708313E+00 0.20092958E+04</pdfrwt>
<totfact> 0.41277406E+00</totfact>
</mgrwt>
</event>
<event>
 6    1  0.1585031E-006  0.1939474E+04  0.7818608E-02  0.8635453E-01
         -2   -1    0    0    0  501 -0.00000000000E+00  0.00000000000E+00  0.35548955845E+03  0.35548955845E+03  0.00000000000E+00 0. -1.
          2   -1    0    0  501    0  0.00000000000E+00 -0.00000000000E+00 -0.26453379858E+04  0.26453379858E+04  0.00000000000E+00 0.  1.
         23    2    1    2    0    0 -0.91191670530E+03 -0.31040406329E+03 -0.10063535951E+04  0.13960528733E+04  0.90957720738E+02 0.  0.
         13    1    3    3    0    0 -0.60977098623E+03 -0.23671124970E+03 -0.63449046127E+03  0.91127987843E+03  0.00000000000E+00 0. -1.
        -13    1    3    3    0    0 -0.30214571907E+03 -0.73692813590E+02 -0.37186313378E+03  0.48477299491E+03  0.00000000000E+00 0.  1.
         22    1    1    2    0    0  0.91191670530E+03  0.31040406329E+03 -0.12834948323E+04  0.16047746709E+04  0.00000000000E+00 0.  1.
<mgrwt>
<rscale>  0 0.19394742E+04</rscale>
<asrwt>0</asrwt>
<pdfrwt beam="1">  1        2 0.40697506E+00 0.19394742E+04</pdfrwt>
<pdfrwt beam="2">  1       -2 0.54690703E-01 0.19394742E+04</pdfrwt>
<totfact> 0.84138625E+00</totfact>
</mgrwt>
</event>
<event>
 6    1  0.1585031E-006  0.3185684E+04  0.7818608E-02  0.8192608E-01
          1   -1    0    0  501    0  0.00000000000E+00  0.00000000000E+00  0.20586858988E+04  0.20586858988E+04  0.00000000000E+00 0. -1.
         -1   -1    0    0    0  501 -0.00000000000E+00 -0.00000000000E+00 -0.12324103678E+04  0.12324103678E+04  0.00000000000E+00 0.  1.
         23    2    1    2    0    0  0.46478472208E+03 -0.92867225403E+03  0.16595765112E+04  0.19596130648E+04  0.86210056428E+02 0.  0.
         11    1    3    3    0    0  0.15149500521E+03 -0.39449894331E+03  0.69231888069E+03  0.81110146433E+03  0.00000000000E+00 0. -1.
        -11    1    3    3    0    0  0.31328971687E+03 -0.53417331072E+03  0.96725763050E+03  0.11485116004E+04  0.00000000000E+00 0.  1.
         22    1    1    2    0    0 -0.46478472208E+03  0.92867225403E+03 -0.83330098013E+03  0.13314832018E+04  0.00000000000E+00 0.  1.
<mgrwt>
<rscale>  0 0.31856841E+04</rscale>
<asrwt>0</asrwt>
<pdfrwt beam="1">  1        1 0.31672091E+00 0.31856841E+04</pdfrwt>
<pdfrwt beam="2">  1       -1 0.18960160E+00 0.31856841E+04</pdfrwt>
<totfact> 0.40501853E-01</totfact>
</mgrwt>
</event>
<event>
 6    1  0.1585031E-006  0.1551423E+04  0.7818608E-02  0.8850960E-01
         -1   -1    0    0    0  501 -0.00000000000E+00  0.00000000000E+00  0.35606529677E+03  0.35606529677E+03  0.00000000000E+00 0.  1.
          1   -1    0    0  501    0  0.00000000000E+00 -0.00000000000E+00 -0.16899374231E+04  0.16899374231E+04  0.00000000000E+00 0. -1.
         23    2    1    2    0    0 -0.33229239342E+03  0.34385472937E+03  0.13185582479E+03  0.50424633952E+03  0.90686838931E+02 0.  0.
         13    1    3    3    0    0 -0.95342321227E+02  0.15252739554E+03  0.72659775992E+02  0.19399538049E+03  0.00000000000E+00 0.  1.
        -13    1    3    3    0    0 -0.23695007219E+03  0.19132733383E+03  0.59196048799E+02  0.31025095903E+03  0.00000000000E+00 0. -1.
         22    1    1    2    0    0  0.33229239342E+03 -0.34385472937E+03 -0.14657279511E+04  0.15417563803E+04  0.00000000000E+00 0. -1.
<mgrwt>
<rscale>  0 0.15514227E+04</rscale>
<asrwt>0</asrwt>
<pdfrwt beam="1">  1        1 0.25999038E+00 0.15514227E+04</pdfrwt>
<pdfrwt beam="2">  1       -1 0.54779275E-01 0.15514227E+04</pdfrwt>
<totfact> 0.15707109E+01</totfact>
</mgrwt>
</event>
<event>
 6    1  0.1585031E-006  0.2807282E+04  0.7818608E-02  0.8301011E-01
         -1   -1    0    0    0  501 -0.00000000000E+00  0.00000000000E+00  0.22950309159E+04  0.22950309159E+04  0.00000000000E+00 0.  1.
          1   -1    0    0  501    0  0.00000000000E+00 -0.00000000000E+00 -0.85846692373E+03  0.85846692373E+03  0.00000000000E+00 0. -1.
         23    2    1    2    0    0  0.67410982412E+03 -0.95140918193E+03  0.15938133275E+04  0.19769219433E+04  0.91520273284E+02 0.  0.
         11    1    3    3    0    0  0.25075189310E+03 -0.31173644839E+03  0.60815368358E+03  0.72794713269E+03  0.00000000000E+00 0. -1.
        -11    1    3    3    0    0  0.42335793102E+03 -0.63967273354E+03  0.98565964394E+03  0.12489748106E+04  0.00000000000E+00 0.  1.
         22    1    1    2    0    0 -0.67410982412E+03  0.95140918193E+03 -0.15724933533E+03  0.11765758964E+04  0.00000000000E+00 0. -1.
<mgrwt>
<rscale>  0 0.28072821E+04</rscale>
<asrwt>0</asrwt>
<pdfrwt beam="1">  1        1 0.13207184E+00 0.28072821E+04</pdfrwt>
<pdfrwt beam="2">  1       -1 0.35308168E+00 0.28072821E+04</pdfrwt>
<totfact> 0.25262421E-01</totfact>
</mgrwt>
</event>
<event>
 6    1  0.1585031E-006  0.2177686E+04  0.7818608E-02  0.8527773E-01
         -2   -1    0    0    0  501 -0.00000000000E+00  0.00000000000E+00  0.90191386217E+03  0.90191386217E+03  0.00000000000E+00 0.  1.
          2   -1    0    0  501    0  0.00000000000E+00 -0.00000000000E+00 -0.13145151731E+04  0.13145151731E+04  0.00000000000E+00 0. -1.
         23    2    1    2    0    0  0.19235363315E+03 -0.72408089823E+03 -0.10080995217E+04  0.12593965455E+04  0.92314385507E+02 0.  0.
         11    1    3    3    0    0  0.10973942367E+03 -0.56106861822E+03 -0.74584961959E+03  0.93975123863E+03  0.00000000000E+00 0. -1.
        -11    1    3    3    0    0  0.82614209479E+02 -0.16301228000E+03 -0.26224990211E+03  0.31964530686E+03  0.00000000000E+00 0.  1.
         22    1    1    2    0    0 -0.19235363315E+03  0.72408089823E+03  0.59549821080E+03  0.95703248975E+03  0.00000000000E+00 0.  1.
<mgrwt>
<rscale>  0 0.21776863E+04</rscale>
<asrwt>0</asrwt>
<pdfrwt beam="1">  1        2 0.20223310E+00 0.21776863E+04</pdfrwt>
<pdfrwt beam="2">  1       -2 0.13875598E+00 0.21776863E+04</pdfrwt>
<totfact> 0.54580364E+00</totfact>
</mgrwt>
</event>
<event>
 6    1  0.1585031E-006  0.1335924E+04  0.7818608E-02  0.9001552E-01
         -2   -1    0    0    0  501 -0.00000000000E+00  0.00000000000E+00  0.19678758090E+03  0.19678758090E+03  0.00000000000E+00 0.  1.
          2   -1    0    0  501    0  0.00000000000E+00 -0.00000000000E+00 -0.22672829361E+04  0.22672829361E+04  0.00000000000E+00 0. -1.
         23    2    1    2    0    0  0.54007631958E+03 -0.17390794404E+03 -0.40081631342E+03  0.70062091281E+03  0.91046924135E+02 0.  0.
         11    1    3    3    0    0  0.19947619903E+03 -0.76516958904E+02 -0.20383887983E+03  0.29528949847E+03  0.00000000000E+00 0. -1.
        -11    1    3    3    0    0  0.34060012055E+03 -0.97390985138E+02 -0.19697743359E+03  0.40533141434E+03  0.00000000000E+00 0.  1.
         22    1    1    2    0    0 -0.54007631958E+03  0.17390794404E+03 -0.16696790418E+04  0.17634496042E+04  0.00000000000E+00 0. -1.
<mgrwt>
<rscale>  0 0.13359238E+04</rscale>
<asrwt>0</asrwt>
<pdfrwt beam="1">  1        2 0.34881278E+00 0.13359238E+04</pdfrwt>
<pdfrwt beam="2">  1       -2 0.30275011E-01 0.13359238E+04</pdfrwt>
<totfact> 0.46745882E+01</totfact>
</mgrwt>
</event>
<event>
 6    1  0.1585031E-006  0.1660206E+04  0.7818608E-02  0.8784391E-01
         -1   -1    0    0    0  501 -0.00000000000E+00  0.00000000000E+00  0.79753259469E+03  0.79753259469E+03  0.00000000000E+00 0.  1.
          1   -1    0    0  501    0  0.00000000000E+00 -0.00000000000E+00 -0.86400363123E+03  0.86400363123E+03  0.00000000000E+00 0. -1.
         23    2    1    2    0    0  0.49080907825E+03 -0.53394361597E+03  0.36562402561E+03  0.81732329125E+03  0.91362453992E+02 0.  0.
         13    1    3    3    0    0  0.24208390761E+03 -0.32232842573E+03  0.22618877006E+03  0.46223542925E+03  0.00000000000E+00 0. -1.
        -13    1    3    3    0    0  0.24872517064E+03 -0.21161519023E+03  0.13943525555E+03  0.35508786200E+03  0.00000000000E+00 0.  1.
         22    1    1    2    0    0 -0.49080907825E+03  0.53394361597E+03 -0.43209506215E+03  0.84421293466E+03  0.00000000000E+00 0. -1.
<mgrwt>
<rscale>  0 0.16602061E+04</rscale>
<asrwt>0</asrwt>
<pdfrwt beam="1">  1        1 0.13292363E+00 0.16602061E+04</pdfrwt>
<pdfrwt beam="2">  1       -1 0.12269732E+00 0.16602061E+04</pdfrwt>
<totfact> 0.10909469E+01</totfact>
</mgrwt>
</event>
<event>
 6    1  0.1585031E-006  0.3328800E+04  0.7818608E-02  0.8155606E-01
          2   -1    0    0  501    0  0.00000000000E+00  0.00000000000E+00  0.16170106321E+04  0.16170106321E+04  0.00000000000E+00 0.  1.
         -2   -1    0    0    0  501 -0.00000000000E+00 -0.00000000000E+00 -0.17131786258E+04  0.17131786258E+04  0.00000000000E+00 0. -1.
         23    2    1    2    0    0 -0.95903839477E+03 -0.29177121941E+03 -0.13758647499E+04  0.17046097075E+04  0.88347934954E+02 0.  0.
         11    1    3    3    0    0 -0.24668067607E+03 -0.10431285195E+03 -0.32191855176E+03  0.41876494719E+03  0.00000000000E+00 0.  1.
        -11    1    3    3    0    0 -0.71235771870E+03 -0.18745836746E+03 -0.10539461982E+04  0.12858447603E+04  0.00000000000E+00 0. -1.
         22    1    1    2    0    0  0.95903839477E+03  0.29177121941E+03  0.12796967562E+04  0.16255795505E+04  0.00000000000E+00 0.  1.
<mgrwt>
<rscale>  0 0.33288004E+04</rscale>
<asrwt>0</asrwt>
<pdfrwt beam="1">  1        2 0.24877087E+00 0.33288004E+04</pdfrwt>
<pdfrwt beam="2">  1       -2 0.26356594E+00 0.33288004E+04</pdfrwt>
<totfact> 0.48236929E-01</totfact>
</mgrwt>
</event>
<event>
 6    1  0.1585031E-006  0.1867681E+04  0.7818608E-02  0.8671113E-01
          1   -1    0    0  501    0  0.00000000000E+00  0.00000000000E+00  0.15567772993E+04  0.15567772993E+04  0.00000000000E+00 0. -1.
         -1   -1    0    0    0  501 -0.00000000000E+00 -0.00000000000E+00 -0.56016885120E+03  0.56016885120E+03  0.00000000000E+00 0.  1.
         23    2    1    2    0    0 -0.26627246098E+03 -0.89068839961E+03  0.56837848124E+03  0.10934190365E+04  0.91017815362E+02 0.  0.
         11    1    3    3    0    0 -0.72110630640E+02 -0.37206025374E+03  0.25959867644E+03  0.45936940285E+03  0.00000000000E+00 0. -1.
        -11    1    3    3    0    0 -0.19416183034E+03 -0.51862814587E+03  0.30877980480E+03  0.63404963362E+03  0.00000000000E+00 0.  1.
         22    1    1    2    0    0  0.26627246098E+03  0.89068839961E+03  0.42822996689E+03  0.10235271141E+04  0.00000000000E+00 0.  1.
<mgrwt>
<rscale>  0 0.18676811E+04</rscale>
<asrwt>0</asrwt>
<pdfrwt beam="1">  1        1 0.23950420E+00 0.18676811E+04</pdfrwt>
<pdfrwt beam="2">  1       -1 0.86179824E-01 0.18676811E+04</pdfrwt>
<totfact> 0.74485380E+00</totfact>
</mgrwt>
</event>
<event>
 6    1  0.1585031E-006  0.2327505E+04  0.7818608E-02  0.8467155E-01
          1   -1    0    0  501    0  0.00000000000E+00  0.00000000000E+00  0.28711427233E+04  0.28711427233E+04  0.00000000000E+00 0. -1.
         -1   -1    0    0    0  501 -0.00000000000E+00 -0.00000000000E+00 -0.47170052217E+03  0.47170052217E+03  0.00000000000E+00 0.  1.
         23    2    1    2    0    0  0.35805421374E+03  0.10960531955E+04  0.99545396839E+03  0.15260553148E+04  0.91546673376E+02 0.  0.
         13    1    3    3    0    0  0.18339077948E+02  0.11991829149E+03  0.79555385988E+02  0.14507163008E+03  0.00000000000E+00 0. -1.
        -13    1    3    3    0    0  0.33971513579E+03  0.97613490399E+03  0.91589858240E+03  0.13809836847E+04  0.00000000000E+00 0.  1.
         22    1    1    2    0    0 -0.35805421374E+03 -0.10960531955E+04  0.14039882328E+04  0.18167879307E+04  0.00000000000E+00 0.  1.
<mgrwt>
<rscale>  0 0.23275047E+04</rscale>
<asrwt>0</asrwt>
<pdfrwt beam="1">  1        1 0.44171425E+00 0.23275047E+04</pdfrwt>
<pdfrwt beam="2">  1       -1 0.72569313E-01 0.23275047E+04</pdfrwt>
<totfact> 0.12801719E+00</totfact>
</mgrwt>
</event>
<event>
 6    1  0.1585031E-006  0.6617230E+03  0.7818608E-02  0.9785027E-01
         -3   -1    0    0    0  501 -0.00000000000E+00  0.00000000000E+00  0.18808771845E+03  0.18808771845E+03  0.00000000000E+00 0.  1.
          3   -1    0    0  501    0  0.00000000000E+00 -0.00000000000E+00 -0.58201209262E+03  0.58201209262E+03  0.00000000000E+00 0. -1.
         23    2    1    2    0    0  0.15619247291E+03  0.14875263304E+03  0.84398072306E+02  0.24539437253E+03  0.81067435093E+02 0.  0.
         13    1    3    3    0    0  0.11900828899E+03  0.63692337963E+02  0.31721639972E+02  0.13865766912E+03  0.00000000000E+00 0. -1.
        -13    1    3    3    0    0  0.37184183920E+02  0.85060295074E+02  0.52676432334E+02  0.10673670341E+03  0.00000000000E+00 0.  1.
         22    1    1    2    0    0 -0.15619247291E+03 -0.14875263304E+03 -0.47832244648E+03  0.52470543854E+03  0.00000000000E+00 0. -1.
<mgrwt>
<rscale>  0 0.66172298E+03</rscale>
<asrwt>0</asrwt>
<pdfrwt beam="1">  1        3 0.89540320E-01 0.66172298E+03</pdfrwt>
<pdfrwt beam="2">  1       -3 0.28936573E-01 0.66172298E+03</pdfrwt>
<totfact> 0.34538915E+01</totfact>
</mgrwt>
</event>
<event>
 6    1  0.1585031E-006  0.1861321E+04  0.7818608E-02  0.8674352E-01
          1   -1    0    0  501    0  0.00000000000E+00  0.00000000000E+00  0.27571789977E+04  0.27571789977E+04  0.00000000000E+00 0. -1.
         -1   -1    0    0    0  501 -0.00000000000E+00 -0.00000000000E+00 -0.31413607811E+03  0.31413607811E+03  0.00000000000E+00 0.  1.
         23    2    1    2    0    0  0.39794696123E+03 -0.10233858346E+03  0.25985055348E+04  0.26319933322E+04  0.79516771507E+02 0.  0.
         13    1    3    3    0    0  0.27221248495E+03 -0.84475948403E+02  0.19961726226E+04  0.20164178541E+04  0.00000000000E+00 0. -1.
        -13    1    3    3    0    0  0.12573447628E+03 -0.17862635056E+02  0.60233291217E+03  0.61557547818E+03  0.00000000000E+00 0.  1.
         22    1    1    2    0    0 -0.39794696123E+03  0.10233858346E+03 -0.15546261523E+03  0.43932174355E+03  0.00000000000E+00 0.  1.
<mgrwt>
<rscale>  0 0.18613215E+04</rscale>
<asrwt>0</asrwt>
<pdfrwt beam="1">  1        1 0.42418137E+00 0.18613215E+04</pdfrwt>
<pdfrwt beam="2">  1       -1 0.48328629E-01 0.18613215E+04</pdfrwt>
<totfact> 0.35992777E+00</totfact>
</mgrwt>
</event>
<event>
 6    1  0.1585031E-006  0.1884588E+04  0.7818608E-02  0.8662566E-01
          2   -1    0    0  501    0  0.00000000000E+00  0.00000000000E+00  0.15031638740E+04  0.15031638740E+04  0.00000000000E+00 0. -1.
         -2   -1    0    0    0  501 -0.00000000000E+00 -0.00000000000E+00 -0.59069949675E+03  0.59069949675E+03  0.00000000000E+00 0.  1.
         23    2    1    2    0    0  0.75163022269E+03  0.56179525775E+03  0.52323722390E+03  0.10779599894E+04  0.87513673492E+02 0.  0.
         13    1    3    3    0    0  0.48878743422E+03  0.40309816173E+03  0.38379788849E+03  0.74074428992E+03  0.00000000000E+00 0.  1.
        -13    1    3    3    0    0  0.26284278847E+03  0.15869709601E+03  0.13943933541E+03  0.33721569951E+03  0.00000000000E+00 0. -1.
         22    1    1    2    0    0 -0.75163022269E+03 -0.56179525775E+03  0.38922715338E+03  0.10159033813E+04  0.00000000000E+00 0. -1.
<mgrwt>
<rscale>  0 0.18845882E+04</rscale>
<asrwt>0</asrwt>
<pdfrwt beam="1">  1        2 0.23125598E+00 0.18845882E+04</pdfrwt>
<pdfrwt beam="2">  1       -2 0.90876846E-01 0.18845882E+04</pdfrwt>
<totfact> 0.12250714E+01</totfact>
</mgrwt>
</event>
<event>
 6    1  0.1585031E-006  0.2691666E+04  0.7818608E-02  0.8337714E-01
         -2   -1    0    0    0  501 -0.00000000000E+00  0.00000000000E+00  0.40141682725E+03  0.40141682725E+03  0.00000000000E+00 0. -1.
          2   -1    0    0  501    0  0.00000000000E+00 -0.00000000000E+00 -0.45121835659E+04  0.45121835659E+04  0.00000000000E+00 0.  1.
         23    2    1    2    0    0 -0.57215781603E+02  0.78365501215E+03 -0.40489205504E+04  0.41254292349E+04  0.89554033867E+02 0.  0.
         11    1    3    3    0    0  0.89908048384E+01  0.14918691538E+03 -0.93103890940E+03  0.94295865292E+03  0.00000000000E+00 0. -1.
        -11    1    3    3    0    0 -0.66206586441E+02  0.63446809677E+03 -0.31178816410E+04  0.31824705820E+04  0.00000000000E+00 0.  1.
         22    1    1    2    0    0  0.57215781603E+02 -0.78365501215E+03 -0.61846188277E+02  0.78817115827E+03  0.00000000000E+00 0. -1.
<mgrwt>
<rscale>  0 0.26916660E+04</rscale>
<asrwt>0</asrwt>
<pdfrwt beam="1">  1        2 0.69418210E+00 0.26916660E+04</pdfrwt>
<pdfrwt beam="2">  1       -2 0.61756434E-01 0.26916660E+04</pdfrwt>
<totfact> 0.25679749E-01</totfact>
</mgrwt>
</event>
<event>
 6    1  0.1585031E-006  0.1538367E+04  0.7818608E-02  0.8859333E-01
          1   -1    0    0  501    0  0.00000000000E+00  0.00000000000E+00  0.11419161123E+04  0.11419161123E+04  0.00000000000E+00 0. -1.
         -1   -1    0    0    0  501 -0.00000000000E+00 -0.00000000000E+00 -0.51811434536E+03  0.51811434536E+03  0.00000000000E+00 0.  1.
         23    2    1    2    0    0 -0.66186232065E+02 -0.47436351760E+03  0.95871778114E+03  0.10755904687E+04  0.91398622995E+02 0.  0.
         13    1    3    3    0    0 -0.70120715823E+02 -0.24717869682E+03  0.57210740113E+03  0.62715317218E+03  0.00000000000E+00 0. -1.
        -13    1    3    3    0    0  0.39344837587E+01 -0.22718482078E+03  0.38661038002E+03  0.44843729650E+03  0.00000000000E+00 0.  1.
         22    1    1    2    0    0  0.66186232065E+02  0.47436351760E+03 -0.33491601421E+03  0.58443998898E+03  0.00000000000E+00 0.  1.
<mgrwt>
<rscale>  0 0.15383668E+04</rscale>
<asrwt>0</asrwt>
<pdfrwt beam="1">  1        1 0.17567940E+00 0.15383668E+04</pdfrwt>
<pdfrwt beam="2">  1       -1 0.79709899E-01 0.15383668E+04</pdfrwt>
<totfact> 0.17882439E+01</totfact>
</mgrwt>
</event>
<event>
 6    1  0.1585031E-006  0.2816438E+04  0.7818608E-02  0.8298183E-01
         -2   -1    0    0    0  501 -0.00000000000E+00  0.00000000000E+00  0.18280551379E+04  0.18280551379E+04  0.00000000000E+00 0.  1.
          2   -1    0    0  501    0  0.00000000000E+00 -0.00000000000E+00 -0.10848036919E+04  0.10848036919E+04  0.00000000000E+00 0. -1.
         23    2    1    2    0    0 -0.44133882490E+03  0.95584414570E+03  0.13370213976E+04  0.17041484655E+04  0.89876501063E+02 0.  0.
         11    1    3    3    0    0 -0.32883805300E+03  0.67054523024E+03  0.88660362183E+03  0.11592374016E+04  0.00000000000E+00 0. -1.
        -11    1    3    3    0    0 -0.11250077189E+03  0.28529891545E+03  0.45041777581E+03  0.54491106394E+03  0.00000000000E+00 0.  1.
         22    1    1    2    0    0  0.44133882490E+03 -0.95584414570E+03 -0.59376995170E+03  0.12087103643E+04  0.00000000000E+00 0. -1.
<mgrwt>
<rscale>  0 0.28164381E+04</rscale>
<asrwt>0</asrwt>
<pdfrwt beam="1">  1        2 0.16689288E+00 0.28164381E+04</pdfrwt>
<pdfrwt beam="2">  1       -2 0.28123925E+00 0.28164381E+04</pdfrwt>
<totfact> 0.80066415E-01</totfact>
</mgrwt>
</event>
<event>
 6    1  0.1585031E-006  0.3974948E+04  0.7818608E-02  0.8009620E-01
         -2   -1    0    0    0  501 -0.00000000000E+00  0.00000000000E+00  0.11575032527E+04  0.11575032527E+04  0.00000000000E+00 0.  1.
          2   -1    0    0  501    0  0.00000000000E+00 -0.00000000000E+00 -0.34125628729E+04  0.34125628729E+04  0.00000000000E+00 0. -1.
         23    2    1    2    0    0 -0.40519009036E+03 -0.18411317278E+04 -0.40824297504E+03  0.19309987204E+04  0.90270056111E+02 0.  0.
         13    1    3    3    0    0 -0.14894302239E+03 -0.56361466979E+03 -0.16098955282E+03  0.60478356131E+03  0.00000000000E+00 0. -1.
        -13    1    3    3    0    0 -0.25624706796E+03 -0.12775170580E+04 -0.24725342222E+03  0.13262151591E+04  0.00000000000E+00 0.  1.
         22    1    1    2    0    0  0.40519009036E+03  0.18411317278E+04 -0.18468166452E+04  0.26390674052E+04  0.00000000000E+00 0.  1.
<mgrwt>
<rscale>  0 0.39749479E+04</rscale>
<asrwt>0</asrwt>
<pdfrwt beam="1">  1        2 0.52500968E+00 0.39749479E+04</pdfrwt>
<pdfrwt beam="2">  1       -2 0.17807742E+00 0.39749479E+04</pdfrwt>
<totfact> 0.13793841E-01</totfact>
</mgrwt>
</event>
<event>
 6    1  0.1585031E-006  0.1531234E+04  0.7818608E-02  0.8863944E-01
         -2   -1    0    0    0  501 -0.00000000000E+00  0.00000000000E+00  0.83125396921E+03  0.83125396921E+03  0.00000000000E+00 0.  1.
          2   -1    0    0  501    0  0.00000000000E+00 -0.00000000000E+00 -0.70516277951E+03  0.70516277951E+03  0.00000000000E+00 0. -1.
         23    2    1    2    0    0 -0.61563366444E+03 -0.43472348574E+03  0.18166124624E+03  0.78072015019E+03  0.92378713426E+02 0.  0.
         13    1    3    3    0    0 -0.87262255545E+02 -0.39523539996E+02  0.49377429590E+02  0.10777264036E+03  0.00000000000E+00 0.  1.
        -13    1    3    3    0    0 -0.52837140889E+03 -0.39519994574E+03  0.13228381665E+03  0.67294750984E+03  0.00000000000E+00 0. -1.
         22    1    1    2    0    0  0.61563366444E+03  0.43472348574E+03 -0.55570056535E+02  0.75569659853E+03  0.00000000000E+00 0. -1.
<mgrwt>
<rscale>  0 0.15312340E+04</rscale>
<asrwt>0</asrwt>
<pdfrwt beam="1">  1        2 0.10848658E+00 0.15312340E+04</pdfrwt>
<pdfrwt beam="2">  1       -2 0.12788523E+00 0.15312340E+04</pdfrwt>
<totfact> 0.17708956E+01</totfact>
</mgrwt>
</event>
<event>
 6    1  0.1585031E-006  0.1403079E+04  0.7818608E-02  0.8951593E-01
          1   -1    0    0  501    0  0.00000000000E+00  0.00000000000E+00  0.13145819032E+04  0.13145819032E+04  0.00000000000E+00 0. -1.
         -1   -1    0    0    0  501 -0.00000000000E+00 -0.00000000000E+00 -0.37438344220E+03  0.37438344220E+03  0.00000000000E+00 0.  1.
         23    2    1    2    0    0 -0.44528336067E+03  0.23596080245E+03  0.10549825431E+04  0.11721189881E+04  0.83186444327E+02 0.  0.
         11    1    3    3    0    0 -0.35564431923E+03  0.21246934530E+03  0.80161469942E+03  0.90233709378E+03  0.00000000000E+00 0.  1.
        -11    1    3    3    0    0 -0.89639041443E+02  0.23491457152E+02  0.25336784367E+03  0.26978189434E+03  0.00000000000E+00 0. -1.
         22    1    1    2    0    0  0.44528336067E+03 -0.23596080245E+03 -0.11478408204E+03  0.51684635732E+03  0.00000000000E+00 0.  1.
<mgrwt>
<rscale>  0 0.14030790E+04</rscale>
<asrwt>0</asrwt>
<pdfrwt beam="1">  1        1 0.20224337E+00 0.14030790E+04</pdfrwt>
<pdfrwt beam="2">  1       -1 0.57597453E-01 0.14030790E+04</pdfrwt>
<totfact> 0.26281518E+01</totfact>
</mgrwt>
</event>
<event>
 6    1  0.1585031E-006  0.3848767E+04  0.7818608E-02  0.8035770E-01
         -1   -1    0    0    0  501 -0.00000000000E+00  0.00000000000E+00  0.13461344432E+04  0.13461344432E+04  0.00000000000E+00 0.  1.
          1   -1    0    0  501    0  0.00000000000E+00 -0.00000000000E+00 -0.27510263084E+04  0.27510263084E+04  0.00000000000E+00 0. -1.
         23    2    1    2    0    0 -0.11427499920E+04  0.13832436141E+04 -0.14402499494E+04  0.23025882023E+04  0.91389674197E+02 0.  0.
         13    1    3    3    0    0 -0.92023622600E+02  0.12662654333E+03 -0.96256859286E+02  0.18376074540E+03  0.00000000000E+00 0. -1.
        -13    1    3    3    0    0 -0.10507263694E+04  0.12566170708E+04 -0.13439930901E+04  0.21188274569E+04  0.00000000000E+00 0.  1.
         22    1    1    2    0    0  0.11427499920E+04 -0.13832436141E+04  0.35358084154E+02  0.17945725492E+04  0.00000000000E+00 0.  1.
<mgrwt>
<rscale>  0 0.38487667E+04</rscale>
<asrwt>0</asrwt>
<pdfrwt beam="1">  1        1 0.42323481E+00 0.38487667E+04</pdfrwt>
<pdfrwt beam="2">  1       -1 0.20709761E+00 0.38487667E+04</pdfrwt>
<totfact> 0.96253581E-02</totfact>
</mgrwt>
</event>
<event>
 6    1  0.1585031E-006  0.2226532E+04  0.7818608E-02  0.8507465E-01
          2   -1    0    0  501    0  0.00000000000E+00  0.00000000000E+00  0.84611995852E+03  0.84611995852E+03  0.00000000000E+00 0. -1.
         -2   -1    0    0    0  501 -0.00000000000E+00 -0.00000000000E+00 -0.14647584481E+04  0.14647584481E+04  0.00000000000E+00 0.  1.
         23    2    1    2    0    0  0.49883814932E+03 -0.27935515318E+03  0.67855117527E+03  0.89328190994E+03  0.10316042037E+03 0.  0.
         13    1    3    3    0    0  0.41095402218E+03 -0.18095148200E+03  0.52355120413E+03  0.68973365188E+03  0.00000000000E+00 0.  1.
        -13    1    3    3    0    0  0.87884127133E+02 -0.98403671184E+02  0.15499997114E+03  0.20354825806E+03  0.00000000000E+00 0. -1.
         22    1    1    2    0    0 -0.49883814932E+03  0.27935515318E+03 -0.12971896648E+04  0.14175964966E+04  0.00000000000E+00 0.  1.
<mgrwt>
<rscale>  0 0.22265322E+04</rscale>
<asrwt>0</asrwt>
<pdfrwt beam="1">  1        2 0.13017230E+00 0.22265322E+04</pdfrwt>
<pdfrwt beam="2">  1       -2 0.22534745E+00 0.22265322E+04</pdfrwt>
<totfact> 0.26627445E+00</totfact>
</mgrwt>
</event>
<event>
 6    1  0.1585031E-006  0.1455200E+04  0.7818608E-02  0.8914803E-01
          1   -1    0    0  501    0  0.00000000000E+00  0.00000000000E+00  0.13558954083E+04  0.13558954083E+04  0.00000000000E+00 0. -1.
         -1   -1    0    0    0  501 -0.00000000000E+00 -0.00000000000E+00 -0.39044447074E+03  0.39044447074E+03  0.00000000000E+00 0.  1.
         23    2    1    2    0    0 -0.52931236924E+02 -0.21717806765E+03  0.13119427582E+04  0.13339994727E+04  0.91612026678E+02 0.  0.
         11    1    3    3    0    0 -0.67886602692E+02 -0.12861847972E+03  0.95067215235E+03  0.96173221086E+03  0.00000000000E+00 0.  1.
        -11    1    3    3    0    0  0.14955365767E+02 -0.88559587926E+02  0.36127060585E+03  0.37226726183E+03  0.00000000000E+00 0. -1.
         22    1    1    2    0    0  0.52931236924E+02  0.21717806765E+03 -0.34649182066E+03  0.41234040634E+03  0.00000000000E+00 0.  1.
<mgrwt>
<rscale>  0 0.14552001E+04</rscale>
<asrwt>0</asrwt>
<pdfrwt beam="1">  1        1 0.20859929E+00 0.14552001E+04</pdfrwt>
<pdfrwt beam="2">  1       -1 0.60068381E-01 0.14552001E+04</pdfrwt>
<totfact> 0.22516332E+01</totfact>
</mgrwt>
</event>
<event>
 6    1  0.1585031E-006  0.4339563E+04  0.7818608E-02  0.7939343E-01
         -1   -1    0    0    0  501 -0.00000000000E+00  0.00000000000E+00  0.28156527133E+04  0.28156527133E+04  0.00000000000E+00 0.  1.
          1   -1    0    0  501    0  0.00000000000E+00 -0.00000000000E+00 -0.16720639563E+04  0.16720639563E+04  0.00000000000E+00 0. -1.
         23    2    1    2    0    0 -0.11604085791E+03  0.33559546450E+03  0.27846644546E+04  0.28086635908E+04  0.90251011048E+02 0.  0.
         13    1    3    3    0    0 -0.45479341823E+01  0.11518381316E+03  0.70179538492E+03  0.71119951969E+03  0.00000000000E+00 0.  1.
        -13    1    3    3    0    0 -0.11149292372E+03  0.22041165134E+03  0.20828690697E+04  0.20974640711E+04  0.00000000000E+00 0. -1.
         22    1    1    2    0    0  0.11604085791E+03 -0.33559546450E+03 -0.16410756976E+04  0.16790530789E+04  0.00000000000E+00 0. -1.
<mgrwt>
<rscale>  0 0.43395628E+04</rscale>
<asrwt>0</asrwt>
<pdfrwt beam="1">  1        1 0.25724061E+00 0.43395628E+04</pdfrwt>
<pdfrwt beam="2">  1       -1 0.43317734E+00 0.43395628E+04</pdfrwt>
<totfact> 0.16033021E-02</totfact>
</mgrwt>
</event>
<event>
 6    1  0.1585031E-006  0.1377888E+04  0.7818608E-02  0.8969982E-01
          2   -1    0    0  501    0  0.00000000000E+00  0.00000000000E+00  0.17666952481E+04  0.17666952481E+04  0.00000000000E+00 0. -1.
         -2   -1    0    0    0  501 -0.00000000000E+00 -0.00000000000E+00 -0.26866190639E+03  0.26866190639E+03  0.00000000000E+00 0.  1.
         23    2    1    2    0    0 -0.21751491280E+03  0.44158441872E+03  0.14578880849E+04  0.15414733850E+04  0.91613275145E+02 0.  0.
         11    1    3    3    0    0 -0.10033512168E+03  0.29770889177E+03  0.96246868992E+03  0.10124444182E+04  0.00000000000E+00 0. -1.
        -11    1    3    3    0    0 -0.11717979112E+03  0.14387552695E+03  0.49541939501E+03  0.52902896674E+03  0.00000000000E+00 0.  1.
         22    1    1    2    0    0  0.21751491280E+03 -0.44158441872E+03  0.40145256754E+02  0.49388376952E+03  0.00000000000E+00 0.  1.
<mgrwt>
<rscale>  0 0.13778878E+04</rscale>
<asrwt>0</asrwt>
<pdfrwt beam="1">  1        2 0.27179926E+00 0.13778878E+04</pdfrwt>
<pdfrwt beam="2">  1       -2 0.41332602E-01 0.13778878E+04</pdfrwt>
<totfact> 0.48673101E+01</totfact>
</mgrwt>
</event>
<event>
 6    1  0.1585031E-006  0.5815181E+04  0.7818608E-02  0.7713749E-01
          2   -1    0    0  501    0  0.00000000000E+00  0.00000000000E+00  0.45867301996E+04  0.45867301996E+04  0.00000000000E+00 0. -1.
         -2   -1    0    0    0  501 -0.00000000000E+00 -0.00000000000E+00 -0.18431613253E+04  0.18431613253E+04  0.00000000000E+00 0.  1.
         23    2    1    2    0    0  0.15539677904E+04  0.23459359055E+04  0.56590224796E+03  0.28717370732E+04  0.91636765652E+02 0.  0.
         11    1    3    3    0    0  0.18449797959E+03  0.25283787343E+03  0.37522518426E+02  0.31523710775E+03  0.00000000000E+00 0. -1.
        -11    1    3    3    0    0  0.13694698108E+04  0.20930980321E+04  0.52837972954E+03  0.25564999654E+04  0.00000000000E+00 0.  1.
         22    1    1    2    0    0 -0.15539677904E+04 -0.23459359055E+04  0.21776666264E+04  0.35581544517E+04  0.00000000000E+00 0.  1.
<mgrwt>
<rscale>  0 0.58151814E+04</rscale>
<asrwt>0</asrwt>
<pdfrwt beam="1">  1        2 0.70565079E+00 0.58151814E+04</pdfrwt>
<pdfrwt beam="2">  1       -2 0.28356328E+00 0.58151814E+04</pdfrwt>
<totfact> 0.27222319E-03</totfact>
</mgrwt>
</event>
<event>
 6    1  0.1585031E-006  0.1755416E+04  0.7818608E-02  0.8730375E-01
          1   -1    0    0  501    0  0.00000000000E+00  0.00000000000E+00  0.58793382521E+03  0.58793382521E+03  0.00000000000E+00 0. -1.
         -1   -1    0    0    0  501 -0.00000000000E+00 -0.00000000000E+00 -0.13103031324E+04  0.13103031324E+04  0.00000000000E+00 0.  1.
         23    2    1    2    0    0 -0.12825790696E+03  0.58591896427E+03  0.32739937598E+03  0.68920204845E+03  0.89766301082E+02 0.  0.
         11    1    3    3    0    0 -0.70339482238E+02  0.47713878244E+03  0.24502035678E+03  0.54096583599E+03  0.00000000000E+00 0.  1.
        -11    1    3    3    0    0 -0.57918424723E+02  0.10878018183E+03  0.82379019201E+02  0.14823621247E+03  0.00000000000E+00 0. -1.
         22    1    1    2    0    0  0.12825790696E+03 -0.58591896427E+03 -0.10497686832E+04  0.12090349091E+04  0.00000000000E+00 0.  1.
<mgrwt>
<rscale>  0 0.17554162E+04</rscale>
<asrwt>0</asrwt>
<pdfrwt beam="1">  1        1 0.90451357E-01 0.17554162E+04</pdfrwt>
<pdfrwt beam="2">  1       -1 0.20158510E+00 0.17554162E+04</pdfrwt>
<totfact> 0.49018377E+00</totfact>
</mgrwt>
</event>
<event>
 6    1  0.1585031E-006  0.1577999E+04  0.7818608E-02  0.8834179E-01
          2   -1    0    0  501    0  0.00000000000E+00  0.00000000000E+00  0.30986474619E+04  0.30986474619E+04  0.00000000000E+00 0. -1.
         -2   -1    0    0    0  501 -0.00000000000E+00 -0.00000000000E+00 -0.20090050992E+03  0.20090050992E+03  0.00000000000E+00 0.  1.
         23    2    1    2    0    0 -0.14922580878E+03  0.76774218425E+03  0.12819808576E+04  0.15044444999E+04  0.90454023024E+02 0.  0.
         13    1    3    3    0    0 -0.35957870637E+02  0.39258390387E+03  0.60117363617E+03  0.71890530035E+03  0.00000000000E+00 0.  1.
        -13    1    3    3    0    0 -0.11326793814E+03  0.37515828039E+03  0.68080722147E+03  0.78553919951E+03  0.00000000000E+00 0. -1.
         22    1    1    2    0    0  0.14922580878E+03 -0.76774218425E+03  0.16157660943E+04  0.17951034719E+04  0.00000000000E+00 0.  1.
<mgrwt>
<rscale>  0 0.15779985E+04</rscale>
<asrwt>0</asrwt>
<pdfrwt beam="1">  1        2 0.47671496E+00 0.15779985E+04</pdfrwt>
<pdfrwt beam="2">  1       -2 0.30907773E-01 0.15779985E+04</pdfrwt>
<totfact> 0.14148207E+01</totfact>
</mgrwt>
</event>
<event>
 6    1  0.1585031E-006  0.2187472E+04  0.7818608E-02  0.8523661E-01
         -1   -1    0    0    0  501 -0.00000000000E+00  0.00000000000E+00  0.80376900554E+03  0.80376900554E+03  0.00000000000E+00 0.  1.
          1   -1    0    0  501    0  0.00000000000E+00 -0.00000000000E+00 -0.14883114004E+04  0.14883114004E+04  0.00000000000E+00 0. -1.
         23    2    1    2    0    0  0.34198350411E+02 -0.93549738555E+03  0.24592865725E+03  0.97219356824E+03  0.91403195392E+02 0.  0.
         11    1    3    3    0    0 -0.96671867323E+01 -0.11065379141E+03  0.26620319842E+01  0.11110716658E+03  0.00000000000E+00 0.  1.
        -11    1    3    3    0    0  0.43865537144E+02 -0.82484359414E+03  0.24326662527E+03  0.86108640166E+03  0.00000000000E+00 0. -1.
         22    1    1    2    0    0 -0.34198350411E+02  0.93549738555E+03 -0.93047105212E+03  0.13198868377E+04  0.00000000000E+00 0. -1.
<mgrwt>
<rscale>  0 0.21874721E+04</rscale>
<asrwt>0</asrwt>
<pdfrwt beam="1">  1        1 0.22897098E+00 0.21874721E+04</pdfrwt>
<pdfrwt beam="2">  1       -1 0.12365677E+00 0.21874721E+04</pdfrwt>
<totfact> 0.34971535E+00</totfact>
</mgrwt>
</event>
<event>
 6    1  0.1585031E-006  0.2256534E+04  0.7818608E-02  0.8495259E-01
         -1   -1    0    0    0  501 -0.00000000000E+00  0.00000000000E+00  0.10001147437E+04  0.10001147437E+04  0.00000000000E+00 0.  1.
          1   -1    0    0  501    0  0.00000000000E+00 -0.00000000000E+00 -0.12728404323E+04  0.12728404323E+04  0.00000000000E+00 0. -1.
         23    2    1    2    0    0  0.62571641526E+03 -0.19395300441E+03  0.78653401067E+03  0.10274954573E+04  0.89288099104E+02 0.  0.
         11    1    3    3    0    0  0.65127472902E+02 -0.33301307624E+02  0.52628650744E+02  0.90112927459E+02  0.00000000000E+00 0. -1.
        -11    1    3    3    0    0  0.56058894236E+03 -0.16065169679E+03  0.73390535993E+03  0.93738252987E+03  0.00000000000E+00 0.  1.
         22    1    1    2    0    0 -0.62571641526E+03  0.19395300441E+03 -0.10592596992E+04  0.12454597186E+04  0.00000000000E+00 0. -1.
<mgrwt>
<rscale>  0 0.22565341E+04</rscale>
<asrwt>0</asrwt>
<pdfrwt beam="1">  1        1 0.19582160E+00 0.22565341E+04</pdfrwt>
<pdfrwt beam="2">  1       -1 0.15386381E+00 0.22565341E+04</pdfrwt>
<totfact> 0.27951875E+00</totfact>
</mgrwt>
</event>
<event>
 6    1  0.1585031E-006  0.2763546E+04  0.7818608E-02  0.8314676E-01
         -2   -1    0    0    0  501 -0.00000000000E+00  0.00000000000E+00  0.10648585651E+04  0.10648585651E+04  0.00000000000E+00 0.  1.
          2   -1    0    0  501    0  0.00000000000E+00 -0.00000000000E+00 -0.17930052788E+04  0.17930052788E+04  0.00000000000E+00 0. -1.
         23    2    1    2    0    0  0.53031461796E+03  0.29598487804E+03 -0.16462162489E+04  0.17570948792E+04  0.92270442260E+02 0.  0.
         13    1    3    3    0    0  0.41545381772E+03  0.18952460189E+03 -0.11798566405E+04  0.12651415500E+04  0.00000000000E+00 0.  1.
        -13    1    3    3    0    0  0.11486080024E+03  0.10646027615E+03 -0.46635960832E+03  0.49195332919E+03  0.00000000000E+00 0. -1.
         22    1    1    2    0    0 -0.53031461796E+03 -0.29598487804E+03  0.91806953518E+03  0.11007689646E+04  0.00000000000E+00 0.  1.
<mgrwt>
<rscale>  0 0.27635463E+04</rscale>
<asrwt>0</asrwt>
<pdfrwt beam="1">  1        2 0.27584697E+00 0.27635463E+04</pdfrwt>
<pdfrwt beam="2">  1       -2 0.16382439E+00 0.27635463E+04</pdfrwt>
<totfact> 0.17944101E+00</totfact>
</mgrwt>
</event>
<event>
 6    1  0.1585031E-006  0.1510726E+04  0.7818608E-02  0.8877352E-01
          2   -1    0    0  501    0  0.00000000000E+00  0.00000000000E+00  0.14698061782E+04  0.14698061782E+04  0.00000000000E+00 0. -1.
         -2   -1    0    0    0  501 -0.00000000000E+00 -0.00000000000E+00 -0.38819608750E+03  0.38819608750E+03  0.00000000000E+00 0.  1.
         23    2    1    2    0    0  0.71863950613E+03  0.22245030417E+03  0.57172998788E+03  0.94920933172E+03  0.90533412588E+02 0.  0.
         13    1    3    3    0    0  0.26113364441E+03  0.95279018786E+02  0.16011058377E+03  0.32078695532E+03  0.00000000000E+00 0. -1.
        -13    1    3    3    0    0  0.45750586171E+03  0.12717128538E+03  0.41161940411E+03  0.62842237640E+03  0.00000000000E+00 0.  1.
         22    1    1    2    0    0 -0.71863950613E+03 -0.22245030417E+03  0.50988010280E+03  0.90879293396E+03  0.00000000000E+00 0.  1.
<mgrwt>
<rscale>  0 0.15107257E+04</rscale>
<asrwt>0</asrwt>
<pdfrwt beam="1">  1        2 0.22612402E+00 0.15107257E+04</pdfrwt>
<pdfrwt beam="2">  1       -2 0.59722476E-01 0.15107257E+04</pdfrwt>
<totfact> 0.33335037E+01</totfact>
</mgrwt>
</event>
<event>
 6    1  0.1585031E-006  0.1383936E+04  0.7818608E-02  0.8965529E-01
          1   -1    0    0  501    0  0.00000000000E+00  0.00000000000E+00  0.27461996063E+04  0.27461996063E+04  0.00000000000E+00 0. -1.
         -1   -1    0    0    0  501 -0.00000000000E+00 -0.00000000000E+00 -0.17435733425E+03  0.17435733425E+03  0.00000000000E+00 0.  1.
         23    2    1    2    0    0  0.38474669451E+03  0.15171188265E+03  0.13434529600E+03  0.44822241170E+03  0.10866534645E+03 0.  0.
         11    1    3    3    0    0  0.18027779375E+03  0.11806522358E+03  0.10227546811E+03  0.23853668756E+03  0.00000000000E+00 0. -1.
        -11    1    3    3    0    0  0.20446890076E+03  0.33646659069E+02  0.32069827895E+02  0.20968572414E+03  0.00000000000E+00 0.  1.
         22    1    1    2    0    0 -0.38474669451E+03 -0.15171188265E+03  0.24374969761E+04  0.24723345289E+04  0.00000000000E+00 0. -1.
<mgrwt>
<rscale>  0 0.13839365E+04</rscale>
<asrwt>0</asrwt>
<pdfrwt beam="1">  1        1 0.42249222E+00 0.13839365E+04</pdfrwt>
<pdfrwt beam="2">  1       -1 0.26824207E-01 0.13839365E+04</pdfrwt>
<totfact> 0.11085428E+01</totfact>
</mgrwt>
</event>
<event>
 6    1  0.1585031E-006  0.9611308E+03  0.7818608E-02  0.9352234E-01
         -1   -1    0    0    0  501 -0.00000000000E+00  0.00000000000E+00  0.16923417987E+03  0.16923417987E+03  0.00000000000E+00 0.  1.
          1   -1    0    0  501    0  0.00000000000E+00 -0.00000000000E+00 -0.13646362363E+04  0.13646362363E+04  0.00000000000E+00 0. -1.
         23    2    1    2    0    0 -0.43843481106E+03 -0.58765510656E+02 -0.32288179003E+03  0.55562193850E+03  0.93726300565E+02 0.  0.
         13    1    3    3    0    0 -0.23700181846E+03 -0.27657766949E+02 -0.23078906785E+03  0.33196145538E+03  0.00000000000E+00 0. -1.
        -13    1    3    3    0    0 -0.20143299261E+03 -0.31107743707E+02 -0.92092722186E+02  0.22366048312E+03  0.00000000000E+00 0.  1.
         22    1    1    2    0    0  0.43843481106E+03  0.58765510656E+02 -0.87252026637E+03  0.97824847764E+03  0.00000000000E+00 0. -1.
<mgrwt>
<rscale>  0 0.96113078E+03</rscale>
<asrwt>0</asrwt>
<pdfrwt beam="1">  1        1 0.20994404E+00 0.96113078E+03</pdfrwt>
<pdfrwt beam="2">  1       -1 0.26036027E-01 0.96113078E+03</pdfrwt>
<totfact> 0.10672186E+02</totfact>
</mgrwt>
</event>
<event>
 6    1  0.1585031E-006  0.2896986E+04  0.7818608E-02  0.8273775E-01
         -2   -1    0    0    0  501 -0.00000000000E+00  0.00000000000E+00  0.66546287796E+03  0.66546287796E+03  0.00000000000E+00 0.  1.
          2   -1    0    0  501    0  0.00000000000E+00 -0.00000000000E+00 -0.31528914867E+04  0.31528914867E+04  0.00000000000E+00 0. -1.
         23    2    1    2    0    0  0.38951794631E+03  0.83416365512E+03 -0.27163717895E+04  0.28696878194E+04  0.94229760478E+02 0.  0.
         11    1    3    3    0    0  0.26781455817E+02  0.86677003057E+02 -0.19785489764E+03  0.21766191618E+03  0.00000000000E+00 0. -1.
        -11    1    3    3    0    0  0.36273649049E+03  0.74748665206E+03 -0.25185168919E+04  0.26520259032E+04  0.00000000000E+00 0.  1.
         22    1    1    2    0    0 -0.38951794631E+03 -0.83416365512E+03  0.22894318083E+03  0.94866654525E+03  0.00000000000E+00 0.  1.
<mgrwt>
<rscale>  0 0.28969862E+04</rscale>
<asrwt>0</asrwt>
<pdfrwt beam="1">  1        2 0.48506024E+00 0.28969862E+04</pdfrwt>
<pdfrwt beam="2">  1       -2 0.10237890E+00 0.28969862E+04</pdfrwt>
<totfact> 0.93763297E-01</totfact>
</mgrwt>
</event>
<event>
 6    1  0.1585031E-006  0.1258946E+04  0.7818608E-02  0.9062770E-01
          2   -1    0    0  501    0  0.00000000000E+00  0.00000000000E+00  0.15917578804E+04  0.15917578804E+04  0.00000000000E+00 0. -1.
         -2   -1    0    0    0  501 -0.00000000000E+00 -0.00000000000E+00 -0.24893014364E+03  0.24893014364E+03  0.00000000000E+00 0.  1.
         23    2    1    2    0    0  0.19008409469E+03  0.31722079004E+03  0.14137006424E+04  0.14641459129E+04  0.91721072502E+02 0.  0.
         11    1    3    3    0    0  0.15002914374E+03  0.16383299748E+03  0.79442828766E+03  0.82490381213E+03  0.00000000000E+00 0. -1.
        -11    1    3    3    0    0  0.40054950957E+02  0.15338779256E+03  0.61927235476E+03  0.63924210075E+03  0.00000000000E+00 0.  1.
         22    1    1    2    0    0 -0.19008409469E+03 -0.31722079004E+03 -0.70872905691E+02  0.37654211112E+03  0.00000000000E+00 0.  1.
<mgrwt>
<rscale>  0 0.12589464E+04</rscale>
<asrwt>0</asrwt>
<pdfrwt beam="1">  1        2 0.24488582E+00 0.12589464E+04</pdfrwt>
<pdfrwt beam="2">  1       -2 0.38296946E-01 0.12589464E+04</pdfrwt>
<totfact> 0.71304910E+01</totfact>
</mgrwt>
</event>
<event>
 6    1  0.1585031E-006  0.1506855E+04  0.7818608E-02  0.8879907E-01
         -3   -1    0    0    0  501 -0.00000000000E+00  0.00000000000E+00  0.12494442448E+04  0.12494442448E+04  0.00000000000E+00 0.  1.
          3   -1    0    0  501    0  0.00000000000E+00 -0.00000000000E+00 -0.45432459357E+03  0.45432459357E+03  0.00000000000E+00 0. -1.
         23    2    1    2    0    0  0.63515933255E+02  0.14129371113E+03  0.12295024000E+04  0.12425893081E+04  0.91399400726E+02 0.  0.
         11    1    3    3    0    0  0.63193953669E+02  0.32517457561E+02  0.49507906319E+03  0.50015411589E+03  0.00000000000E+00 0.  1.
        -11    1    3    3    0    0  0.32197958556E+00  0.10877625357E+03  0.73442333683E+03  0.74243519225E+03  0.00000000000E+00 0. -1.
         22    1    1    2    0    0 -0.63515933255E+02 -0.14129371113E+03 -0.43438274884E+03  0.46117953019E+03  0.00000000000E+00 0. -1.
<mgrwt>
<rscale>  0 0.15068553E+04</rscale>
<asrwt>0</asrwt>
<pdfrwt beam="1">  1        3 0.69896092E-01 0.15068553E+04</pdfrwt>
<pdfrwt beam="2">  1       -3 0.19222219E+00 0.15068553E+04</pdfrwt>
<totfact> 0.81354335E-01</totfact>
</mgrwt>
</event>
<event>
 6    1  0.1585031E-006  0.5792750E+04  0.7818608E-02  0.7716643E-01
          1   -1    0    0  501    0  0.00000000000E+00  0.00000000000E+00  0.36536581331E+04  0.36536581331E+04  0.00000000000E+00 0. -1.
         -1   -1    0    0    0  501 -0.00000000000E+00 -0.00000000000E+00 -0.22960517258E+04  0.22960517258E+04  0.00000000000E+00 0.  1.
         23    2    1    2    0    0 -0.10995549276E+04  0.70865805000E+03  0.33322990585E+04  0.35810333640E+04  0.91464027664E+02 0.  0.
         13    1    3    3    0    0 -0.23058730855E+03  0.17231585888E+03  0.82412127109E+03  0.87294852743E+03  0.00000000000E+00 0. -1.
        -13    1    3    3    0    0 -0.86896761901E+03  0.53634219112E+03  0.25081777874E+04  0.27080848366E+04  0.00000000000E+00 0.  1.
         22    1    1    2    0    0  0.10995549276E+04 -0.70865805000E+03 -0.19746926512E+04  0.23686764948E+04  0.00000000000E+00 0.  1.
<mgrwt>
<rscale>  0 0.57927500E+04</rscale>
<asrwt>0</asrwt>
<pdfrwt beam="1">  1        1 0.56210125E+00 0.57927500E+04</pdfrwt>
<pdfrwt beam="2">  1       -1 0.35323873E+00 0.57927500E+04</pdfrwt>
<totfact> 0.18859973E-03</totfact>
</mgrwt>
</event>
<event>
 6    1  0.1585031E-006  0.1860959E+04  0.7818608E-02  0.8674537E-01
          1   -1    0    0  501    0  0.00000000000E+00  0.00000000000E+00  0.10747649386E+04  0.10747649386E+04  0.00000000000E+00 0. -1.
         -1   -1    0    0    0  501 -0.00000000000E+00 -0.00000000000E+00 -0.80556410405E+03  0.80556410405E+03  0.00000000000E+00 0.  1.
         23    2    1    2    0    0  0.32520330432E+03 -0.38029624316E+03  0.92491169433E+03  0.10555023013E+04  0.90780196352E+02 0.  0.
         13    1    3    3    0    0  0.15479768677E+03 -0.15826615289E+03  0.49842126033E+03  0.54537533106E+03  0.00000000000E+00 0.  1.
        -13    1    3    3    0    0  0.17040561755E+03 -0.22203009027E+03  0.42649043400E+03  0.51012697025E+03  0.00000000000E+00 0. -1.
         22    1    1    2    0    0 -0.32520330432E+03  0.38029624316E+03 -0.65571085975E+03  0.82482674138E+03  0.00000000000E+00 0.  1.
<mgrwt>
<rscale>  0 0.18609590E+04</rscale>
<asrwt>0</asrwt>
<pdfrwt beam="1">  1        1 0.16534845E+00 0.18609590E+04</pdfrwt>
<pdfrwt beam="2">  1       -1 0.12393294E+00 0.18609590E+04</pdfrwt>
<totfact> 0.71113415E+00</totfact>
</mgrwt>
</event>
<event>
 6    1  0.1585031E-006  0.2285312E+04  0.7818608E-02  0.8483735E-01
          2   -1    0    0  501    0  0.00000000000E+00  0.00000000000E+00  0.97543292988E+03  0.97543292988E+03  0.00000000000E+00 0. -1.
         -2   -1    0    0    0  501 -0.00000000000E+00 -0.00000000000E+00 -0.13385465839E+04  0.13385465839E+04  0.00000000000E+00 0.  1.
         23    2    1    2    0    0  0.41528500470E+03 -0.59819078754E+03  0.70773049871E+03  0.10189887598E+04  0.84627302781E+02 0.  0.
         11    1    3    3    0    0  0.20281351617E+03 -0.30732320365E+03  0.30014009705E+03  0.47504205256E+03  0.00000000000E+00 0. -1.
        -11    1    3    3    0    0  0.21247148853E+03 -0.29086758389E+03  0.40759040166E+03  0.54394670724E+03  0.00000000000E+00 0.  1.
         22    1    1    2    0    0 -0.41528500470E+03  0.59819078754E+03 -0.10708441527E+04  0.12949907539E+04  0.00000000000E+00 0.  1.
<mgrwt>
<rscale>  0 0.22853117E+04</rscale>
<asrwt>0</asrwt>
<pdfrwt beam="1">  1        2 0.15006661E+00 0.22853117E+04</pdfrwt>
<pdfrwt beam="2">  1       -2 0.20593024E+00 0.22853117E+04</pdfrwt>
<totfact> 0.28845018E+00</totfact>
</mgrwt>
</event>
<event>
 6    1  0.1585031E-006  0.3305335E+04  0.7818608E-02  0.8161539E-01
         -2   -1    0    0    0  501 -0.00000000000E+00  0.00000000000E+00  0.95352159204E+03  0.95352159204E+03  0.00000000000E+00 0. -1.
          2   -1    0    0  501    0  0.00000000000E+00 -0.00000000000E+00 -0.28644443312E+04  0.28644443312E+04  0.00000000000E+00 0.  1.
         23    2    1    2    0    0  0.11153583185E+04 -0.71406854492E+03 -0.20956858077E+04  0.24807840145E+04  0.92044860619E+02 0.  0.
         13    1    3    3    0    0  0.20854259397E+03 -0.10003206406E+03 -0.40501223825E+03  0.46640255195E+03  0.00000000000E+00 0.  1.
        -13    1    3    3    0    0  0.90681572456E+03 -0.61403648086E+03 -0.16906735695E+04  0.20143814625E+04  0.00000000000E+00 0. -1.
         22    1    1    2    0    0 -0.11153583185E+04  0.71406854492E+03  0.18476306856E+03  0.13371819087E+04  0.00000000000E+00 0. -1.
<mgrwt>
<rscale>  0 0.33053348E+04</rscale>
<asrwt>0</asrwt>
<pdfrwt beam="1">  1        2 0.44068374E+00 0.33053348E+04</pdfrwt>
<pdfrwt beam="2">  1       -2 0.14669563E+00 0.33053348E+04</pdfrwt>
<totfact> 0.56020894E-01</totfact>
</mgrwt>
</event>
<event>
 6    1  0.1585031E-006  0.3116198E+04  0.7818608E-02  0.8211306E-01
         -1   -1    0    0    0  501 -0.00000000000E+00  0.00000000000E+00  0.15240923873E+04  0.15240923873E+04  0.00000000000E+00 0.  1.
          1   -1    0    0  501    0  0.00000000000E+00 -0.00000000000E+00 -0.15928646148E+04  0.15928646148E+04  0.00000000000E+00 0. -1.
         23    2    1    2    0    0  0.14381102599E+04 -0.59163967779E+03  0.38744548436E+02  0.15581887432E+04  0.90842675147E+02 0.  0.
         13    1    3    3    0    0  0.48273177335E+03 -0.20172740692E+03 -0.29789860525E+02  0.52403372744E+03  0.00000000000E+00 0. -1.
        -13    1    3    3    0    0  0.95537848650E+03 -0.38991227087E+03  0.68534408961E+02  0.10341550158E+04  0.00000000000E+00 0.  1.
         22    1    1    2    0    0 -0.14381102599E+04  0.59163967779E+03 -0.10751677591E+03  0.15587682589E+04  0.00000000000E+00 0. -1.
<mgrwt>
<rscale>  0 0.31161982E+04</rscale>
<asrwt>0</asrwt>
<pdfrwt beam="1">  1        1 0.24505609E+00 0.31161982E+04</pdfrwt>
<pdfrwt beam="2">  1       -1 0.23447575E+00 0.31161982E+04</pdfrwt>
<totfact> 0.41928555E-01</totfact>
</mgrwt>
</event>
<event>
 6    1  0.1585031E-006  0.3345418E+04  0.7818608E-02  0.8151434E-01
         -1   -1    0    0    0  501 -0.00000000000E+00  0.00000000000E+00  0.62524720259E+03  0.62524720259E+03  0.00000000000E+00 0.  1.
          1   -1    0    0  501    0  0.00000000000E+00 -0.00000000000E+00 -0.44749596644E+04  0.44749596644E+04  0.00000000000E+00 0. -1.
         23    2    1    2    0    0 -0.49545637741E+03 -0.15138497976E+04 -0.11539800365E+04  0.19690423008E+04  0.90771283750E+02 0.  0.
         13    1    3    3    0    0 -0.28903625498E+03 -0.90764128362E+03 -0.63558606898E+03  0.11451306945E+04  0.00000000000E+00 0. -1.
        -13    1    3    3    0    0 -0.20642012243E+03 -0.60620851402E+03 -0.51839396752E+03  0.82391160629E+03  0.00000000000E+00 0.  1.
         22    1    1    2    0    0  0.49545637741E+03  0.15138497976E+04 -0.26957324253E+04  0.31311645662E+04  0.00000000000E+00 0. -1.
<mgrwt>
<rscale>  0 0.33454184E+04</rscale>
<asrwt>0</asrwt>
<pdfrwt beam="1">  1        1 0.68845535E+00 0.33454184E+04</pdfrwt>
<pdfrwt beam="2">  1       -1 0.96191875E-01 0.33454184E+04</pdfrwt>
<totfact> 0.29314757E-02</totfact>
</mgrwt>
</event>
<event>
 6    1  0.1585031E-006  0.1637956E+04  0.7818608E-02  0.8797564E-01
         -2   -1    0    0    0  501 -0.00000000000E+00  0.00000000000E+00  0.38155282190E+03  0.38155282190E+03  0.00000000000E+00 0.  1.
          2   -1    0    0  501    0  0.00000000000E+00 -0.00000000000E+00 -0.17578816983E+04  0.17578816983E+04  0.00000000000E+00 0. -1.
         23    2    1    2    0    0  0.19976307660E+03 -0.65182799540E+03 -0.10336099166E+03  0.69540119028E+03  0.90079400969E+02 0.  0.
         11    1    3    3    0    0  0.14730117072E+03 -0.51502731712E+03 -0.11682429053E+03  0.54826880920E+03  0.00000000000E+00 0. -1.
        -11    1    3    3    0    0  0.52461905880E+02 -0.13680067828E+03  0.13463298872E+02  0.14713238108E+03  0.00000000000E+00 0.  1.
         22    1    1    2    0    0 -0.19976307660E+03  0.65182799540E+03 -0.12729678848E+04  0.14440333300E+04  0.00000000000E+00 0. -1.
<mgrwt>
<rscale>  0 0.16379557E+04</rscale>
<asrwt>0</asrwt>
<pdfrwt beam="1">  1        2 0.27044334E+00 0.16379557E+04</pdfrwt>
<pdfrwt beam="2">  1       -2 0.58700434E-01 0.16379557E+04</pdfrwt>
<totfact> 0.23615906E+01</totfact>
</mgrwt>
</event>
<event>
 6    1  0.1585031E-006  0.2456890E+04  0.7818608E-02  0.8418507E-01
          1   -1    0    0  501    0  0.00000000000E+00  0.00000000000E+00  0.24246047832E+04  0.24246047832E+04  0.00000000000E+00 0. -1.
         -1   -1    0    0    0  501 -0.00000000000E+00 -0.00000000000E+00 -0.62240114075E+03  0.62240114075E+03  0.00000000000E+00 0.  1.
         23    2    1    2    0    0  0.10650641453E+04 -0.28621885632E+03  0.23579013436E+03  0.11312987058E+04  0.89201496668E+02 0.  0.
         11    1    3    3    0    0  0.42697354756E+03 -0.11860693016E+03  0.50334041664E+02  0.44599050433E+03  0.00000000000E+00 0.  1.
        -11    1    3    3    0    0  0.63809059772E+03 -0.16761192615E+03  0.18545609270E+03  0.68530820148E+03  0.00000000000E+00 0. -1.
         22    1    1    2    0    0 -0.10650641453E+04  0.28621885632E+03  0.15664135081E+04  0.19157072181E+04  0.00000000000E+00 0. -1.
<mgrwt>
<rscale>  0 0.24568897E+04</rscale>
<asrwt>0</asrwt>
<pdfrwt beam="1">  1        1 0.37301612E+00 0.24568897E+04</pdfrwt>
<pdfrwt beam="2">  1       -1 0.95754023E-01 0.24568897E+04</pdfrwt>
<totfact> 0.14326078E+00</totfact>
</mgrwt>
</event>
<event>
 6    1  0.1585031E-006  0.2919951E+04  0.7818608E-02  0.8266966E-01
         -1   -1    0    0    0  501 -0.00000000000E+00  0.00000000000E+00  0.17521352249E+04  0.17521352249E+04  0.00000000000E+00 0.  1.
          1   -1    0    0  501    0  0.00000000000E+00 -0.00000000000E+00 -0.12165317899E+04  0.12165317899E+04  0.00000000000E+00 0. -1.
         23    2    1    2    0    0  0.27951245385E+03  0.63931167238E+03 -0.10342600091E+04  0.12507270102E+04  0.88191050271E+02 0.  0.
         13    1    3    3    0    0  0.26337300001E+03  0.52057624034E+03 -0.86410952439E+03  0.10426170099E+04  0.00000000000E+00 0.  1.
        -13    1    3    3    0    0  0.16139453840E+02  0.11873543204E+03 -0.17015048468E+03  0.20811000031E+03  0.00000000000E+00 0. -1.
         22    1    1    2    0    0 -0.27951245385E+03 -0.63931167238E+03  0.15698634441E+04  0.17179400046E+04  0.00000000000E+00 0.  1.
<mgrwt>
<rscale>  0 0.29199508E+04</rscale>
<asrwt>0</asrwt>
<pdfrwt beam="1">  1        1 0.18715874E+00 0.29199508E+04</pdfrwt>
<pdfrwt beam="2">  1       -1 0.26955926E+00 0.29199508E+04</pdfrwt>
<totfact> 0.46313941E-01</totfact>
</mgrwt>
</event>
<event>
 6    1  0.1585031E-006  0.1723978E+04  0.7818608E-02  0.8747806E-01
          2   -1    0    0  501    0  0.00000000000E+00  0.00000000000E+00  0.19726786635E+04  0.19726786635E+04  0.00000000000E+00 0. -1.
         -2   -1    0    0    0  501 -0.00000000000E+00 -0.00000000000E+00 -0.37665776576E+03  0.37665776576E+03  0.00000000000E+00 0.  1.
         23    2    1    2    0    0 -0.41388189240E+03  0.73517958278E+03  0.59077251457E+03  0.10369677495E+04  0.12042719663E+03 0.  0.
         11    1    3    3    0    0 -0.23776095664E+03  0.30484857786E+03  0.24815371104E+03  0.45939437549E+03  0.00000000000E+00 0. -1.
        -11    1    3    3    0    0 -0.17612093576E+03  0.43033100492E+03  0.34261880353E+03  0.57757337399E+03  0.00000000000E+00 0.  1.
         22    1    1    2    0    0  0.41388189240E+03 -0.73517958278E+03  0.10052483831E+04  0.13123686797E+04  0.00000000000E+00 0.  1.
<mgrwt>
<rscale>  0 0.17239777E+04</rscale>
<asrwt>0</asrwt>
<pdfrwt beam="1">  1        2 0.30348902E+00 0.17239777E+04</pdfrwt>
<pdfrwt beam="2">  1       -2 0.57947350E-01 0.17239777E+04</pdfrwt>
<totfact> 0.18317829E+01</totfact>
</mgrwt>
</event>
<event>
 6    1  0.1585031E-006  0.2398961E+04  0.7818608E-02  0.8439893E-01
          1   -1    0    0  501    0  0.00000000000E+00  0.00000000000E+00  0.23797617771E+04  0.23797617771E+04  0.00000000000E+00 0. -1.
         -1   -1    0    0    0  501 -0.00000000000E+00 -0.00000000000E+00 -0.60457883324E+03  0.60457883324E+03  0.00000000000E+00 0.  1.
         23    2    1    2    0    0 -0.76008024418E+03  0.55015282455E+03 -0.36748168441E+02  0.94387878427E+03  0.95742485640E+02 0.  0.
         13    1    3    3    0    0 -0.27405171619E+03  0.14316163072E+03 -0.78350295586E+01  0.30929109807E+03  0.00000000000E+00 0. -1.
        -13    1    3    3    0    0 -0.48602852799E+03  0.40699119383E+03 -0.28913138883E+02  0.63458768620E+03  0.00000000000E+00 0.  1.
         22    1    1    2    0    0  0.76008024418E+03 -0.55015282455E+03  0.18119311123E+04  0.20404618261E+04  0.00000000000E+00 0. -1.
<mgrwt>
<rscale>  0 0.23989611E+04</rscale>
<asrwt>0</asrwt>
<pdfrwt beam="1">  1        1 0.36611719E+00 0.23989611E+04</pdfrwt>
<pdfrwt beam="2">  1       -1 0.93012129E-01 0.23989611E+04</pdfrwt>
<totfact> 0.16502921E+00</totfact>
</mgrwt>
</event>
<event>
 6    1  0.1585031E-006  0.1414249E+04  0.7818608E-02  0.8943569E-01
         -2   -1    0    0    0  501 -0.00000000000E+00  0.00000000000E+00  0.40610763434E+03  0.40610763434E+03  0.00000000000E+00 0. -1.
          2   -1    0    0  501    0  0.00000000000E+00 -0.00000000000E+00 -0.12312616300E+04  0.12312616300E+04  0.00000000000E+00 0.  1.
         23    2    1    2    0    0 -0.57208572532E+03  0.35446209668E+02  0.58428432272E+02  0.58415683665E+03  0.96368133773E+02 0.  0.
         11    1    3    3    0    0 -0.12453233201E+03  0.26052705353E+02  0.49199335318E+02  0.13640974954E+03  0.00000000000E+00 0.  1.
        -11    1    3    3    0    0 -0.44755339331E+03  0.93935043154E+01  0.92290969537E+01  0.44774708711E+03  0.00000000000E+00 0. -1.
         22    1    1    2    0    0  0.57208572532E+03 -0.35446209668E+02 -0.88358242790E+03  0.10532124277E+04  0.00000000000E+00 0.  1.
<mgrwt>
<rscale>  0 0.14142486E+04</rscale>
<asrwt>0</asrwt>
<pdfrwt beam="1">  1        2 0.18942486E+00 0.14142486E+04</pdfrwt>
<pdfrwt beam="2">  1       -2 0.62478098E-01 0.14142486E+04</pdfrwt>
<totfact> 0.41927010E+01</totfact>
</mgrwt>
</event>
<event>
 6    1  0.1585031E-006  0.4340299E+04  0.7818608E-02  0.7939208E-01
         -2   -1    0    0    0  501 -0.00000000000E+00  0.00000000000E+00  0.32307235227E+04  0.32307235227E+04  0.00000000000E+00 0.  1.
          2   -1    0    0  501    0  0.00000000000E+00 -0.00000000000E+00 -0.14577381910E+04  0.14577381910E+04  0.00000000000E+00 0. -1.
         23    2    1    2    0    0 -0.11961219362E+04 -0.67992184970E+03 -0.92461101108E+03  0.16602563975E+04  0.92435792522E+02 0.  0.
         13    1    3    3    0    0 -0.12868397622E+03 -0.10419666690E+03 -0.95620061421E+02  0.19120592897E+03  0.00000000000E+00 0. -1.
        -13    1    3    3    0    0 -0.10674379600E+04 -0.57572518280E+03 -0.82899094966E+03  0.14690504685E+04  0.00000000000E+00 0.  1.
         22    1    1    2    0    0  0.11961219362E+04  0.67992184970E+03  0.26975963429E+04  0.30282053162E+04  0.00000000000E+00 0.  1.
<mgrwt>
<rscale>  0 0.43402991E+04</rscale>
<asrwt>0</asrwt>
<pdfrwt beam="1">  1        2 0.22426741E+00 0.43402991E+04</pdfrwt>
<pdfrwt beam="2">  1       -2 0.49703439E+00 0.43402991E+04</pdfrwt>
<totfact> 0.17771811E-02</totfact>
</mgrwt>
</event>
<event>
 6    1  0.1585031E-006  0.3099182E+04  0.7818608E-02  0.8215962E-01
          2   -1    0    0  501    0  0.00000000000E+00  0.00000000000E+00  0.12846450125E+04  0.12846450125E+04  0.00000000000E+00 0. -1.
         -2   -1    0    0    0  501 -0.00000000000E+00 -0.00000000000E+00 -0.18691800339E+04  0.18691800339E+04  0.00000000000E+00 0.  1.
         23    2    1    2    0    0  0.12337608607E+04  0.70698611912E+03 -0.91576735243E+03  0.16937873444E+04  0.91052128962E+02 0.  0.
         11    1    3    3    0    0  0.13878649103E+03  0.80810489331E+02 -0.13921037270E+03  0.21253600435E+03  0.00000000000E+00 0. -1.
        -11    1    3    3    0    0  0.10949743697E+04  0.62617562979E+03 -0.77655697973E+03  0.14812513400E+04  0.00000000000E+00 0.  1.
         22    1    1    2    0    0 -0.12337608607E+04 -0.70698611912E+03  0.33123233100E+03  0.14600377020E+04  0.00000000000E+00 0. -1.
<mgrwt>
<rscale>  0 0.30991823E+04</rscale>
<asrwt>0</asrwt>
<pdfrwt beam="1">  1        2 0.19763769E+00 0.30991823E+04</pdfrwt>
<pdfrwt beam="2">  1       -2 0.28756616E+00 0.30991823E+04</pdfrwt>
<totfact> 0.54255037E-01</totfact>
</mgrwt>
</event>
<event>
 6    1  0.1585031E-006  0.3484782E+04  0.7818608E-02  0.8117406E-01
         -2   -1    0    0    0  501 -0.00000000000E+00  0.00000000000E+00  0.13312942845E+04  0.13312942845E+04  0.00000000000E+00 0.  1.
          2   -1    0    0  501    0  0.00000000000E+00 -0.00000000000E+00 -0.22804322377E+04  0.22804322377E+04  0.00000000000E+00 0. -1.
         23    2    1    2    0    0  0.28006573332E+03 -0.24679023437E+03  0.12878596605E+04  0.13437978287E+04  0.88700984606E+02 0.  0.
         13    1    3    3    0    0  0.24412309314E+03 -0.17349120497E+03  0.10707952432E+04  0.11118892641E+04  0.00000000000E+00 0.  1.
        -13    1    3    3    0    0  0.35942640182E+02 -0.73299029408E+02  0.21706441732E+03  0.23190856466E+03  0.00000000000E+00 0. -1.
         22    1    1    2    0    0 -0.28006573332E+03  0.24679023437E+03 -0.22369976137E+04  0.22679286934E+04  0.00000000000E+00 0. -1.
<mgrwt>
<rscale>  0 0.34847820E+04</rscale>
<asrwt>0</asrwt>
<pdfrwt beam="1">  1        2 0.35083573E+00 0.34847820E+04</pdfrwt>
<pdfrwt beam="2">  1       -2 0.20481451E+00 0.34847820E+04</pdfrwt>
<totfact> 0.47335070E-01</totfact>
</mgrwt>
</event>
<event>
 6    1  0.1585031E-006  0.2848499E+04  0.7818608E-02  0.8288368E-01
          4   -1    0    0  501    0  0.00000000000E+00  0.00000000000E+00  0.11936273138E+04  0.11936273138E+04  0.00000000000E+00 0. -1.
         -4   -1    0    0    0  501 -0.00000000000E+00 -0.00000000000E+00 -0.16994305087E+04  0.16994305087E+04  0.00000000000E+00 0.  1.
         23    2    1    2    0    0 -0.93698876996E+03  0.16399180696E+03  0.82132710236E+03  0.12602332473E+04  0.93639525094E+02 0.  0.
         11    1    3    3    0    0 -0.43617099336E+03  0.46172544739E+02  0.33070314919E+03  0.54931012390E+03  0.00000000000E+00 0.  1.
        -11    1    3    3    0    0 -0.50081777660E+03  0.11781926222E+03  0.49062395318E+03  0.71092312337E+03  0.00000000000E+00 0. -1.
         22    1    1    2    0    0  0.93698876996E+03 -0.16399180696E+03 -0.13271302972E+04  0.16328245753E+04  0.00000000000E+00 0.  1.
<mgrwt>
<rscale>  0 0.28484990E+04</rscale>
<asrwt>0</asrwt>
<pdfrwt beam="1">  1        4 0.18363497E+00 0.28484990E+04</pdfrwt>
<pdfrwt beam="2">  1       -4 0.26145085E+00 0.28484990E+04</pdfrwt>
<totfact> 0.15669404E-02</totfact>
</mgrwt>
</event>
<event>
 6    1  0.1585031E-006  0.2190699E+04  0.7818608E-02  0.8522309E-01
         -2   -1    0    0    0  501 -0.00000000000E+00  0.00000000000E+00  0.45519085601E+03  0.45519085601E+03  0.00000000000E+00 0.  1.
          2   -1    0    0  501    0  0.00000000000E+00 -0.00000000000E+00 -0.26357974351E+04  0.26357974351E+04  0.00000000000E+00 0. -1.
         23    2    1    2    0    0 -0.76430728573E+02 -0.10530394086E+04 -0.14935616621E+04  0.18313199338E+04  0.90953884599E+02 0.  0.
         11    1    3    3    0    0  0.19322089349E+02 -0.22985053930E+03 -0.30688339564E+03  0.38390367552E+03  0.00000000000E+00 0.  1.
        -11    1    3    3    0    0 -0.95752817921E+02 -0.82318886932E+03 -0.11866782665E+04  0.14474162583E+04  0.00000000000E+00 0. -1.
         22    1    1    2    0    0  0.76430728573E+02  0.10530394086E+04 -0.68704491698E+03  0.12596683573E+04  0.00000000000E+00 0.  1.
<mgrwt>
<rscale>  0 0.21906993E+04</rscale>
<asrwt>0</asrwt>
<pdfrwt beam="1">  1        2 0.40550729E+00 0.21906993E+04</pdfrwt>
<pdfrwt beam="2">  1       -2 0.70029364E-01 0.21906993E+04</pdfrwt>
<totfact> 0.49266143E+00</totfact>
</mgrwt>
</event>
<event>
 6    1  0.1585031E-006  0.3513636E+04  0.7818608E-02  0.8110566E-01
          1   -1    0    0  501    0  0.00000000000E+00  0.00000000000E+00  0.36340442994E+04  0.36340442994E+04  0.00000000000E+00 0. -1.
         -1   -1    0    0    0  501 -0.00000000000E+00 -0.00000000000E+00 -0.84930450107E+03  0.84930450107E+03  0.00000000000E+00 0.  1.
         23    2    1    2    0    0  0.10516092927E+04  0.55510138149E+03  0.30415186928E+04  0.32668147693E+04  0.84988999219E+02 0.  0.
         13    1    3    3    0    0  0.55476537876E+03  0.25768364400E+03  0.14830130414E+04  0.16042110731E+04  0.00000000000E+00 0. -1.
        -13    1    3    3    0    0  0.49684391393E+03  0.29741773749E+03  0.15585056514E+04  0.16626036963E+04  0.00000000000E+00 0.  1.
         22    1    1    2    0    0 -0.10516092927E+04 -0.55510138149E+03 -0.25677889453E+03  0.12165340311E+04  0.00000000000E+00 0.  1.
<mgrwt>
<rscale>  0 0.35136364E+04</rscale>
<asrwt>0</asrwt>
<pdfrwt beam="1">  1        1 0.55908373E+00 0.35136364E+04</pdfrwt>
<pdfrwt beam="2">  1       -1 0.13066223E+00 0.35136364E+04</pdfrwt>
<totfact> 0.79527625E-02</totfact>
</mgrwt>
</event>
<event>
 6    1  0.1585031E-006  0.1203608E+04  0.7818608E-02  0.9109704E-01
         -1   -1    0    0    0  501 -0.00000000000E+00  0.00000000000E+00  0.34285327652E+03  0.34285327652E+03  0.00000000000E+00 0.  1.
          1   -1    0    0  501    0  0.00000000000E+00 -0.00000000000E+00 -0.10563351601E+04  0.10563351601E+04  0.00000000000E+00 0. -1.
         23    2    1    2    0    0 -0.22453168339E+03  0.54988624254E+03 -0.27148936607E+03  0.65881910847E+03  0.86872234988E+02 0.  0.
         11    1    3    3    0    0 -0.16229050402E+03  0.40034409643E+03 -0.23872143447E+03  0.49356005361E+03  0.00000000000E+00 0. -1.
        -11    1    3    3    0    0 -0.62241179369E+02  0.14954214611E+03 -0.32767931607E+02  0.16525905486E+03  0.00000000000E+00 0.  1.
         22    1    1    2    0    0  0.22453168339E+03 -0.54988624254E+03 -0.44199251755E+03  0.74036932821E+03  0.00000000000E+00 0. -1.
<mgrwt>
<rscale>  0 0.12036079E+04</rscale>
<asrwt>0</asrwt>
<pdfrwt beam="1">  1        1 0.16251310E+00 0.12036079E+04</pdfrwt>
<pdfrwt beam="2">  1       -1 0.52746659E-01 0.12036079E+04</pdfrwt>
<totfact> 0.49046926E+01</totfact>
</mgrwt>
</event>
<event>
 6    1  0.1585031E-006  0.1271992E+04  0.7818608E-02  0.9052076E-01
          1   -1    0    0  501    0  0.00000000000E+00  0.00000000000E+00  0.11076295955E+04  0.11076295955E+04  0.00000000000E+00 0. -1.
         -1   -1    0    0    0  501 -0.00000000000E+00 -0.00000000000E+00 -0.36518583880E+03  0.36518583880E+03  0.00000000000E+00 0.  1.
         23    2    1    2    0    0 -0.15857277374E+03 -0.41509285902E+03 -0.14805267347E+03  0.47761128523E+03  0.93517589125E+02 0.  0.
         13    1    3    3    0    0 -0.26083095680E+01 -0.28176502424E+02 -0.35745946283E+02  0.45590473164E+02  0.00000000000E+00 0.  1.
        -13    1    3    3    0    0 -0.15596446417E+03 -0.38691635660E+03 -0.11230672719E+03  0.43202081207E+03  0.00000000000E+00 0. -1.
         22    1    1    2    0    0  0.15857277374E+03  0.41509285902E+03  0.89049643021E+03  0.99520414911E+03  0.00000000000E+00 0. -1.
<mgrwt>
<rscale>  0 0.12719916E+04</rscale>
<asrwt>0</asrwt>
<pdfrwt beam="1">  1        1 0.17040455E+00 0.12719916E+04</pdfrwt>
<pdfrwt beam="2">  1       -1 0.56182437E-01 0.12719916E+04</pdfrwt>
<totfact> 0.39483847E+01</totfact>
</mgrwt>
</event>
<event>
 6    1  0.2778789E-006  0.4372063E+04  0.7818608E-02  0.7933426E-01
          2   -1    0    0  501    0  0.00000000000E+00  0.00000000000E+00  0.21306179160E+04  0.21306179160E+04  0.00000000000E+00 0. -1.
         -2   -1    0    0    0  501 -0.00000000000E+00 -0.00000000000E+00 -0.22428866443E+04  0.22428866443E+04  0.00000000000E+00 0.  1.
         23    2    1    2    0    0  0.10424014673E+04 -0.18328942226E+04 -0.63010475778E+03  0.22022707627E+04  0.82839943183E+02 0.  0.
         11    1    3    3    0    0  0.38512004278E+03 -0.59914717414E+03 -0.21979468145E+03  0.74538881506E+03  0.00000000000E+00 0. -1.
        -11    1    3    3    0    0  0.65728142457E+03 -0.12337470485E+04 -0.41031007633E+03  0.14568819477E+04  0.00000000000E+00 0.  1.
         22    1    1    2    0    0 -0.10424014673E+04  0.18328942226E+04  0.51783602942E+03  0.21712337976E+04  0.00000000000E+00 0.  1.
<mgrwt>
<rscale>  0 0.43720633E+04</rscale>
<asrwt>0</asrwt>
<pdfrwt beam="1">  1        2 0.32778737E+00 0.43720633E+04</pdfrwt>
<pdfrwt beam="2">  1       -2 0.34505948E+00 0.43720633E+04</pdfrwt>
<totfact> 0.72270234E-02</totfact>
</mgrwt>
</event>
<event>
 6    1  0.1585031E-006  0.1327399E+04  0.7818608E-02  0.9008115E-01
          1   -1    0    0  501    0  0.00000000000E+00  0.00000000000E+00  0.37925465366E+04  0.37925465366E+04  0.00000000000E+00 0. -1.
         -1   -1    0    0    0  501 -0.00000000000E+00 -0.00000000000E+00 -0.11614808635E+03  0.11614808635E+03  0.00000000000E+00 0.  1.
         23    2    1    2    0    0  0.35404700878E+03  0.65461941673E+02  0.34776305726E+04  0.34974243719E+04  0.91805704570E+02 0.  0.
         13    1    3    3    0    0  0.21587500630E+03  0.11808957929E+02  0.23863674928E+04  0.23961409142E+04  0.00000000000E+00 0. -1.
        -13    1    3    3    0    0  0.13817200248E+03  0.53652983744E+02  0.10912630798E+04  0.11012834577E+04  0.00000000000E+00 0.  1.
         22    1    1    2    0    0 -0.35404700878E+03 -0.65461941673E+02  0.19876787766E+03  0.41127025108E+03  0.00000000000E+00 0.  1.
<mgrwt>
<rscale>  0 0.13273990E+04</rscale>
<asrwt>0</asrwt>
<pdfrwt beam="1">  1        1 0.58346860E+00 0.13273990E+04</pdfrwt>
<pdfrwt beam="2">  1       -1 0.17868939E-01 0.13273990E+04</pdfrwt>
<totfact> 0.35782471E+00</totfact>
</mgrwt>
</event>
<event>
 6    1  0.1585031E-006  0.2300469E+04  0.7818608E-02  0.8477736E-01
          2   -1    0    0  501    0  0.00000000000E+00  0.00000000000E+00  0.21202615661E+04  0.21202615661E+04  0.00000000000E+00 0. -1.
         -2   -1    0    0    0  501 -0.00000000000E+00 -0.00000000000E+00 -0.62399819960E+03  0.62399819960E+03  0.00000000000E+00 0.  1.
         23    2    1    2    0    0  0.88971985597E+03  0.57488266001E+03  0.22022798135E+03  0.10858394936E+04  0.91954048813E+02 0.  0.
         13    1    3    3    0    0  0.75652120356E+03  0.52479044289E+03  0.18279849183E+03  0.93869304301E+03  0.00000000000E+00 0. -1.
        -13    1    3    3    0    0  0.13319865242E+03  0.50092217124E+02  0.37429489518E+02  0.14714645054E+03  0.00000000000E+00 0.  1.
         22    1    1    2    0    0 -0.88971985597E+03 -0.57488266001E+03  0.12760353851E+04  0.16584202721E+04  0.00000000000E+00 0. -1.
<mgrwt>
<rscale>  0 0.23004690E+04</rscale>
<asrwt>0</asrwt>
<pdfrwt beam="1">  1        2 0.32619408E+00 0.23004690E+04</pdfrwt>
<pdfrwt beam="2">  1       -2 0.95999724E-01 0.23004690E+04</pdfrwt>
<totfact> 0.47191434E+00</totfact>
</mgrwt>
</event>
<event>
 6    1  0.1585031E-006  0.2823508E+04  0.7818608E-02  0.8296007E-01
          1   -1    0    0  501    0  0.00000000000E+00  0.00000000000E+00  0.10551256465E+04  0.10551256465E+04  0.00000000000E+00 0. -1.
         -1   -1    0    0    0  501 -0.00000000000E+00 -0.00000000000E+00 -0.18889213999E+04  0.18889213999E+04  0.00000000000E+00 0.  1.
         23    2    1    2    0    0  0.46895378828E+03 -0.21024344474E+03 -0.17867084477E+04  0.18613824795E+04  0.91091691922E+02 0.  0.
         11    1    3    3    0    0  0.67228826279E+02 -0.68066611844E+02 -0.34355377187E+03  0.35662581637E+03  0.00000000000E+00 0.  1.
        -11    1    3    3    0    0  0.40172496200E+03 -0.14217683290E+03 -0.14431546758E+04  0.15047566631E+04  0.00000000000E+00 0. -1.
         22    1    1    2    0    0 -0.46895378828E+03  0.21024344474E+03  0.95291269430E+03  0.10826645670E+04  0.00000000000E+00 0. -1.
<mgrwt>
<rscale>  0 0.28235080E+04</rscale>
<asrwt>0</asrwt>
<pdfrwt beam="1">  1        1 0.16232702E+00 0.28235080E+04</pdfrwt>
<pdfrwt beam="2">  1       -1 0.29060329E+00 0.28235080E+04</pdfrwt>
<totfact> 0.45019912E-01</totfact>
</mgrwt>
</event>
<event>
 6    1  0.1585031E-006  0.3481609E+04  0.7818608E-02  0.8118162E-01
          1   -1    0    0  501    0  0.00000000000E+00  0.00000000000E+00  0.24243142460E+04  0.24243142460E+04  0.00000000000E+00 0. -1.
         -1   -1    0    0    0  501 -0.00000000000E+00 -0.00000000000E+00 -0.12500029512E+04  0.12500029512E+04  0.00000000000E+00 0.  1.
         23    2    1    2    0    0  0.11461449973E+04  0.89268856758E+03 -0.42235011466E+03  0.15156442507E+04  0.90866065559E+02 0.  0.
         11    1    3    3    0    0  0.52775118888E+03  0.44239464595E+03 -0.16051261058E+03  0.70710581831E+03  0.00000000000E+00 0. -1.
        -11    1    3    3    0    0  0.61839380837E+03  0.45029392163E+03 -0.26183750408E+03  0.80853843238E+03  0.00000000000E+00 0.  1.
         22    1    1    2    0    0 -0.11461449973E+04 -0.89268856758E+03  0.15966614094E+04  0.21586729465E+04  0.00000000000E+00 0. -1.
<mgrwt>
<rscale>  0 0.34816088E+04</rscale>
<asrwt>0</asrwt>
<pdfrwt beam="1">  1        1 0.37297142E+00 0.34816088E+04</pdfrwt>
<pdfrwt beam="2">  1       -1 0.19230815E+00 0.34816088E+04</pdfrwt>
<totfact> 0.21258850E-01</totfact>
</mgrwt>
</event>
<event>
 6    1  0.1585031E-006  0.2484191E+04  0.7818608E-02  0.8408639E-01
          1   -1    0    0  501    0  0.00000000000E+00  0.00000000000E+00  0.10638799314E+04  0.10638799314E+04  0.00000000000E+00 0. -1.
         -1   -1    0    0    0  501 -0.00000000000E+00 -0.00000000000E+00 -0.14501644264E+04  0.14501644264E+04  0.00000000000E+00 0.  1.
         23    2    1    2    0    0 -0.56163563704E+03 -0.22556799199E+03  0.90239001531E+03  0.10903177333E+04  0.90385353296E+02 0.  0.
         13    1    3    3    0    0 -0.46579532536E+03 -0.18136302266E+03  0.67797752349E+03  0.84232496904E+03  0.00000000000E+00 0.  1.
        -13    1    3    3    0    0 -0.95840311681E+02 -0.44204969324E+02  0.22441249182E+03  0.24799276429E+03  0.00000000000E+00 0. -1.
         22    1    1    2    0    0  0.56163563704E+03  0.22556799199E+03 -0.12886745103E+04  0.14237266245E+04  0.00000000000E+00 0.  1.
<mgrwt>
<rscale>  0 0.24841907E+04</rscale>
<asrwt>0</asrwt>
<pdfrwt beam="1">  1        1 0.16367384E+00 0.24841907E+04</pdfrwt>
<pdfrwt beam="2">  1       -1 0.22310222E+00 0.24841907E+04</pdfrwt>
<totfact> 0.12604030E+00</totfact>
</mgrwt>
</event>
<event>
 6    1  0.1585031E-006  0.1849606E+04  0.7818608E-02  0.8680356E-01
         -2   -1    0    0    0  501 -0.00000000000E+00  0.00000000000E+00  0.51868495484E+03  0.51868495484E+03  0.00000000000E+00 0.  1.
          2   -1    0    0  501    0  0.00000000000E+00 -0.00000000000E+00 -0.16489012928E+04  0.16489012928E+04  0.00000000000E+00 0. -1.
         23    2    1    2    0    0  0.15987964705E+03 -0.86491563209E+03 -0.89264310032E+03  0.12564981095E+04  0.91297548977E+02 0.  0.
         11    1    3    3    0    0  0.90238785832E+01 -0.22696294047E+03 -0.19738849510E+03  0.30092494867E+03  0.00000000000E+00 0. -1.
        -11    1    3    3    0    0  0.15085576847E+03 -0.63795269162E+03 -0.69525460521E+03  0.95557316083E+03  0.00000000000E+00 0.  1.
         22    1    1    2    0    0 -0.15987964705E+03  0.86491563209E+03 -0.23757323762E+03  0.91108813812E+03  0.00000000000E+00 0.  1.
<mgrwt>
<rscale>  0 0.18496057E+04</rscale>
<asrwt>0</asrwt>
<pdfrwt beam="1">  1        2 0.25367712E+00 0.18496057E+04</pdfrwt>
<pdfrwt beam="2">  1       -2 0.79797688E-01 0.18496057E+04</pdfrwt>
<totfact> 0.13688231E+01</totfact>
</mgrwt>
</event>
<event>
 6    1  0.1585031E-006  0.1990350E+04  0.7818608E-02  0.8611146E-01
          2   -1    0    0  501    0  0.00000000000E+00  0.00000000000E+00  0.27001763503E+04  0.27001763503E+04  0.00000000000E+00 0. -1.
         -2   -1    0    0    0  501 -0.00000000000E+00 -0.00000000000E+00 -0.36678101007E+03  0.36678101007E+03  0.00000000000E+00 0.  1.
         23    2    1    2    0    0 -0.68274183341E+03 -0.53042706563E+03  0.19220890889E+04  0.21095326294E+04  0.90621001642E+02 0.  0.
         11    1    3    3    0    0 -0.36662222340E+03 -0.23200862726E+03  0.10030310504E+04  0.10928454355E+04  0.00000000000E+00 0. -1.
        -11    1    3    3    0    0 -0.31611961001E+03 -0.29841843836E+03  0.91905803852E+03  0.10166871940E+04  0.00000000000E+00 0.  1.
         22    1    1    2    0    0  0.68274183341E+03  0.53042706563E+03  0.41130625135E+03  0.95742473096E+03  0.00000000000E+00 0.  1.
<mgrwt>
<rscale>  0 0.19903501E+04</rscale>
<asrwt>0</asrwt>
<pdfrwt beam="1">  1        2 0.41541173E+00 0.19903501E+04</pdfrwt>
<pdfrwt beam="2">  1       -2 0.56427850E-01 0.19903501E+04</pdfrwt>
<totfact> 0.72832398E+00</totfact>
</mgrwt>
</event>
<event>
 6    1  0.1585031E-006  0.2947007E+04  0.7818608E-02  0.8259027E-01
         -1   -1    0    0    0  501 -0.00000000000E+00  0.00000000000E+00  0.52552851808E+03  0.52552851808E+03  0.00000000000E+00 0.  1.
          1   -1    0    0  501    0  0.00000000000E+00 -0.00000000000E+00 -0.41314838243E+04  0.41314838243E+04  0.00000000000E+00 0. -1.
         23    2    1    2    0    0 -0.87081936086E+03  0.11479797711E+04 -0.13281740304E+04  0.19617439968E+04  0.90605407750E+02 0.  0.
         13    1    3    3    0    0 -0.57820265303E+03  0.69761114196E+03 -0.86067522074E+03  0.12496965427E+04  0.00000000000E+00 0. -1.
        -13    1    3    3    0    0 -0.29261670784E+03  0.45036862914E+03 -0.46749880968E+03  0.71204745409E+03  0.00000000000E+00 0.  1.
         22    1    1    2    0    0  0.87081936086E+03 -0.11479797711E+04 -0.22777812758E+04  0.26952683456E+04  0.00000000000E+00 0.  1.
<mgrwt>
<rscale>  0 0.29470070E+04</rscale>
<asrwt>0</asrwt>
<pdfrwt beam="1">  1        1 0.63561290E+00 0.29470070E+04</pdfrwt>
<pdfrwt beam="2">  1       -1 0.80850540E-01 0.29470070E+04</pdfrwt>
<totfact> 0.95335848E-02</totfact>
</mgrwt>
</event>
<event>
 6    1  0.1585031E-006  0.1048631E+04  0.7818608E-02  0.9256758E-01
         -1   -1    0    0    0  501 -0.00000000000E+00  0.00000000000E+00  0.30731465540E+03  0.30731465540E+03  0.00000000000E+00 0.  1.
          1   -1    0    0  501    0  0.00000000000E+00 -0.00000000000E+00 -0.89454514347E+03  0.89454514347E+03  0.00000000000E+00 0. -1.
         23    2    1    2    0    0  0.14148174573E+03  0.23733666738E+03 -0.80119082573E+03  0.85239620399E+03  0.91251144043E+02 0.  0.
         13    1    3    3    0    0  0.99560903233E+02  0.17233791777E+03 -0.43856898798E+03  0.48161757502E+03  0.00000000000E+00 0. -1.
        -13    1    3    3    0    0  0.41920842500E+02  0.64998749606E+02 -0.36262183775E+03  0.37077862897E+03  0.00000000000E+00 0.  1.
         22    1    1    2    0    0 -0.14148174573E+03 -0.23733666738E+03  0.21396033765E+03  0.34946359488E+03  0.00000000000E+00 0.  1.
<mgrwt>
<rscale>  0 0.10486312E+04</rscale>
<asrwt>0</asrwt>
<pdfrwt beam="1">  1        1 0.13762233E+00 0.10486312E+04</pdfrwt>
<pdfrwt beam="2">  1       -1 0.47279177E-01 0.10486312E+04</pdfrwt>
<totfact> 0.81996744E+01</totfact>
</mgrwt>
</event>
<event>
 6    1  0.1585031E-006  0.2082339E+04  0.7818608E-02  0.8569063E-01
          2   -1    0    0  501    0  0.00000000000E+00  0.00000000000E+00  0.14482214591E+04  0.14482214591E+04  0.00000000000E+00 0. -1.
         -2   -1    0    0    0  501 -0.00000000000E+00 -0.00000000000E+00 -0.74852781726E+03  0.74852781726E+03  0.00000000000E+00 0.  1.
         23    2    1    2    0    0  0.17738227350E+03 -0.44036802417E+03  0.13253302635E+04  0.14113769761E+04  0.10047981676E+03 0.  0.
         11    1    3    3    0    0  0.17827009886E+03 -0.33178501476E+03  0.10215355191E+04  0.10887590831E+04  0.00000000000E+00 0. -1.
        -11    1    3    3    0    0 -0.88782535473E+00 -0.10858300941E+03  0.30379474436E+03  0.32261789297E+03  0.00000000000E+00 0.  1.
         22    1    1    2    0    0 -0.17738227350E+03  0.44036802417E+03 -0.62563662168E+03  0.78537230028E+03  0.00000000000E+00 0.  1.
<mgrwt>
<rscale>  0 0.20823391E+04</rscale>
<asrwt>0</asrwt>
<pdfrwt beam="1">  1        2 0.22280330E+00 0.20823391E+04</pdfrwt>
<pdfrwt beam="2">  1       -2 0.11515813E+00 0.20823391E+04</pdfrwt>
<totfact> 0.73672438E+00</totfact>
</mgrwt>
</event>
<event>
 6    1  0.1585031E-006  0.2234828E+04  0.7818608E-02  0.8504070E-01
         -1   -1    0    0    0  501 -0.00000000000E+00  0.00000000000E+00  0.11472724444E+04  0.11472724444E+04  0.00000000000E+00 0.  1.
          1   -1    0    0  501    0  0.00000000000E+00 -0.00000000000E+00 -0.10883330503E+04  0.10883330503E+04  0.00000000000E+00 0. -1.
         23    2    1    2    0    0 -0.17014879776E+03 -0.31018415528E+03 -0.10288546701E+04  0.10917258028E+04  0.90324264047E+02 0.  0.
         11    1    3    3    0    0 -0.15384075714E+03 -0.30691617212E+03 -0.10090982738E+04  0.10659004839E+04  0.00000000000E+00 0. -1.
        -11    1    3    3    0    0 -0.16308040613E+02 -0.32679831645E+01 -0.19756396267E+02  0.25825318896E+02  0.00000000000E+00 0.  1.
         22    1    1    2    0    0  0.17014879776E+03  0.31018415528E+03  0.10877940641E+04  0.11438796919E+04  0.00000000000E+00 0.  1.
<mgrwt>
<rscale>  0 0.22348284E+04</rscale>
<asrwt>0</asrwt>
<pdfrwt beam="1">  1        1 0.16743585E+00 0.22348284E+04</pdfrwt>
<pdfrwt beam="2">  1       -1 0.17650345E+00 0.22348284E+04</pdfrwt>
<totfact> 0.25942003E+00</totfact>
</mgrwt>
</event>
<event>
 6    1  0.1585031E-006  0.3194401E+04  0.7818608E-02  0.8190297E-01
         -2   -1    0    0    0  501 -0.00000000000E+00  0.00000000000E+00  0.21214700887E+04  0.21214700887E+04  0.00000000000E+00 0.  1.
          2   -1    0    0  501    0  0.00000000000E+00 -0.00000000000E+00 -0.12024914197E+04  0.12024914197E+04  0.00000000000E+00 0. -1.
         23    2    1    2    0    0 -0.31660303282E+03  0.98444538554E+02  0.20840691181E+04  0.21126132669E+04  0.99307194545E+02 0.  0.
         13    1    3    3    0    0 -0.19985709563E+03  0.23476729990E+02  0.10321133062E+04  0.10515473800E+04  0.00000000000E+00 0. -1.
        -13    1    3    3    0    0 -0.11674593719E+03  0.74967808563E+02  0.10519558119E+04  0.10610658869E+04  0.00000000000E+00 0.  1.
         22    1    1    2    0    0  0.31660303282E+03 -0.98444538554E+02 -0.11650904492E+04  0.12113482415E+04  0.00000000000E+00 0. -1.
<mgrwt>
<rscale>  0 0.31944011E+04</rscale>
<asrwt>0</asrwt>
<pdfrwt beam="1">  1        2 0.18499868E+00 0.31944011E+04</pdfrwt>
<pdfrwt beam="2">  1       -2 0.32638001E+00 0.31944011E+04</pdfrwt>
<totfact> 0.34756458E-01</totfact>
</mgrwt>
</event>
<event>
 6    1  0.1585031E-006  0.1911721E+04  0.7818608E-02  0.8649044E-01
         -2   -1    0    0    0  501 -0.00000000000E+00  0.00000000000E+00  0.24680202375E+03  0.24680202375E+03  0.00000000000E+00 0.  1.
          2   -1    0    0  501    0  0.00000000000E+00 -0.00000000000E+00 -0.37020351481E+04  0.37020351481E+04  0.00000000000E+00 0. -1.
         23    2    1    2    0    0 -0.18942554441E+03  0.93162635808E+03 -0.18881870286E+04  0.21159587868E+04  0.90673175744E+02 0.  0.
         13    1    3    3    0    0 -0.60534306945E+02  0.32449388716E+03 -0.56316537297E+03  0.65277555287E+03  0.00000000000E+00 0. -1.
        -13    1    3    3    0    0 -0.12889123747E+03  0.60713247093E+03 -0.13250216556E+04  0.14631832340E+04  0.00000000000E+00 0.  1.
         22    1    1    2    0    0  0.18942554441E+03 -0.93162635808E+03 -0.15670460958E+04  0.18328783850E+04  0.00000000000E+00 0.  1.
<mgrwt>
<rscale>  0 0.19117215E+04</rscale>
<asrwt>0</asrwt>
<pdfrwt beam="1">  1        2 0.56954382E+00 0.19117215E+04</pdfrwt>
<pdfrwt beam="2">  1       -2 0.37969545E-01 0.19117215E+04</pdfrwt>
<totfact> 0.35945470E+00</totfact>
</mgrwt>
</event>
<event>
 6    1  0.1585031E-006  0.9670725E+03  0.7818608E-02  0.9345415E-01
          3   -1    0    0  501    0  0.00000000000E+00  0.00000000000E+00  0.20500599857E+03  0.20500599857E+03  0.00000000000E+00 0.  1.
         -3   -1    0    0    0  501 -0.00000000000E+00 -0.00000000000E+00 -0.11404900857E+04  0.11404900857E+04  0.00000000000E+00 0. -1.
         23    2    1    2    0    0  0.82025651651E+02  0.30245547177E+03  0.32584757283E+02  0.32796730951E+03  0.91067391354E+02 0.  0.
         13    1    3    3    0    0  0.31237364931E+02  0.10926352239E+03  0.56274282193E+02  0.12681121847E+03  0.00000000000E+00 0.  1.
        -13    1    3    3    0    0  0.50788286721E+02  0.19319194938E+03 -0.23689524910E+02  0.20115609105E+03  0.00000000000E+00 0. -1.
         22    1    1    2    0    0 -0.82025651651E+02 -0.30245547177E+03 -0.96806884437E+03  0.10175287747E+04  0.00000000000E+00 0. -1.
<mgrwt>
<rscale>  0 0.96707251E+03</rscale>
<asrwt>0</asrwt>
<pdfrwt beam="1">  1        3 0.31539384E-01 0.96707251E+03</pdfrwt>
<pdfrwt beam="2">  1       -3 0.17546002E+00 0.96707251E+03</pdfrwt>
<totfact> 0.54893452E+00</totfact>
</mgrwt>
</event>
<event>
 6    1  0.1585031E-006  0.1233299E+04  0.7818608E-02  0.9084199E-01
         -1   -1    0    0    0  501 -0.00000000000E+00  0.00000000000E+00  0.23323788868E+03  0.23323788868E+03  0.00000000000E+00 0.  1.
          1   -1    0    0  501    0  0.00000000000E+00 -0.00000000000E+00 -0.16303377882E+04  0.16303377882E+04  0.00000000000E+00 0. -1.
         23    2    1    2    0    0  0.19975514903E+03 -0.18930953086E+03 -0.15305748852E+04  0.15577067673E+04  0.89725558176E+02 0.  0.
         11    1    3    3    0    0  0.63726578373E+02 -0.63788909116E+02 -0.75432168384E+03  0.75969158507E+03  0.00000000000E+00 0. -1.
        -11    1    3    3    0    0  0.13602857066E+03 -0.12552062174E+03 -0.77625320136E+03  0.79801518228E+03  0.00000000000E+00 0.  1.
         22    1    1    2    0    0 -0.19975514903E+03  0.18930953086E+03  0.13347498566E+03  0.30586890956E+03  0.00000000000E+00 0.  1.
<mgrwt>
<rscale>  0 0.12332989E+04</rscale>
<asrwt>0</asrwt>
<pdfrwt beam="1">  1        1 0.25082120E+00 0.12332989E+04</pdfrwt>
<pdfrwt beam="2">  1       -1 0.35882752E-01 0.12332989E+04</pdfrwt>
<totfact> 0.38968645E+01</totfact>
</mgrwt>
</event>
<event>
 6    1  0.1585031E-006  0.3550336E+04  0.7818608E-02  0.8101963E-01
          2   -1    0    0  501    0  0.00000000000E+00  0.00000000000E+00  0.23648444678E+04  0.23648444678E+04  0.00000000000E+00 0. -1.
         -2   -1    0    0    0  501 -0.00000000000E+00 -0.00000000000E+00 -0.13325282575E+04  0.13325282575E+04  0.00000000000E+00 0.  1.
         23    2    1    2    0    0 -0.32701878691E+03  0.11090471559E+04  0.19176823786E+04  0.22410760065E+04  0.89381658039E+02 0.  0.
         13    1    3    3    0    0 -0.14595166373E+03  0.63858561039E+03  0.10493643185E+04  0.12370363547E+04  0.00000000000E+00 0. -1.
        -13    1    3    3    0    0 -0.18106712318E+03  0.47046154556E+03  0.86831806012E+03  0.10040396518E+04  0.00000000000E+00 0.  1.
         22    1    1    2    0    0  0.32701878691E+03 -0.11090471559E+04 -0.88536616834E+03  0.14562967188E+04  0.00000000000E+00 0.  1.
<mgrwt>
<rscale>  0 0.35503364E+04</rscale>
<asrwt>0</asrwt>
<pdfrwt beam="1">  1        2 0.36382222E+00 0.35503364E+04</pdfrwt>
<pdfrwt beam="2">  1       -2 0.20500435E+00 0.35503364E+04</pdfrwt>
<totfact> 0.42032624E-01</totfact>
</mgrwt>
</event>
<event>
 6    1  0.1585031E-006  0.1519264E+04  0.7818608E-02  0.8871743E-01
          2   -1    0    0  501    0  0.00000000000E+00  0.00000000000E+00  0.53277211010E+03  0.53277211010E+03  0.00000000000E+00 0. -1.
         -2   -1    0    0    0  501 -0.00000000000E+00 -0.00000000000E+00 -0.10830907816E+04  0.10830907816E+04  0.00000000000E+00 0.  1.
         23    2    1    2    0    0 -0.36769467816E+03 -0.38035752063E+02 -0.97866782427E+03  0.10500633764E+04  0.90533360672E+02 0.  0.
         11    1    3    3    0    0 -0.23142094144E+03  0.12308620491E+02 -0.66922473317E+03  0.70821529055E+03  0.00000000000E+00 0. -1.
        -11    1    3    3    0    0 -0.13627373671E+03 -0.50344372553E+02 -0.30944309110E+03  0.34184808585E+03  0.00000000000E+00 0.  1.
         22    1    1    2    0    0  0.36769467816E+03  0.38035752063E+02  0.42834915280E+03  0.56579951528E+03  0.00000000000E+00 0. -1.
<mgrwt>
<rscale>  0 0.15192637E+04</rscale>
<asrwt>0</asrwt>
<pdfrwt beam="1">  1        2 0.81964941E-01 0.15192637E+04</pdfrwt>
<pdfrwt beam="2">  1       -2 0.16662935E+00 0.15192637E+04</pdfrwt>
<totfact> 0.12414523E+01</totfact>
</mgrwt>
</event>
<event>
 6    1  0.1585031E-006  0.2950483E+04  0.7818608E-02  0.8258014E-01
         -1   -1    0    0    0  501 -0.00000000000E+00  0.00000000000E+00  0.81986310589E+03  0.81986310589E+03  0.00000000000E+00 0.  1.
          1   -1    0    0  501    0  0.00000000000E+00 -0.00000000000E+00 -0.26545134951E+04  0.26545134951E+04  0.00000000000E+00 0. -1.
         23    2    1    2    0    0  0.77919320614E+03 -0.11739803916E+04 -0.40906259783E+03  0.14699633294E+04  0.89933132764E+02 0.  0.
         11    1    3    3    0    0  0.40905304284E+03 -0.57604583628E+03 -0.24568079074E+03  0.74800551354E+03  0.00000000000E+00 0. -1.
        -11    1    3    3    0    0  0.37014016330E+03 -0.59793455534E+03 -0.16338180710E+03  0.72195781584E+03  0.00000000000E+00 0.  1.
         22    1    1    2    0    0 -0.77919320614E+03  0.11739803916E+04 -0.14255877913E+04  0.20044132716E+04  0.00000000000E+00 0. -1.
<mgrwt>
<rscale>  0 0.29504831E+04</rscale>
<asrwt>0</asrwt>
<pdfrwt beam="1">  1        1 0.40838669E+00 0.29504831E+04</pdfrwt>
<pdfrwt beam="2">  1       -1 0.12613279E+00 0.29504831E+04</pdfrwt>
<totfact> 0.49383858E-01</totfact>
</mgrwt>
</event>
<event>
 6    1  0.1585031E-006  0.2881334E+04  0.7818608E-02  0.8278453E-01
         -1   -1    0    0    0  501 -0.00000000000E+00  0.00000000000E+00  0.30730726569E+04  0.30730726569E+04  0.00000000000E+00 0.  1.
          1   -1    0    0  501    0  0.00000000000E+00 -0.00000000000E+00 -0.67538978039E+03  0.67538978039E+03  0.00000000000E+00 0. -1.
         23    2    1    2    0    0  0.29204906808E+03 -0.13075736874E+04  0.51626546533E+03  0.14387496670E+04  0.91809409568E+02 0.  0.
         11    1    3    3    0    0  0.15394578058E+03 -0.85723711127E+03  0.36072560094E+03  0.94269704968E+03  0.00000000000E+00 0. -1.
        -11    1    3    3    0    0  0.13810328749E+03 -0.45033657609E+03  0.15553986439E+03  0.49605261736E+03  0.00000000000E+00 0.  1.
         22    1    1    2    0    0 -0.29204906808E+03  0.13075736874E+04  0.18814174112E+04  0.23097127703E+04  0.00000000000E+00 0.  1.
<mgrwt>
<rscale>  0 0.28813343E+04</rscale>
<asrwt>0</asrwt>
<pdfrwt beam="1">  1        1 0.10390612E+00 0.28813343E+04</pdfrwt>
<pdfrwt beam="2">  1       -1 0.47278040E+00 0.28813343E+04</pdfrwt>
<totfact> 0.55767236E-02</totfact>
</mgrwt>
</event>
<event>
 6    1  0.1585031E-006  0.3663082E+04  0.7818608E-02  0.8076193E-01
         -1   -1    0    0    0  501 -0.00000000000E+00  0.00000000000E+00  0.16801896096E+04  0.16801896096E+04  0.00000000000E+00 0.  1.
          1   -1    0    0  501    0  0.00000000000E+00 -0.00000000000E+00 -0.19965259908E+04  0.19965259908E+04  0.00000000000E+00 0. -1.
         23    2    1    2    0    0  0.10591573416E+04 -0.14756209574E+04  0.67881440994E+02  0.18201341130E+04  0.94914777592E+02 0.  0.
         13    1    3    3    0    0  0.70398220317E+03 -0.10554432680E+04  0.49548752926E+02  0.12696481848E+04  0.00000000000E+00 0. -1.
        -13    1    3    3    0    0  0.35517513844E+03 -0.42017768944E+03  0.18332688068E+02  0.55048592818E+03  0.00000000000E+00 0.  1.
         22    1    1    2    0    0 -0.10591573416E+04  0.14756209574E+04 -0.38421782217E+03  0.18565814873E+04  0.00000000000E+00 0. -1.
<mgrwt>
<rscale>  0 0.36630819E+04</rscale>
<asrwt>0</asrwt>
<pdfrwt beam="1">  1        1 0.30715784E+00 0.36630819E+04</pdfrwt>
<pdfrwt beam="2">  1       -1 0.25849071E+00 0.36630819E+04</pdfrwt>
<totfact> 0.14800344E-01</totfact>
</mgrwt>
</event>
<event>
 6    1  0.1585031E-006  0.2865260E+04  0.7818608E-02  0.8283289E-01
          1   -1    0    0  501    0  0.00000000000E+00  0.00000000000E+00  0.26072490101E+04  0.26072490101E+04  0.00000000000E+00 0. -1.
         -1   -1    0    0    0  501 -0.00000000000E+00 -0.00000000000E+00 -0.78720105694E+03  0.78720105694E+03  0.00000000000E+00 0.  1.
         23    2    1    2    0    0  0.61761993240E+03 -0.10277708702E+04 -0.14871617650E+02  0.12024881208E+04  0.89382174633E+02 0.  0.
         11    1    3    3    0    0  0.39415630132E+03 -0.71165385380E+03  0.20281657602E+02  0.81377008001E+03  0.00000000000E+00 0.  1.
        -11    1    3    3    0    0  0.22346363108E+03 -0.31611701638E+03 -0.35153275251E+02  0.38871804078E+03  0.00000000000E+00 0. -1.
         22    1    1    2    0    0 -0.61761993240E+03  0.10277708702E+04  0.18349195708E+04  0.21919619462E+04  0.00000000000E+00 0. -1.
<mgrwt>
<rscale>  0 0.28652603E+04</rscale>
<asrwt>0</asrwt>
<pdfrwt beam="1">  1        1 0.40111523E+00 0.28652603E+04</pdfrwt>
<pdfrwt beam="2">  1       -1 0.12110786E+00 0.28652603E+04</pdfrwt>
<totfact> 0.59395374E-01</totfact>
</mgrwt>
</event>
<event>
 6    1  0.1585031E-006  0.2698058E+04  0.7818608E-02  0.8335635E-01
         -1   -1    0    0    0  501 -0.00000000000E+00  0.00000000000E+00  0.78520695324E+03  0.78520695324E+03  0.00000000000E+00 0.  1.
          1   -1    0    0  501    0  0.00000000000E+00 -0.00000000000E+00 -0.23177068765E+04  0.23177068765E+04  0.00000000000E+00 0. -1.
         23    2    1    2    0    0  0.47295793790E+03  0.66625751286E+03 -0.19993925422E+04  0.21618628204E+04  0.92152221630E+02 0.  0.
         13    1    3    3    0    0  0.16231627201E+03  0.21362444652E+03 -0.77204324697E+03  0.81733270551E+03  0.00000000000E+00 0.  1.
        -13    1    3    3    0    0  0.31064166589E+03  0.45263306634E+03 -0.12273492953E+04  0.13445301149E+04  0.00000000000E+00 0. -1.
         22    1    1    2    0    0 -0.47295793790E+03 -0.66625751286E+03  0.46689261898E+03  0.94105100931E+03  0.00000000000E+00 0.  1.
<mgrwt>
<rscale>  0 0.26980582E+04</rscale>
<asrwt>0</asrwt>
<pdfrwt beam="1">  1        1 0.35657029E+00 0.26980582E+04</pdfrwt>
<pdfrwt beam="2">  1       -1 0.12080107E+00 0.26980582E+04</pdfrwt>
<totfact> 0.96228856E-01</totfact>
</mgrwt>
</event>
<event>
 6    1  0.1585031E-006  0.2150614E+04  0.7818608E-02  0.8539269E-01
          1   -1    0    0  501    0  0.00000000000E+00  0.00000000000E+00  0.15602179432E+04  0.15602179432E+04  0.00000000000E+00 0. -1.
         -1   -1    0    0    0  501 -0.00000000000E+00 -0.00000000000E+00 -0.74110490537E+03  0.74110490537E+03  0.00000000000E+00 0.  1.
         23    2    1    2    0    0  0.34842441650E+03 -0.68517840335E+03  0.12119574455E+04  0.14380756377E+04  0.91387479917E+02 0.  0.
         13    1    3    3    0    0  0.16881317508E+03 -0.42078991187E+03  0.67320151092E+03  0.81164173889E+03  0.00000000000E+00 0. -1.
        -13    1    3    3    0    0  0.17961124142E+03 -0.26438849149E+03  0.53875593458E+03  0.62643389877E+03  0.00000000000E+00 0.  1.
         22    1    1    2    0    0 -0.34842441650E+03  0.68517840335E+03 -0.39284440771E+03  0.86324721089E+03  0.00000000000E+00 0.  1.
<mgrwt>
<rscale>  0 0.21506140E+04</rscale>
<asrwt>0</asrwt>
<pdfrwt beam="1">  1        1 0.24003353E+00 0.21506140E+04</pdfrwt>
<pdfrwt beam="2">  1       -1 0.11401614E+00 0.21506140E+04</pdfrwt>
<totfact> 0.38130989E+00</totfact>
</mgrwt>
</event>
<event>
 6    1  0.1585031E-006  0.3673873E+04  0.7818608E-02  0.8073777E-01
          1   -1    0    0  501    0  0.00000000000E+00  0.00000000000E+00  0.96569956553E+03  0.96569956553E+03  0.00000000000E+00 0. -1.
         -1   -1    0    0    0  501 -0.00000000000E+00 -0.00000000000E+00 -0.34941882449E+04  0.34941882449E+04  0.00000000000E+00 0.  1.
         23    2    1    2    0    0  0.92048531050E+03 -0.10442620702E+04 -0.27178790084E+04  0.30550229860E+04  0.92318268941E+02 0.  0.
         11    1    3    3    0    0  0.19462195442E+03 -0.27104717322E+03 -0.60511306599E+03  0.69101816031E+03  0.00000000000E+00 0. -1.
        -11    1    3    3    0    0  0.72586335608E+03 -0.77321489701E+03 -0.21127659424E+04  0.23640048257E+04  0.00000000000E+00 0.  1.
         22    1    1    2    0    0 -0.92048531050E+03  0.10442620702E+04  0.18939032899E+03  0.14048648244E+04  0.00000000000E+00 0. -1.
<mgrwt>
<rscale>  0 0.36738732E+04</rscale>
<asrwt>0</asrwt>
<pdfrwt beam="1">  1        1 0.14856916E+00 0.36738732E+04</pdfrwt>
<pdfrwt beam="2">  1       -1 0.53756743E+00 0.36738732E+04</pdfrwt>
<totfact> 0.11373090E-02</totfact>
</mgrwt>
</event>
<event>
 6    1  0.1585031E-006  0.3178411E+04  0.7818608E-02  0.8194542E-01
         -2   -1    0    0    0  501 -0.00000000000E+00  0.00000000000E+00  0.22479715957E+04  0.22479715957E+04  0.00000000000E+00 0.  1.
          2   -1    0    0  501    0  0.00000000000E+00 -0.00000000000E+00 -0.11234904338E+04  0.11234904338E+04  0.00000000000E+00 0. -1.
         23    2    1    2    0    0 -0.41121391149E+03  0.11425775541E+04  0.16480975802E+04  0.20490572119E+04  0.88484323753E+02 0.  0.
         11    1    3    3    0    0 -0.17437995038E+03  0.58564177799E+03  0.78085916818E+03  0.99152695362E+03  0.00000000000E+00 0. -1.
        -11    1    3    3    0    0 -0.23683396111E+03  0.55693577607E+03  0.86723841202E+03  0.10575302582E+04  0.00000000000E+00 0.  1.
         22    1    1    2    0    0  0.41121391149E+03 -0.11425775541E+04 -0.52361641836E+03  0.13224048176E+04  0.00000000000E+00 0. -1.
<mgrwt>
<rscale>  0 0.31784113E+04</rscale>
<asrwt>0</asrwt>
<pdfrwt beam="1">  1        2 0.17284468E+00 0.31784113E+04</pdfrwt>
<pdfrwt beam="2">  1       -2 0.34584178E+00 0.31784113E+04</pdfrwt>
<totfact> 0.29365192E-01</totfact>
</mgrwt>
</event>
<event>
 6    1  0.1585031E-006  0.3616604E+04  0.7818608E-02  0.8086699E-01
         -2   -1    0    0    0  501 -0.00000000000E+00  0.00000000000E+00  0.23582292868E+04  0.23582292868E+04  0.00000000000E+00 0.  1.
          2   -1    0    0  501    0  0.00000000000E+00 -0.00000000000E+00 -0.13866147841E+04  0.13866147841E+04  0.00000000000E+00 0. -1.
         23    2    1    2    0    0 -0.35553530317E+03 -0.78388188170E+03  0.21314001555E+04  0.23005522317E+04  0.93796543743E+02 0.  0.
         13    1    3    3    0    0 -0.12287097979E+03 -0.25266939545E+03  0.58460312573E+03  0.64861384173E+03  0.00000000000E+00 0. -1.
        -13    1    3    3    0    0 -0.23266432338E+03 -0.53121248625E+03  0.15467970298E+04  0.16519383899E+04  0.00000000000E+00 0.  1.
         22    1    1    2    0    0  0.35553530317E+03  0.78388188170E+03 -0.11597856528E+04  0.14442918392E+04  0.00000000000E+00 0. -1.
<mgrwt>
<rscale>  0 0.36166037E+04</rscale>
<asrwt>0</asrwt>
<pdfrwt beam="1">  1        2 0.21332535E+00 0.36166037E+04</pdfrwt>
<pdfrwt beam="2">  1       -2 0.36280450E+00 0.36166037E+04</pdfrwt>
<totfact> 0.15464039E-01</totfact>
</mgrwt>
</event>
<event>
 6    1  0.1585031E-006  0.3658449E+04  0.7818608E-02  0.8077233E-01
          2   -1    0    0  501    0  0.00000000000E+00  0.00000000000E+00  0.15388394844E+04  0.15388394844E+04  0.00000000000E+00 0. -1.
         -2   -1    0    0    0  501 -0.00000000000E+00 -0.00000000000E+00 -0.21744065272E+04  0.21744065272E+04  0.00000000000E+00 0.  1.
         23    2    1    2    0    0 -0.13712679326E+04  0.78557934162E+03 -0.12506757765E+04  0.20174071633E+04  0.90725517690E+02 0.  0.
         11    1    3    3    0    0 -0.98195300871E+03  0.59301296194E+03 -0.94575337103E+03  0.14867230822E+04  0.00000000000E+00 0.  1.
        -11    1    3    3    0    0 -0.38931492391E+03  0.19256637968E+03 -0.30492240549E+03  0.53068408110E+03  0.00000000000E+00 0. -1.
         22    1    1    2    0    0  0.13712679326E+04 -0.78557934162E+03  0.61510873374E+03  0.16958388483E+04  0.00000000000E+00 0. -1.
<mgrwt>
<rscale>  0 0.36584492E+04</rscale>
<asrwt>0</asrwt>
<pdfrwt beam="1">  1        2 0.23674453E+00 0.36584492E+04</pdfrwt>
<pdfrwt beam="2">  1       -2 0.33452408E+00 0.36584492E+04</pdfrwt>
<totfact> 0.19041042E-01</totfact>
</mgrwt>
</event>
<event>
 6    1  0.1585031E-006  0.1670280E+04  0.7818608E-02  0.8778499E-01
         -1   -1    0    0    0  501 -0.00000000000E+00  0.00000000000E+00  0.74271833741E+03  0.74271833741E+03  0.00000000000E+00 0.  1.
          1   -1    0    0  501    0  0.00000000000E+00 -0.00000000000E+00 -0.93906238034E+03  0.93906238034E+03  0.00000000000E+00 0. -1.
         23    2    1    2    0    0  0.82251664550E+02  0.72710526723E+03  0.30154225797E+03  0.79671677962E+03  0.91555926277E+02 0.  0.
         13    1    3    3    0    0 -0.61474171681E+01  0.17829791828E+03  0.10558937744E+03  0.20730908091E+03  0.00000000000E+00 0.  1.
        -13    1    3    3    0    0  0.88399081718E+02  0.54880734895E+03  0.19595288053E+03  0.58940769871E+03  0.00000000000E+00 0. -1.
         22    1    1    2    0    0 -0.82251664550E+02 -0.72710526723E+03 -0.49788630090E+03  0.88506393813E+03  0.00000000000E+00 0. -1.
<mgrwt>
<rscale>  0 0.16702800E+04</rscale>
<asrwt>0</asrwt>
<pdfrwt beam="1">  1        1 0.14447114E+00 0.16702800E+04</pdfrwt>
<pdfrwt beam="2">  1       -1 0.11426436E+00 0.16702800E+04</pdfrwt>
<totfact> 0.11249551E+01</totfact>
</mgrwt>
</event>
<event>
 6    1  0.1585031E-006  0.1430388E+04  0.7818608E-02  0.8932111E-01
         -1   -1    0    0    0  501 -0.00000000000E+00  0.00000000000E+00  0.13128946958E+04  0.13128946958E+04  0.00000000000E+00 0.  1.
          1   -1    0    0  501    0  0.00000000000E+00 -0.00000000000E+00 -0.38959919252E+03  0.38959919252E+03  0.00000000000E+00 0. -1.
         23    2    1    2    0    0 -0.44347894159E+03 -0.76715465360E+02  0.11205472523E+04  0.12111008819E+04  0.92630271761E+02 0.  0.
         11    1    3    3    0    0 -0.91609899946E+02  0.10526511707E+02  0.16377231056E+03  0.18794826661E+03  0.00000000000E+00 0.  1.
        -11    1    3    3    0    0 -0.35186904164E+03 -0.87241977067E+02  0.95677494170E+03  0.10231526153E+04  0.00000000000E+00 0. -1.
         22    1    1    2    0    0  0.44347894159E+03  0.76715465360E+02 -0.19725174903E+03  0.49139300641E+03  0.00000000000E+00 0. -1.
<mgrwt>
<rscale>  0 0.14303884E+04</rscale>
<asrwt>0</asrwt>
<pdfrwt beam="1">  1        1 0.59938338E-01 0.14303884E+04</pdfrwt>
<pdfrwt beam="2">  1       -1 0.20198380E+00 0.14303884E+04</pdfrwt>
<totfact> 0.88147923E+00</totfact>
</mgrwt>
</event>
<event>
 6    1  0.1585031E-006  0.8648959E+03  0.7818608E-02  0.9470559E-01
          2   -1    0    0  501    0  0.00000000000E+00  0.00000000000E+00  0.70407426080E+03  0.70407426080E+03  0.00000000000E+00 0. -1.
         -2   -1    0    0    0  501 -0.00000000000E+00 -0.00000000000E+00 -0.26561292366E+03  0.26561292366E+03  0.00000000000E+00 0.  1.
         23    2    1    2    0    0  0.18096635212E+03 -0.34272724248E+03  0.42417986635E+03  0.58185378756E+03  0.91730516979E+02 0.  0.
         13    1    3    3    0    0  0.66517056790E+02 -0.21480311444E+03  0.26740153774E+03  0.34938299787E+03  0.00000000000E+00 0. -1.
        -13    1    3    3    0    0  0.11444929533E+03 -0.12792412804E+03  0.15677832861E+03  0.23247078969E+03  0.00000000000E+00 0.  1.
         22    1    1    2    0    0 -0.18096635212E+03  0.34272724248E+03  0.14281470783E+02  0.38783339689E+03  0.00000000000E+00 0.  1.
<mgrwt>
<rscale>  0 0.86489588E+03</rscale>
<asrwt>0</asrwt>
<pdfrwt beam="1">  1        2 0.10831912E+00 0.86489588E+03</pdfrwt>
<pdfrwt beam="2">  1       -2 0.40863527E-01 0.86489588E+03</pdfrwt>
<totfact> 0.23154466E+02</totfact>
</mgrwt>
</event>
<event>
 6    1  0.1585031E-006  0.3139690E+04  0.7818608E-02  0.8204929E-01
         -1   -1    0    0    0  501 -0.00000000000E+00  0.00000000000E+00  0.12512994720E+04  0.12512994720E+04  0.00000000000E+00 0.  1.
          1   -1    0    0  501    0  0.00000000000E+00 -0.00000000000E+00 -0.19694837314E+04  0.19694837314E+04  0.00000000000E+00 0. -1.
         23    2    1    2    0    0 -0.46375518514E+03  0.12075622869E+03  0.11726897281E+04  0.12701280891E+04  0.91505333048E+02 0.  0.
         13    1    3    3    0    0 -0.34087735500E+03  0.12698082569E+03  0.91177429485E+03  0.98165873194E+03  0.00000000000E+00 0. -1.
        -13    1    3    3    0    0 -0.12287783015E+03 -0.62245969965E+01  0.26091543320E+03  0.28846935718E+03  0.00000000000E+00 0.  1.
         22    1    1    2    0    0  0.46375518514E+03 -0.12075622869E+03 -0.18908739874E+04  0.19506551143E+04  0.00000000000E+00 0. -1.
<mgrwt>
<rscale>  0 0.31396904E+04</rscale>
<asrwt>0</asrwt>
<pdfrwt beam="1">  1        1 0.30299750E+00 0.31396904E+04</pdfrwt>
<pdfrwt beam="2">  1       -1 0.19250761E+00 0.31396904E+04</pdfrwt>
<totfact> 0.44604277E-01</totfact>
</mgrwt>
</event>
<event>
 6    1  0.1585031E-006  0.4748613E+04  0.7818608E-02  0.7868501E-01
          2   -1    0    0  501    0  0.00000000000E+00  0.00000000000E+00  0.36061339455E+04  0.36061339455E+04  0.00000000000E+00 0. -1.
         -2   -1    0    0    0  501 -0.00000000000E+00 -0.00000000000E+00 -0.15632615824E+04  0.15632615824E+04  0.00000000000E+00 0.  1.
         23    2    1    2    0    0 -0.19813396420E+04  0.95963002610E+03  0.56299793487E+02  0.22040848969E+04  0.90686283255E+02 0.  0.
         13    1    3    3    0    0 -0.17107374781E+04  0.80784590362E+03  0.22878075514E+02  0.18920256683E+04  0.00000000000E+00 0.  1.
        -13    1    3    3    0    0 -0.27060216391E+03  0.15178412248E+03  0.33421717972E+02  0.31205922864E+03  0.00000000000E+00 0. -1.
         22    1    1    2    0    0  0.19813396420E+04 -0.95963002610E+03  0.19865725696E+04  0.29653106310E+04  0.00000000000E+00 0. -1.
<mgrwt>
<rscale>  0 0.47486127E+04</rscale>
<asrwt>0</asrwt>
<pdfrwt beam="1">  1        2 0.55478984E+00 0.47486127E+04</pdfrwt>
<pdfrwt beam="2">  1       -2 0.24050178E+00 0.47486127E+04</pdfrwt>
<totfact> 0.37240842E-02</totfact>
</mgrwt>
</event>
<event>
 6    1  0.1585031E-006  0.2564257E+04  0.7818608E-02  0.8380445E-01
          2   -1    0    0  501    0  0.00000000000E+00  0.00000000000E+00  0.97932056175E+03  0.97932056175E+03  0.00000000000E+00 0. -1.
         -2   -1    0    0    0  501 -0.00000000000E+00 -0.00000000000E+00 -0.16785650405E+04  0.16785650405E+04  0.00000000000E+00 0.  1.
         23    2    1    2    0    0  0.19847812853E+03 -0.12509342268E+04 -0.54619886967E+03  0.13820905695E+04  0.87241790210E+02 0.  0.
         11    1    3    3    0    0  0.10411260224E+03 -0.75517903106E+03 -0.37173444580E+03  0.84812811596E+03  0.00000000000E+00 0.  1.
        -11    1    3    3    0    0  0.94365526293E+02 -0.49575519570E+03 -0.17446442387E+03  0.53396245356E+03  0.00000000000E+00 0. -1.
         22    1    1    2    0    0 -0.19847812853E+03  0.12509342268E+04 -0.15304560912E+03  0.12757950328E+04  0.00000000000E+00 0. -1.
<mgrwt>
<rscale>  0 0.25642568E+04</rscale>
<asrwt>0</asrwt>
<pdfrwt beam="1">  1        2 0.15066470E+00 0.25642568E+04</pdfrwt>
<pdfrwt beam="2">  1       -2 0.25824078E+00 0.25642568E+04</pdfrwt>
<totfact> 0.13179500E+00</totfact>
</mgrwt>
</event>
<event>
 6    1  0.1585031E-006  0.4371188E+04  0.7818608E-02  0.7933584E-01
          1   -1    0    0  501    0  0.00000000000E+00  0.00000000000E+00  0.41470958550E+04  0.41470958550E+04  0.00000000000E+00 0. -1.
         -1   -1    0    0    0  501 -0.00000000000E+00 -0.00000000000E+00 -0.11518473475E+04  0.11518473475E+04  0.00000000000E+00 0.  1.
         23    2    1    2    0    0  0.17518330253E+04  0.12668048949E+04  0.18794405082E+04  0.28660969103E+04  0.92202414712E+02 0.  0.
         13    1    3    3    0    0  0.26199680426E+03  0.22994096607E+03  0.31404437824E+03  0.46918977485E+03  0.00000000000E+00 0.  1.
        -13    1    3    3    0    0  0.14898362210E+04  0.10368639288E+04  0.15653961299E+04  0.23969071354E+04  0.00000000000E+00 0. -1.
         22    1    1    2    0    0 -0.17518330253E+04 -0.12668048949E+04  0.11158079994E+04  0.24328462922E+04  0.00000000000E+00 0. -1.
<mgrwt>
<rscale>  0 0.43711881E+04</rscale>
<asrwt>0</asrwt>
<pdfrwt beam="1">  1        1 0.63801474E+00 0.43711881E+04</pdfrwt>
<pdfrwt beam="2">  1       -1 0.17720729E+00 0.43711881E+04</pdfrwt>
<totfact> 0.11666394E-02</totfact>
</mgrwt>
</event>
<event>
 6    1  0.1585031E-006  0.2547612E+04  0.7818608E-02  0.8386217E-01
         -1   -1    0    0    0  501 -0.00000000000E+00  0.00000000000E+00  0.18920283536E+04  0.18920283536E+04  0.00000000000E+00 0.  1.
          1   -1    0    0  501    0  0.00000000000E+00 -0.00000000000E+00 -0.85758831066E+03  0.85758831066E+03  0.00000000000E+00 0. -1.
         23    2    1    2    0    0 -0.39030804559E+03  0.49255110803E+03  0.17116337658E+04  0.18257452973E+04  0.93320832107E+02 0.  0.
         13    1    3    3    0    0 -0.18094697494E+03  0.29078908751E+03  0.85152708339E+03  0.91782268162E+03  0.00000000000E+00 0. -1.
        -13    1    3    3    0    0 -0.20936107064E+03  0.20176202052E+03  0.86010668243E+03  0.90792261564E+03  0.00000000000E+00 0.  1.
         22    1    1    2    0    0  0.39030804559E+03 -0.49255110803E+03 -0.67719372287E+03  0.92387136700E+03  0.00000000000E+00 0. -1.
<mgrwt>
<rscale>  0 0.25476117E+04</rscale>
<asrwt>0</asrwt>
<pdfrwt beam="1">  1        1 0.13193666E+00 0.25476117E+04</pdfrwt>
<pdfrwt beam="2">  1       -1 0.29108128E+00 0.25476117E+04</pdfrwt>
<totfact> 0.65874720E-01</totfact>
</mgrwt>
</event>
<event>
 6    1  0.1585031E-006  0.3158714E+04  0.7818608E-02  0.8199807E-01
          2   -1    0    0  501    0  0.00000000000E+00  0.00000000000E+00  0.15869185417E+04  0.15869185417E+04  0.00000000000E+00 0. -1.
         -2   -1    0    0    0  501 -0.00000000000E+00 -0.00000000000E+00 -0.15718316405E+04  0.15718316405E+04  0.00000000000E+00 0.  1.
         23    2    1    2    0    0  0.68711588202E+03  0.11558917024E+04 -0.81850163486E+03  0.15766364978E+04  0.87314701235E+02 0.  0.
         11    1    3    3    0    0  0.41941395957E+03  0.71868482378E+03 -0.45707514317E+03  0.94938592360E+03  0.00000000000E+00 0. -1.
        -11    1    3    3    0    0  0.26770192245E+03  0.43720687858E+03 -0.36142649168E+03  0.62725057422E+03  0.00000000000E+00 0.  1.
         22    1    1    2    0    0 -0.68711588202E+03 -0.11558917024E+04  0.83358853604E+03  0.15821136844E+04  0.00000000000E+00 0. -1.
<mgrwt>
<rscale>  0 0.31587142E+04</rscale>
<asrwt>0</asrwt>
<pdfrwt beam="1">  1        2 0.24414131E+00 0.31587142E+04</pdfrwt>
<pdfrwt beam="2">  1       -2 0.24182025E+00 0.31587142E+04</pdfrwt>
<totfact> 0.69170939E-01</totfact>
</mgrwt>
</event>
<event>
 6    1  0.1585031E-006  0.1844023E+04  0.7818608E-02  0.8683232E-01
         -2   -1    0    0    0  501 -0.00000000000E+00  0.00000000000E+00  0.34448684452E+03  0.34448684452E+03  0.00000000000E+00 0.  1.
          2   -1    0    0  501    0  0.00000000000E+00 -0.00000000000E+00 -0.24677443562E+04  0.24677443562E+04  0.00000000000E+00 0. -1.
         23    2    1    2    0    0 -0.44480523964E+03 -0.35107996573E+03 -0.21689945770E+04  0.22437237490E+04  0.93005071550E+02 0.  0.
         13    1    3    3    0    0 -0.90158913401E+02 -0.88622656063E+02 -0.63897706413E+03  0.65136341110E+03  0.00000000000E+00 0.  1.
        -13    1    3    3    0    0 -0.35464632624E+03 -0.26245730967E+03 -0.15300175129E+04  0.15923603379E+04  0.00000000000E+00 0. -1.
         22    1    1    2    0    0  0.44480523964E+03  0.35107996573E+03  0.45737065274E+02  0.56850745175E+03  0.00000000000E+00 0.  1.
<mgrwt>
<rscale>  0 0.18440233E+04</rscale>
<asrwt>0</asrwt>
<pdfrwt beam="1">  1        2 0.37965298E+00 0.18440233E+04</pdfrwt>
<pdfrwt beam="2">  1       -2 0.52997976E-01 0.18440233E+04</pdfrwt>
<totfact> 0.11488770E+01</totfact>
</mgrwt>
</event>
<event>
 6    1  0.1585031E-006  0.3332500E+04  0.7818608E-02  0.8154675E-01
          2   -1    0    0  501    0  0.00000000000E+00  0.00000000000E+00  0.36733673538E+04  0.36733673538E+04  0.00000000000E+00 0. -1.
         -2   -1    0    0    0  501 -0.00000000000E+00 -0.00000000000E+00 -0.75581560549E+03  0.75581560549E+03  0.00000000000E+00 0.  1.
         23    2    1    2    0    0 -0.26046145190E+02 -0.11686030428E+04 -0.11598240354E+03  0.11782383391E+04  0.92098817941E+02 0.  0.
         13    1    3    3    0    0  0.18086240458E+02 -0.81956077105E+03 -0.59555383765E+02  0.82192080718E+03  0.00000000000E+00 0. -1.
        -13    1    3    3    0    0 -0.44132385648E+02 -0.34904227179E+03 -0.56427019775E+02  0.35631753187E+03  0.00000000000E+00 0.  1.
         22    1    1    2    0    0  0.26046145190E+02  0.11686030428E+04  0.30335341518E+04  0.32509446202E+04  0.00000000000E+00 0. -1.
<mgrwt>
<rscale>  0 0.33324996E+04</rscale>
<asrwt>0</asrwt>
<pdfrwt beam="1">  1        2 0.56513343E+00 0.33324996E+04</pdfrwt>
<pdfrwt beam="2">  1       -2 0.11627933E+00 0.33324996E+04</pdfrwt>
<totfact> 0.29143902E-01</totfact>
</mgrwt>
</event>
<event>
 6    1  0.1585031E-006  0.1196161E+04  0.7818608E-02  0.9116224E-01
          2   -1    0    0  501    0  0.00000000000E+00  0.00000000000E+00  0.15955017024E+04  0.15955017024E+04  0.00000000000E+00 0. -1.
         -2   -1    0    0    0  501 -0.00000000000E+00 -0.00000000000E+00 -0.22419292284E+03  0.22419292284E+03  0.00000000000E+00 0.  1.
         23    2    1    2    0    0  0.21483050323E+03 -0.71409003176E+01  0.15330401551E+04  0.15506961580E+04  0.90792727978E+02 0.  0.
         11    1    3    3    0    0  0.12185795788E+03  0.10097660400E+02  0.56674130303E+03  0.57978188072E+03  0.00000000000E+00 0.  1.
        -11    1    3    3    0    0  0.92972545352E+02 -0.17238560718E+02  0.96629885211E+03  0.97091427725E+03  0.00000000000E+00 0. -1.
         22    1    1    2    0    0 -0.21483050323E+03  0.71409003176E+01 -0.16173137556E+03  0.26899846731E+03  0.00000000000E+00 0.  1.
<mgrwt>
<rscale>  0 0.11961608E+04</rscale>
<asrwt>0</asrwt>
<pdfrwt beam="1">  1        2 0.24546179E+00 0.11961608E+04</pdfrwt>
<pdfrwt beam="2">  1       -2 0.34491220E-01 0.11961608E+04</pdfrwt>
<totfact> 0.87183895E+01</totfact>
</mgrwt>
</event>
<event>
 6    1  0.1585031E-006  0.2445528E+04  0.7818608E-02  0.8422652E-01
         -2   -1    0    0    0  501 -0.00000000000E+00  0.00000000000E+00  0.45863269348E+03  0.45863269348E+03  0.00000000000E+00 0.  1.
          2   -1    0    0  501    0  0.00000000000E+00 -0.00000000000E+00 -0.32600207164E+04  0.32600207164E+04  0.00000000000E+00 0. -1.
         23    2    1    2    0    0 -0.10003971184E+04 -0.40731353390E+03 -0.22686321162E+04  0.25142749122E+04  0.90487270877E+02 0.  0.
         11    1    3    3    0    0 -0.93317530427E+03 -0.36047169737E+03 -0.20576424093E+04  0.22879353744E+04  0.00000000000E+00 0.  1.
        -11    1    3    3    0    0 -0.67221814161E+02 -0.46841836529E+02 -0.21098970691E+03  0.22633953780E+03  0.00000000000E+00 0. -1.
         22    1    1    2    0    0  0.10003971184E+04  0.40731353390E+03 -0.53275590672E+03  0.12043784976E+04  0.00000000000E+00 0. -1.
<mgrwt>
<rscale>  0 0.24455282E+04</rscale>
<asrwt>0</asrwt>
<pdfrwt beam="1">  1        2 0.50154164E+00 0.24455282E+04</pdfrwt>
<pdfrwt beam="2">  1       -2 0.70558877E-01 0.24455282E+04</pdfrwt>
<totfact> 0.19397378E+00</totfact>
</mgrwt>
</event>
<event>
 6    1  0.1585031E-006  0.3370512E+04  0.7818608E-02  0.8145182E-01
          2   -1    0    0  501    0  0.00000000000E+00  0.00000000000E+00  0.21006989725E+04  0.21006989725E+04  0.00000000000E+00 0. -1.
         -2   -1    0    0    0  501 -0.00000000000E+00 -0.00000000000E+00 -0.13519726351E+04  0.13519726351E+04  0.00000000000E+00 0.  1.
         23    2    1    2    0    0  0.67440055317E+03 -0.10825975108E+04  0.15009829401E+04  0.19718868586E+04  0.92490649051E+02 0.  0.
         11    1    3    3    0    0  0.14515791467E+03 -0.28284295095E+03  0.42122395515E+03  0.52773153732E+03  0.00000000000E+00 0. -1.
        -11    1    3    3    0    0  0.52924263850E+03 -0.79975455986E+03  0.10797589849E+04  0.14441553213E+04  0.00000000000E+00 0.  1.
         22    1    1    2    0    0 -0.67440055317E+03  0.10825975108E+04 -0.75225660265E+03  0.14807847490E+04  0.00000000000E+00 0.  1.
<mgrwt>
<rscale>  0 0.33705118E+04</rscale>
<asrwt>0</asrwt>
<pdfrwt beam="1">  1        2 0.32318446E+00 0.33705118E+04</pdfrwt>
<pdfrwt beam="2">  1       -2 0.20799579E+00 0.33705118E+04</pdfrwt>
<totfact> 0.57513355E-01</totfact>
</mgrwt>
</event>
<event>
 6    1  0.1585031E-006  0.1489107E+04  0.7818608E-02  0.8891729E-01
          1   -1    0    0  501    0  0.00000000000E+00  0.00000000000E+00  0.42093922022E+03  0.42093922022E+03  0.00000000000E+00 0.  1.
         -1   -1    0    0    0  501 -0.00000000000E+00 -0.00000000000E+00 -0.13169589758E+04  0.13169589758E+04  0.00000000000E+00 0. -1.
         23    2    1    2    0    0  0.22700282071E+03  0.84466098218E+02  0.36858888957E+03  0.45030360619E+03  0.90833726539E+02 0.  0.
         11    1    3    3    0    0  0.11056393866E+03  0.10082903885E+01  0.20449923918E+03  0.23247653647E+03  0.00000000000E+00 0.  1.
        -11    1    3    3    0    0  0.11643888205E+03  0.83457807829E+02  0.16408965039E+03  0.21782706972E+03  0.00000000000E+00 0. -1.
         22    1    1    2    0    0 -0.22700282071E+03 -0.84466098218E+02 -0.12646086451E+04  0.12875945898E+04  0.00000000000E+00 0. -1.
<mgrwt>
<rscale>  0 0.14891067E+04</rscale>
<asrwt>0</asrwt>
<pdfrwt beam="1">  1        1 0.64759880E-01 0.14891067E+04</pdfrwt>
<pdfrwt beam="2">  1       -1 0.20260907E+00 0.14891067E+04</pdfrwt>
<totfact> 0.78330872E+00</totfact>
</mgrwt>
</event>
<event>
 6    1  0.1585031E-006  0.2376655E+04  0.7818608E-02  0.8448296E-01
          2   -1    0    0  501    0  0.00000000000E+00  0.00000000000E+00  0.19365539872E+04  0.19365539872E+04  0.00000000000E+00 0. -1.
         -2   -1    0    0    0  501 -0.00000000000E+00 -0.00000000000E+00 -0.72919337812E+03  0.72919337812E+03  0.00000000000E+00 0.  1.
         23    2    1    2    0    0  0.58427603253E+03  0.68811298941E+03  0.14682993786E+04  0.17260841226E+04  0.92657243523E+02 0.  0.
         11    1    3    3    0    0  0.43681227217E+03  0.45427931728E+03  0.10531075911E+04  0.12272775797E+04  0.00000000000E+00 0. -1.
        -11    1    3    3    0    0  0.14746376036E+03  0.23383367213E+03  0.41519178747E+03  0.49880654288E+03  0.00000000000E+00 0.  1.
         22    1    1    2    0    0 -0.58427603253E+03 -0.68811298941E+03 -0.26093876946E+03  0.93966324276E+03  0.00000000000E+00 0.  1.
<mgrwt>
<rscale>  0 0.23766551E+04</rscale>
<asrwt>0</asrwt>
<pdfrwt beam="1">  1        2 0.29793138E+00 0.23766551E+04</pdfrwt>
<pdfrwt beam="2">  1       -2 0.11218360E+00 0.23766551E+04</pdfrwt>
<totfact> 0.40896502E+00</totfact>
</mgrwt>
</event>
<event>
 6    1  0.1585031E-006  0.2292069E+04  0.7818608E-02  0.8481055E-01
         -1   -1    0    0    0  501 -0.00000000000E+00  0.00000000000E+00  0.54896718411E+03  0.54896718411E+03  0.00000000000E+00 0.  1.
          1   -1    0    0  501    0  0.00000000000E+00 -0.00000000000E+00 -0.23924829618E+04  0.23924829618E+04  0.00000000000E+00 0. -1.
         23    2    1    2    0    0  0.48309748560E+03 -0.72631513554E+03 -0.18733076535E+04  0.20686360692E+04  0.95167039275E+02 0.  0.
         11    1    3    3    0    0  0.45049987860E+03 -0.68880597687E+03 -0.17069579574E+04  0.18950222380E+04  0.00000000000E+00 0.  1.
        -11    1    3    3    0    0  0.32597607001E+02 -0.37509158668E+02 -0.16634969615E+03  0.17361383117E+03  0.00000000000E+00 0. -1.
         22    1    1    2    0    0 -0.48309748560E+03  0.72631513554E+03  0.29791875790E+02  0.87281407675E+03  0.00000000000E+00 0.  1.
<mgrwt>
<rscale>  0 0.22920686E+04</rscale>
<asrwt>0</asrwt>
<pdfrwt beam="1">  1        1 0.36807430E+00 0.22920686E+04</pdfrwt>
<pdfrwt beam="2">  1       -1 0.84456490E-01 0.22920686E+04</pdfrwt>
<totfact> 0.20185512E+00</totfact>
</mgrwt>
</event>
<event>
 6    1  0.1585031E-006  0.4487551E+04  0.7818608E-02  0.7912820E-01
         -2   -1    0    0    0  501 -0.00000000000E+00  0.00000000000E+00  0.18417060496E+04  0.18417060496E+04  0.00000000000E+00 0. -1.
          2   -1    0    0  501    0  0.00000000000E+00 -0.00000000000E+00 -0.27336223698E+04  0.27336223698E+04  0.00000000000E+00 0.  1.
         23    2    1    2    0    0  0.15050109943E+04  0.15996545348E+04  0.17362177022E+02  0.21981998765E+04  0.88478968858E+02 0.  0.
         13    1    3    3    0    0  0.12881356562E+04  0.13447715309E+04 -0.12360092938E+02  0.18622182232E+04  0.00000000000E+00 0. -1.
        -13    1    3    3    0    0  0.21687533814E+03  0.25488300395E+03  0.29722269959E+02  0.33598165326E+03  0.00000000000E+00 0.  1.
         22    1    1    2    0    0 -0.15050109943E+04 -0.15996545348E+04 -0.90927849719E+03  0.23771285429E+04  0.00000000000E+00 0. -1.
<mgrwt>
<rscale>  0 0.44875512E+04</rscale>
<asrwt>0</asrwt>
<pdfrwt beam="1">  1        2 0.42055729E+00 0.44875512E+04</pdfrwt>
<pdfrwt beam="2">  1       -2 0.28333939E+00 0.44875512E+04</pdfrwt>
<totfact> 0.77262338E-02</totfact>
</mgrwt>
</event>
<event>
 6    1  0.1585031E-006  0.4057983E+04  0.7818608E-02  0.7992951E-01
          1   -1    0    0  501    0  0.00000000000E+00  0.00000000000E+00  0.28296344060E+04  0.28296344060E+04  0.00000000000E+00 0. -1.
         -1   -1    0    0    0  501 -0.00000000000E+00 -0.00000000000E+00 -0.14548900780E+04  0.14548900780E+04  0.00000000000E+00 0.  1.
         23    2    1    2    0    0 -0.59703430529E+03 -0.77020237367E+03  0.25655071551E+04  0.27458309575E+04  0.89994589844E+02 0.  0.
         13    1    3    3    0    0 -0.47303957830E+03 -0.56968116698E+03  0.20252688413E+04  0.21563897965E+04  0.00000000000E+00 0.  1.
        -13    1    3    3    0    0 -0.12399472700E+03 -0.20052120669E+03  0.54023831373E+03  0.58944116099E+03  0.00000000000E+00 0. -1.
         22    1    1    2    0    0  0.59703430529E+03  0.77020237367E+03 -0.11907628271E+04  0.15386935265E+04  0.00000000000E+00 0.  1.
<mgrwt>
<rscale>  0 0.40579833E+04</rscale>
<asrwt>0</asrwt>
<pdfrwt beam="1">  1        1 0.43532837E+00 0.40579833E+04</pdfrwt>
<pdfrwt beam="2">  1       -1 0.22382924E+00 0.40579833E+04</pdfrwt>
<totfact> 0.64128922E-02</totfact>
</mgrwt>
</event>
<event>
 6    1  0.1585031E-006  0.3034912E+04  0.7818608E-02  0.8233831E-01
          1   -1    0    0  501    0  0.00000000000E+00  0.00000000000E+00  0.26129286399E+04  0.26129286399E+04  0.00000000000E+00 0. -1.
         -1   -1    0    0    0  501 -0.00000000000E+00 -0.00000000000E+00 -0.88126119772E+03  0.88126119772E+03  0.00000000000E+00 0.  1.
         23    2    1    2    0    0  0.57410585953E+03  0.12147998636E+04  0.16750236912E+04  0.21493683769E+04  0.93508325829E+02 0.  0.
         13    1    3    3    0    0  0.34529198064E+03  0.83314821843E+03  0.11155182584E+04  0.14344837017E+04  0.00000000000E+00 0. -1.
        -13    1    3    3    0    0  0.22881387889E+03  0.38165164518E+03  0.55950543285E+03  0.71488467519E+03  0.00000000000E+00 0.  1.
         22    1    1    2    0    0 -0.57410585953E+03 -0.12147998636E+04  0.56643750942E+02  0.13448214607E+04  0.00000000000E+00 0.  1.
<mgrwt>
<rscale>  0 0.30349119E+04</rscale>
<asrwt>0</asrwt>
<pdfrwt beam="1">  1        1 0.40198902E+00 0.30349119E+04</pdfrwt>
<pdfrwt beam="2">  1       -1 0.13557865E+00 0.30349119E+04</pdfrwt>
<totfact> 0.43665604E-01</totfact>
</mgrwt>
</event>
<event>
 6    1  0.1585031E-006  0.1387572E+04  0.7818608E-02  0.8962864E-01
          1   -1    0    0  501    0  0.00000000000E+00  0.00000000000E+00  0.41342371779E+03  0.41342371779E+03  0.00000000000E+00 0. -1.
         -1   -1    0    0    0  501 -0.00000000000E+00 -0.00000000000E+00 -0.11642759470E+04  0.11642759470E+04  0.00000000000E+00 0.  1.
         23    2    1    2    0    0  0.22926764632E+03 -0.63163925082E+03 -0.55914684734E+03  0.87892734836E+03  0.91303285719E+02 0.  0.
         13    1    3    3    0    0  0.30066440057E+02 -0.87862322578E+02 -0.39746424399E+02  0.10101265663E+03  0.00000000000E+00 0. -1.
        -13    1    3    3    0    0  0.19920120626E+03 -0.54377692824E+03 -0.51940042294E+03  0.77791469173E+03  0.00000000000E+00 0.  1.
         22    1    1    2    0    0 -0.22926764632E+03  0.63163925082E+03 -0.19170538191E+03  0.69877231648E+03  0.00000000000E+00 0. -1.
<mgrwt>
<rscale>  0 0.13875724E+04</rscale>
<asrwt>0</asrwt>
<pdfrwt beam="1">  1        1 0.63603649E-01 0.13875724E+04</pdfrwt>
<pdfrwt beam="2">  1       -1 0.17911938E+00 0.13875724E+04</pdfrwt>
<totfact> 0.11829961E+01</totfact>
</mgrwt>
</event>
<event>
 6    1  0.1585031E-006  0.3147128E+04  0.7818608E-02  0.8202922E-01
          1   -1    0    0  501    0  0.00000000000E+00  0.00000000000E+00  0.24416416217E+04  0.24416416217E+04  0.00000000000E+00 0. -1.
         -1   -1    0    0    0  501 -0.00000000000E+00 -0.00000000000E+00 -0.10141144305E+04  0.10141144305E+04  0.00000000000E+00 0.  1.
         23    2    1    2    0    0  0.13350768796E+04 -0.38781329733E+03  0.15205502045E+04  0.20623850647E+04  0.92356931225E+02 0.  0.
         13    1    3    3    0    0  0.38157840725E+03 -0.70700197058E+02  0.40152087835E+03  0.55840810748E+03  0.00000000000E+00 0.  1.
        -13    1    3    3    0    0  0.95349847233E+03 -0.31711310027E+03  0.11190293261E+04  0.15039769572E+04  0.00000000000E+00 0. -1.
         22    1    1    2    0    0 -0.13350768796E+04  0.38781329733E+03 -0.93023013322E+02  0.13933709876E+04  0.00000000000E+00 0.  1.
<mgrwt>
<rscale>  0 0.31471282E+04</rscale>
<asrwt>0</asrwt>
<pdfrwt beam="1">  1        1 0.37563717E+00 0.31471282E+04</pdfrwt>
<pdfrwt beam="2">  1       -1 0.15601761E+00 0.31471282E+04</pdfrwt>
<totfact> 0.39156572E-01</totfact>
</mgrwt>
</event>
<event>
 6    1  0.1585031E-006  0.4553857E+04  0.7818608E-02  0.7901275E-01
         -2   -1    0    0    0  501 -0.00000000000E+00  0.00000000000E+00  0.25632946319E+04  0.25632946319E+04  0.00000000000E+00 0.  1.
          2   -1    0    0  501    0  0.00000000000E+00 -0.00000000000E+00 -0.20225541825E+04  0.20225541825E+04  0.00000000000E+00 0. -1.
         23    2    1    2    0    0  0.80193025107E+03 -0.17594382158E+04 -0.93850938323E+03  0.21513272947E+04  0.93243250880E+02 0.  0.
         13    1    3    3    0    0  0.25027969505E+03 -0.56973517098E+03 -0.34987656234E+03  0.71389894221E+03  0.00000000000E+00 0.  1.
        -13    1    3    3    0    0  0.55165055601E+03 -0.11897030448E+04 -0.58863282089E+03  0.14374283525E+04  0.00000000000E+00 0. -1.
         22    1    1    2    0    0 -0.80193025107E+03  0.17594382158E+04  0.14792498326E+04  0.24345215197E+04  0.00000000000E+00 0.  1.
<mgrwt>
<rscale>  0 0.45538565E+04</rscale>
<asrwt>0</asrwt>
<pdfrwt beam="1">  1        2 0.31116218E+00 0.45538565E+04</pdfrwt>
<pdfrwt beam="2">  1       -2 0.39435302E+00 0.45538565E+04</pdfrwt>
<totfact> 0.39572938E-02</totfact>
</mgrwt>
</event>
<event>
 6    1  0.1585031E-006  0.2515249E+04  0.7818608E-02  0.8397573E-01
          2   -1    0    0  501    0  0.00000000000E+00  0.00000000000E+00  0.67662886982E+03  0.67662886982E+03  0.00000000000E+00 0.  1.
         -2   -1    0    0    0  501 -0.00000000000E+00 -0.00000000000E+00 -0.23374983148E+04  0.23374983148E+04  0.00000000000E+00 0. -1.
         23    2    1    2    0    0 -0.64754346034E+03  0.44979059719E+03 -0.20031150872E+04  0.21546179096E+04  0.91017414050E+02 0.  0.
         11    1    3    3    0    0 -0.23214272664E+03  0.20079440295E+03 -0.69642037395E+03  0.76105845704E+03  0.00000000000E+00 0. -1.
        -11    1    3    3    0    0 -0.41540073370E+03  0.24899619424E+03 -0.13066947132E+04  0.13935594526E+04  0.00000000000E+00 0.  1.
         22    1    1    2    0    0  0.64754346034E+03 -0.44979059719E+03  0.34224564213E+03  0.85950927506E+03  0.00000000000E+00 0.  1.
<mgrwt>
<rscale>  0 0.25152486E+04</rscale>
<asrwt>0</asrwt>
<pdfrwt beam="1">  1        2 0.10409675E+00 0.25152486E+04</pdfrwt>
<pdfrwt beam="2">  1       -2 0.35961512E+00 0.25152486E+04</pdfrwt>
<totfact> 0.51542212E-01</totfact>
</mgrwt>
</event>
<event>
 6    1  0.1585031E-006  0.1551076E+04  0.7818608E-02  0.8851181E-01
          2   -1    0    0  501    0  0.00000000000E+00  0.00000000000E+00  0.57516385672E+03  0.57516385672E+03  0.00000000000E+00 0.  1.
         -2   -1    0    0    0  501 -0.00000000000E+00 -0.00000000000E+00 -0.10457176397E+04  0.10457176397E+04  0.00000000000E+00 0. -1.
         23    2    1    2    0    0  0.37366059149E+02  0.33928656862E+03  0.48830524288E+03  0.60307884880E+03  0.93544051772E+02 0.  0.
         13    1    3    3    0    0  0.63903642924E+02  0.23771961525E+03  0.37541884262E+03  0.44892493632E+03  0.00000000000E+00 0. -1.
        -13    1    3    3    0    0 -0.26537583775E+02  0.10156695337E+03  0.11288640026E+03  0.15415391248E+03  0.00000000000E+00 0.  1.
         22    1    1    2    0    0 -0.37366059149E+02 -0.33928656862E+03 -0.95885902589E+03  0.10178026476E+04  0.00000000000E+00 0. -1.
<mgrwt>
<rscale>  0 0.15510757E+04</rscale>
<asrwt>0</asrwt>
<pdfrwt beam="1">  1        2 0.88486748E-01 0.15510757E+04</pdfrwt>
<pdfrwt beam="2">  1       -2 0.16087964E+00 0.15510757E+04</pdfrwt>
<totfact> 0.12454332E+01</totfact>
</mgrwt>
</event>
<event>
 6    1  0.1585031E-006  0.6424630E+03  0.7818608E-02  0.9821025E-01
         -2   -1    0    0    0  501 -0.00000000000E+00  0.00000000000E+00  0.95756592167E+02  0.95756592167E+02  0.00000000000E+00 0.  1.
          2   -1    0    0  501    0  0.00000000000E+00 -0.00000000000E+00 -0.10776248998E+04  0.10776248998E+04  0.00000000000E+00 0. -1.
         23    2    1    2    0    0 -0.26437869404E+03 -0.10510960382E+03 -0.25118158686E+03  0.38925955847E+03  0.86525670198E+02 0.  0.
         13    1    3    3    0    0 -0.19879068637E+03 -0.44705612479E+02 -0.20422413054E+03  0.28848539697E+03  0.00000000000E+00 0.  1.
        -13    1    3    3    0    0 -0.65588007674E+02 -0.60403991339E+02 -0.46957456319E+02  0.10077416149E+03  0.00000000000E+00 0. -1.
         22    1    1    2    0    0  0.26437869404E+03  0.10510960382E+03 -0.73068672078E+03  0.78412193350E+03  0.00000000000E+00 0. -1.
<mgrwt>
<rscale>  0 0.64246304E+03</rscale>
<asrwt>0</asrwt>
<pdfrwt beam="1">  1        2 0.16578845E+00 0.64246304E+03</pdfrwt>
<pdfrwt beam="2">  1       -2 0.14731783E-01 0.64246304E+03</pdfrwt>
<totfact> 0.81974048E+02</totfact>
</mgrwt>
</event>
<event>
 6    1  0.2671748E-006  0.3570219E+04  0.7818608E-02  0.8097348E-01
          2   -1    0    0  501    0  0.00000000000E+00  0.00000000000E+00  0.23404597901E+04  0.23404597901E+04  0.00000000000E+00 0. -1.
         -2   -1    0    0    0  501 -0.00000000000E+00 -0.00000000000E+00 -0.13615340844E+04  0.13615340844E+04  0.00000000000E+00 0.  1.
         23    2    1    2    0    0  0.14716090471E+04 -0.58679987771E+03 -0.36049577130E+03  0.16273813380E+04  0.91899587498E+02 0.  0.
         13    1    3    3    0    0  0.64770140899E+03 -0.23558122993E+03 -0.19825318758E+03  0.71716104013E+03  0.00000000000E+00 0.  1.
        -13    1    3    3    0    0  0.82390763808E+03 -0.35121864778E+03 -0.16224258371E+03  0.91022029784E+03  0.00000000000E+00 0. -1.
         22    1    1    2    0    0 -0.14716090471E+04  0.58679987771E+03  0.13394214770E+04  0.20746125366E+04  0.00000000000E+00 0. -1.
<mgrwt>
<rscale>  0 0.35702189E+04</rscale>
<asrwt>0</asrwt>
<pdfrwt beam="1">  1        2 0.36007074E+00 0.35702189E+04</pdfrwt>
<pdfrwt beam="2">  1       -2 0.20946678E+00 0.35702189E+04</pdfrwt>
<totfact> 0.40544502E-01</totfact>
</mgrwt>
</event>
<event>
 6    1  0.1585031E-006  0.3011682E+04  0.7818608E-02  0.8240403E-01
         -1   -1    0    0    0  501 -0.00000000000E+00  0.00000000000E+00  0.14706788407E+04  0.14706788407E+04  0.00000000000E+00 0.  1.
          1   -1    0    0  501    0  0.00000000000E+00 -0.00000000000E+00 -0.15418441184E+04  0.15418441184E+04  0.00000000000E+00 0. -1.
         23    2    1    2    0    0 -0.15007717022E+04 -0.81770355713E+02  0.30374751771E+02  0.15060992236E+04  0.91706884497E+02 0.  0.
         11    1    3    3    0    0 -0.56229211038E+03 -0.46510021168E+02 -0.30080342675E+02  0.56501365159E+03  0.00000000000E+00 0. -1.
        -11    1    3    3    0    0 -0.93847959184E+03 -0.35260334545E+02  0.60455094446E+02  0.94108557206E+03  0.00000000000E+00 0.  1.
         22    1    1    2    0    0  0.15007717022E+04  0.81770355713E+02 -0.10154002945E+03  0.15064237355E+04  0.00000000000E+00 0. -1.
<mgrwt>
<rscale>  0 0.30116823E+04</rscale>
<asrwt>0</asrwt>
<pdfrwt beam="1">  1        1 0.23720679E+00 0.30116823E+04</pdfrwt>
<pdfrwt beam="2">  1       -1 0.22625828E+00 0.30116823E+04</pdfrwt>
<totfact> 0.52006063E-01</totfact>
</mgrwt>
</event>
<event>
 6    1  0.1585031E-006  0.1991491E+04  0.7818608E-02  0.8610609E-01
          1   -1    0    0  501    0  0.00000000000E+00  0.00000000000E+00  0.98804109686E+03  0.98804109686E+03  0.00000000000E+00 0. -1.
         -1   -1    0    0    0  501 -0.00000000000E+00 -0.00000000000E+00 -0.10035104245E+04  0.10035104245E+04  0.00000000000E+00 0.  1.
         23    2    1    2    0    0  0.87132089279E+03 -0.16508240596E+03 -0.45598652217E+03  0.10013456349E+04  0.91197988762E+02 0.  0.
         13    1    3    3    0    0  0.52259252168E+03 -0.10946560781E+03 -0.22519367585E+03  0.57948067669E+03  0.00000000000E+00 0. -1.
        -13    1    3    3    0    0  0.34872837111E+03 -0.55616798146E+02 -0.23079284632E+03  0.42186495821E+03  0.00000000000E+00 0.  1.
         22    1    1    2    0    0 -0.87132089279E+03  0.16508240596E+03  0.44051719451E+03  0.99020588648E+03  0.00000000000E+00 0. -1.
<mgrwt>
<rscale>  0 0.19914914E+04</rscale>
<asrwt>0</asrwt>
<pdfrwt beam="1">  1        1 0.15200632E+00 0.19914914E+04</pdfrwt>
<pdfrwt beam="2">  1       -1 0.15438622E+00 0.19914914E+04</pdfrwt>
<totfact> 0.46309126E+00</totfact>
</mgrwt>
</event>
<event>
 6    1  0.1585031E-006  0.2730722E+04  0.7818608E-02  0.8325105E-01
         -2   -1    0    0    0  501 -0.00000000000E+00  0.00000000000E+00  0.84457413154E+03  0.84457413154E+03  0.00000000000E+00 0. -1.
          2   -1    0    0  501    0  0.00000000000E+00 -0.00000000000E+00 -0.22072793995E+04  0.22072793995E+04  0.00000000000E+00 0.  1.
         23    2    1    2    0    0 -0.10418811414E+04 -0.35930225741E+03  0.21583471912E+03  0.11266514856E+04  0.90246989604E+02 0.  0.
         11    1    3    3    0    0 -0.10673707718E+03 -0.66034068224E+02  0.31680875476E+02  0.12944875311E+03  0.00000000000E+00 0. -1.
        -11    1    3    3    0    0 -0.93514406419E+03 -0.29326818918E+03  0.18415384365E+03  0.99720273250E+03  0.00000000000E+00 0.  1.
         22    1    1    2    0    0  0.10418811414E+04  0.35930225741E+03 -0.15785399871E+04  0.19252020455E+04  0.00000000000E+00 0.  1.
<mgrwt>
<rscale>  0 0.27307223E+04</rscale>
<asrwt>0</asrwt>
<pdfrwt beam="1">  1        2 0.33958144E+00 0.27307223E+04</pdfrwt>
<pdfrwt beam="2">  1       -2 0.12993448E+00 0.27307223E+04</pdfrwt>
<totfact> 0.19464502E+00</totfact>
</mgrwt>
</event>
<event>
 6    1  0.1585031E-006  0.5309929E+03  0.7818608E-02  0.1005992E+00
         -3   -1    0    0    0  501 -0.00000000000E+00  0.00000000000E+00  0.57363357554E+02  0.57363357554E+02  0.00000000000E+00 0.  1.
          3   -1    0    0  501    0  0.00000000000E+00 -0.00000000000E+00 -0.12288047484E+04  0.12288047484E+04  0.00000000000E+00 0. -1.
         23    2    1    2    0    0 -0.44495568368E+02 -0.16894224126E+03 -0.14397303098E+03  0.24395288489E+03  0.90903464797E+02 0.  0.
         11    1    3    3    0    0  0.14778240599E+02 -0.53196973414E+02 -0.84547659362E+02  0.10097831985E+03  0.00000000000E+00 0. -1.
        -11    1    3    3    0    0 -0.59273808967E+02 -0.11574526784E+03 -0.59425371614E+02  0.14297456504E+03  0.00000000000E+00 0.  1.
         22    1    1    2    0    0  0.44495568368E+02  0.16894224126E+03 -0.10274683598E+04  0.10422152210E+04  0.00000000000E+00 0. -1.
<mgrwt>
<rscale>  0 0.53099290E+03</rscale>
<asrwt>0</asrwt>
<pdfrwt beam="1">  1        3 0.18904686E+00 0.53099290E+03</pdfrwt>
<pdfrwt beam="2">  1       -3 0.88251330E-02 0.53099290E+03</pdfrwt>
<totfact> 0.43647322E+01</totfact>
</mgrwt>
</event>
<event>
 6    1  0.1585031E-006  0.2671242E+04  0.7818608E-02  0.8344397E-01
          2   -1    0    0  501    0  0.00000000000E+00  0.00000000000E+00  0.50751155116E+03  0.50751155116E+03  0.00000000000E+00 0. -1.
         -2   -1    0    0    0  501 -0.00000000000E+00 -0.00000000000E+00 -0.35149624941E+04  0.35149624941E+04  0.00000000000E+00 0.  1.
         23    2    1    2    0    0  0.83416313416E+03  0.17183199112E+03  0.40754181079E+02  0.85752399105E+03  0.91280471000E+02 0.  0.
         13    1    3    3    0    0  0.42575728274E+03  0.47276914378E+02 -0.23149809467E+01  0.42838035619E+03  0.00000000000E+00 0. -1.
        -13    1    3    3    0    0  0.40840585142E+03  0.12455507674E+03  0.43069162026E+02  0.42914363485E+03  0.00000000000E+00 0.  1.
         22    1    1    2    0    0 -0.83416313416E+03 -0.17183199112E+03 -0.30482051240E+04  0.31649500542E+04  0.00000000000E+00 0.  1.
<mgrwt>
<rscale>  0 0.26712425E+04</rscale>
<asrwt>0</asrwt>
<pdfrwt beam="1">  1        2 0.78078698E-01 0.26712425E+04</pdfrwt>
<pdfrwt beam="2">  1       -2 0.54076348E+00 0.26712425E+04</pdfrwt>
<totfact> 0.50376093E-02</totfact>
</mgrwt>
</event>
<event>
 6    1  0.1585031E-006  0.2442045E+04  0.7818608E-02  0.8423928E-01
         -2   -1    0    0    0  501 -0.00000000000E+00  0.00000000000E+00  0.21389386388E+04  0.21389386388E+04  0.00000000000E+00 0.  1.
          2   -1    0    0  501    0  0.00000000000E+00 -0.00000000000E+00 -0.69702591534E+03  0.69702591534E+03  0.00000000000E+00 0. -1.
         23    2    1    2    0    0 -0.82745536703E+02 -0.24407832147E+03  0.21059987737E+04  0.21236224082E+04  0.90112413708E+02 0.  0.
         11    1    3    3    0    0 -0.69665550982E+02 -0.11904040768E+03  0.13740488838E+04  0.13809541059E+04  0.00000000000E+00 0. -1.
        -11    1    3    3    0    0 -0.13079985721E+02 -0.12503791379E+03  0.73194988989E+03  0.74266830228E+03  0.00000000000E+00 0.  1.
         22    1    1    2    0    0  0.82745536703E+02  0.24407832147E+03 -0.66408605018E+03  0.71234214596E+03  0.00000000000E+00 0. -1.
<mgrwt>
<rscale>  0 0.24420448E+04</rscale>
<asrwt>0</asrwt>
<pdfrwt beam="1">  1        2 0.10723476E+00 0.24420448E+04</pdfrwt>
<pdfrwt beam="2">  1       -2 0.32906748E+00 0.24420448E+04</pdfrwt>
<totfact> 0.77701522E-01</totfact>
</mgrwt>
</event>
<event>
 6    1  0.1585031E-006  0.3610402E+04  0.7818608E-02  0.8088113E-01
          1   -1    0    0  501    0  0.00000000000E+00  0.00000000000E+00  0.25690089483E+04  0.25690089483E+04  0.00000000000E+00 0. -1.
         -1   -1    0    0    0  501 -0.00000000000E+00 -0.00000000000E+00 -0.12684855375E+04  0.12684855375E+04  0.00000000000E+00 0.  1.
         23    2    1    2    0    0 -0.16879936433E+04 -0.30727809741E+02 -0.23228657950E+02  0.16921305825E+04  0.11180160804E+03 0.  0.
         11    1    3    3    0    0 -0.54812324831E+03  0.34566031082E+02  0.19965736743E+02  0.54957486887E+03  0.00000000000E+00 0.  1.
        -11    1    3    3    0    0 -0.11398703950E+04 -0.65293840823E+02 -0.43194394693E+02  0.11425557136E+04  0.00000000000E+00 0. -1.
         22    1    1    2    0    0  0.16879936433E+04  0.30727809741E+02  0.13237520687E+04  0.21453639033E+04  0.00000000000E+00 0. -1.
<mgrwt>
<rscale>  0 0.36104020E+04</rscale>
<asrwt>0</asrwt>
<pdfrwt beam="1">  1        1 0.39523215E+00 0.36104020E+04</pdfrwt>
<pdfrwt beam="2">  1       -1 0.19515162E+00 0.36104020E+04</pdfrwt>
<totfact> 0.15940970E-01</totfact>
</mgrwt>
</event>
<event>
 6    1  0.1585031E-006  0.2289273E+04  0.7818608E-02  0.8482163E-01
          1   -1    0    0  501    0  0.00000000000E+00  0.00000000000E+00  0.37861272662E+04  0.37861272662E+04  0.00000000000E+00 0.  1.
         -1   -1    0    0    0  501 -0.00000000000E+00 -0.00000000000E+00 -0.34605100223E+03  0.34605100223E+03  0.00000000000E+00 0. -1.
         23    2    1    2    0    0 -0.99068644696E+03 -0.37887100213E+03  0.24907157933E+04  0.27087007745E+04  0.91607043228E+02 0.  0.
         13    1    3    3    0    0 -0.38083775410E+03 -0.18900795927E+03  0.10448234366E+04  0.11280148125E+04  0.00000000000E+00 0.  1.
        -13    1    3    3    0    0 -0.60984869286E+03 -0.18986304286E+03  0.14458923566E+04  0.15806859619E+04  0.00000000000E+00 0. -1.
         22    1    1    2    0    0  0.99068644696E+03  0.37887100213E+03  0.94936047070E+03  0.14234774939E+04  0.00000000000E+00 0. -1.
<mgrwt>
<rscale>  0 0.22892734E+04</rscale>
<asrwt>0</asrwt>
<pdfrwt beam="1">  1        1 0.58248109E+00 0.22892734E+04</pdfrwt>
<pdfrwt beam="2">  1       -1 0.53238618E-01 0.22892734E+04</pdfrwt>
<totfact> 0.47290771E-01</totfact>
</mgrwt>
</event>
<event>
 6    1  0.1585031E-006  0.1461567E+04  0.7818608E-02  0.8910421E-01
         -2   -1    0    0    0  501 -0.00000000000E+00  0.00000000000E+00  0.26195300585E+03  0.26195300585E+03  0.00000000000E+00 0.  1.
          2   -1    0    0  501    0  0.00000000000E+00 -0.00000000000E+00 -0.20387021963E+04  0.20387021963E+04  0.00000000000E+00 0. -1.
         23    2    1    2    0    0 -0.24240521195E+03 -0.68576339801E+03 -0.92486132333E+03  0.11805013453E+04  0.95829192249E+02 0.  0.
         11    1    3    3    0    0 -0.47742895157E+02 -0.26285977907E+03 -0.36593053862E+03  0.45307814623E+03  0.00000000000E+00 0.  1.
        -11    1    3    3    0    0 -0.19466231679E+03 -0.42290361894E+03 -0.55893078471E+03  0.72742319910E+03  0.00000000000E+00 0. -1.
         22    1    1    2    0    0  0.24240521195E+03  0.68576339801E+03 -0.85188786716E+03  0.11201538569E+04  0.00000000000E+00 0. -1.
<mgrwt>
<rscale>  0 0.14615665E+04</rscale>
<asrwt>0</asrwt>
<pdfrwt beam="1">  1        2 0.31364648E+00 0.14615665E+04</pdfrwt>
<pdfrwt beam="2">  1       -2 0.40300464E-01 0.14615665E+04</pdfrwt>
<totfact> 0.35923613E+01</totfact>
</mgrwt>
</event>
<event>
 6    1  0.1585031E-006  0.1637620E+04  0.7818608E-02  0.8797764E-01
         -1   -1    0    0    0  501 -0.00000000000E+00  0.00000000000E+00  0.36505753449E+03  0.36505753449E+03  0.00000000000E+00 0.  1.
          1   -1    0    0  501    0  0.00000000000E+00 -0.00000000000E+00 -0.18365599673E+04  0.18365599673E+04  0.00000000000E+00 0. -1.
         23    2    1    2    0    0  0.14642908351E+03  0.78511431019E+03 -0.96470510148E+03  0.12557372284E+04  0.91510094514E+02 0.  0.
         11    1    3    3    0    0  0.87926132932E+02  0.64652377747E+03 -0.75914384687E+03  0.10010111787E+04  0.00000000000E+00 0. -1.
        -11    1    3    3    0    0  0.58502950579E+02  0.13859053272E+03 -0.20556125462E+03  0.25472604968E+03  0.00000000000E+00 0.  1.
         22    1    1    2    0    0 -0.14642908351E+03 -0.78511431019E+03 -0.50679733132E+03  0.94588027339E+03  0.00000000000E+00 0.  1.
<mgrwt>
<rscale>  0 0.16376203E+04</rscale>
<asrwt>0</asrwt>
<pdfrwt beam="1">  1        1 0.28254768E+00 0.16376203E+04</pdfrwt>
<pdfrwt beam="2">  1       -1 0.56162698E-01 0.16376203E+04</pdfrwt>
<totfact> 0.11806754E+01</totfact>
</mgrwt>
</event>
<event>
 6    1  0.1585031E-006  0.1020805E+04  0.7818608E-02  0.9286016E-01
         -2   -1    0    0    0  501 -0.00000000000E+00  0.00000000000E+00  0.49648665572E+03  0.49648665572E+03  0.00000000000E+00 0.  1.
          2   -1    0    0  501    0  0.00000000000E+00 -0.00000000000E+00 -0.52470865498E+03  0.52470865498E+03  0.00000000000E+00 0. -1.
         23    2    1    2    0    0 -0.35055423356E+03  0.20296276756E+03  0.28973724433E+03  0.50623877247E+03  0.90817775357E+02 0.  0.
         11    1    3    3    0    0 -0.32599229990E+03  0.15681786773E+03  0.24029522441E+03  0.43428633193E+03  0.00000000000E+00 0. -1.
        -11    1    3    3    0    0 -0.24561933665E+02  0.46144899836E+02  0.49442019916E+02  0.71952440540E+02  0.00000000000E+00 0.  1.
         22    1    1    2    0    0  0.35055423356E+03 -0.20296276756E+03 -0.31795924359E+03  0.51495653823E+03  0.00000000000E+00 0. -1.
<mgrwt>
<rscale>  0 0.10208053E+04</rscale>
<asrwt>0</asrwt>
<pdfrwt beam="1">  1        2 0.80724408E-01 0.10208053E+04</pdfrwt>
<pdfrwt beam="2">  1       -2 0.76382562E-01 0.10208053E+04</pdfrwt>
<totfact> 0.89060311E+01</totfact>
</mgrwt>
</event>
<event>
 6    1  0.1585031E-006  0.1126007E+04  0.7818608E-02  0.9180208E-01
          2   -1    0    0  501    0  0.00000000000E+00  0.00000000000E+00  0.29359338072E+04  0.29359338072E+04  0.00000000000E+00 0.  1.
         -2   -1    0    0    0  501 -0.00000000000E+00 -0.00000000000E+00 -0.10796327404E+03  0.10796327404E+03  0.00000000000E+00 0. -1.
         23    2    1    2    0    0 -0.14620297589E+03 -0.50978997478E+03  0.94932553737E+03  0.10918294214E+04  0.98037650372E+02 0.  0.
         13    1    3    3    0    0 -0.11987100051E+03 -0.29626836784E+03  0.49611358480E+03  0.59014633063E+03  0.00000000000E+00 0. -1.
        -13    1    3    3    0    0 -0.26331975385E+02 -0.21352160694E+03  0.45321195257E+03  0.50168309072E+03  0.00000000000E+00 0.  1.
         22    1    1    2    0    0  0.14620297589E+03  0.50978997478E+03  0.18786449957E+04  0.19520676598E+04  0.00000000000E+00 0.  1.
<mgrwt>
<rscale>  0 0.11260072E+04</rscale>
<asrwt>0</asrwt>
<pdfrwt beam="1">  1        2 0.45168206E+00 0.11260072E+04</pdfrwt>
<pdfrwt beam="2">  1       -2 0.16609737E-01 0.11260072E+04</pdfrwt>
<totfact> 0.56759343E+01</totfact>
</mgrwt>
</event>
<event>
 6    1  0.1585031E-006  0.2484412E+04  0.7818608E-02  0.8408560E-01
          2   -1    0    0  501    0  0.00000000000E+00  0.00000000000E+00  0.20267905319E+04  0.20267905319E+04  0.00000000000E+00 0. -1.
         -2   -1    0    0    0  501 -0.00000000000E+00 -0.00000000000E+00 -0.76133930101E+03  0.76133930101E+03  0.00000000000E+00 0.  1.
         23    2    1    2    0    0  0.16468368141E+03  0.11179995296E+04  0.59271830990E+02  0.11352800491E+04  0.91126158722E+02 0.  0.
         11    1    3    3    0    0  0.65812518876E+02  0.23850477889E+03  0.35272831095E+02  0.24991996680E+03  0.00000000000E+00 0.  1.
        -11    1    3    3    0    0  0.98871162534E+02  0.87949475073E+03  0.23998999895E+02  0.88536008230E+03  0.00000000000E+00 0. -1.
         22    1    1    2    0    0 -0.16468368141E+03 -0.11179995296E+04  0.12061793999E+04  0.16528497839E+04  0.00000000000E+00 0. -1.
<mgrwt>
<rscale>  0 0.24844116E+04</rscale>
<asrwt>0</asrwt>
<pdfrwt beam="1">  1        2 0.31181393E+00 0.24844116E+04</pdfrwt>
<pdfrwt beam="2">  1       -2 0.11712912E+00 0.24844116E+04</pdfrwt>
<totfact> 0.32499615E+00</totfact>
</mgrwt>
</event>
<event>
 6    1  0.1585031E-006  0.6044505E+04  0.7818608E-02  0.7684908E-01
          1   -1    0    0  501    0  0.00000000000E+00  0.00000000000E+00  0.25428354616E+04  0.25428354616E+04  0.00000000000E+00 0. -1.
         -1   -1    0    0    0  501 -0.00000000000E+00 -0.00000000000E+00 -0.35920566285E+04  0.35920566285E+04  0.00000000000E+00 0.  1.
         23    2    1    2    0    0  0.17394691352E+04 -0.20755513224E+03 -0.30234680281E+04  0.34954825588E+04  0.90594683125E+02 0.  0.
         13    1    3    3    0    0  0.17052616571E+04 -0.20088337888E+03 -0.29345571171E+04  0.33999848418E+04  0.00000000000E+00 0. -1.
        -13    1    3    3    0    0  0.34207478096E+02 -0.66717533674E+01 -0.88910911007E+02  0.95497716972E+02  0.00000000000E+00 0.  1.
         22    1    1    2    0    0 -0.17394691352E+04  0.20755513224E+03  0.19742468612E+04  0.26394095314E+04  0.00000000000E+00 0. -1.
<mgrwt>
<rscale>  0 0.60445046E+04</rscale>
<asrwt>0</asrwt>
<pdfrwt beam="1">  1        1 0.39120546E+00 0.60445046E+04</pdfrwt>
<pdfrwt beam="2">  1       -1 0.55262410E+00 0.60445046E+04</pdfrwt>
<totfact> 0.62352883E-04</totfact>
</mgrwt>
</event>
<event>
 6    1  0.1585031E-006  0.1538986E+04  0.7818608E-02  0.8858934E-01
          2   -1    0    0  501    0  0.00000000000E+00  0.00000000000E+00  0.45677202662E+03  0.45677202662E+03  0.00000000000E+00 0. -1.
         -2   -1    0    0    0  501 -0.00000000000E+00 -0.00000000000E+00 -0.12963124587E+04  0.12963124587E+04  0.00000000000E+00 0.  1.
         23    2    1    2    0    0  0.60371471229E+03 -0.40514668425E+03 -0.14394372618E+03  0.74686876945E+03  0.92075365208E+02 0.  0.
         11    1    3    3    0    0  0.34793776811E+03 -0.21174403404E+03 -0.37626944792E+02  0.40903791194E+03  0.00000000000E+00 0.  1.
        -11    1    3    3    0    0  0.25577694419E+03 -0.19340265020E+03 -0.10631678139E+03  0.33783085751E+03  0.00000000000E+00 0. -1.
         22    1    1    2    0    0 -0.60371471229E+03  0.40514668425E+03 -0.69559670588E+03  0.10062157159E+04  0.00000000000E+00 0.  1.
<mgrwt>
<rscale>  0 0.15389857E+04</rscale>
<asrwt>0</asrwt>
<pdfrwt beam="1">  1        2 0.70272620E-01 0.15389857E+04</pdfrwt>
<pdfrwt beam="2">  1       -2 0.19943268E+00 0.15389857E+04</pdfrwt>
<totfact> 0.88263336E+00</totfact>
</mgrwt>
</event>
<event>
 6    1  0.1585031E-006  0.4405977E+04  0.7818608E-02  0.7927307E-01
          1   -1    0    0  501    0  0.00000000000E+00  0.00000000000E+00  0.10848663015E+04  0.10848663015E+04  0.00000000000E+00 0. -1.
         -1   -1    0    0    0  501 -0.00000000000E+00 -0.00000000000E+00 -0.44735072850E+04  0.44735072850E+04  0.00000000000E+00 0.  1.
         23    2    1    2    0    0  0.97256918650E+00 -0.20097937629E+04 -0.55972778668E+03  0.20882119490E+04  0.89788827304E+02 0.  0.
         13    1    3    3    0    0  0.20674736521E+02 -0.18078111718E+04 -0.48391321423E+03  0.18715717129E+04  0.00000000000E+00 0. -1.
        -13    1    3    3    0    0 -0.19702167335E+02 -0.20198259111E+03 -0.75814572454E+02  0.21664023612E+03  0.00000000000E+00 0.  1.
         22    1    1    2    0    0 -0.97256918650E+00  0.20097937629E+04 -0.28289131968E+04  0.34701616375E+04  0.00000000000E+00 0.  1.
<mgrwt>
<rscale>  0 0.44059765E+04</rscale>
<asrwt>0</asrwt>
<pdfrwt beam="1">  1        1 0.16690250E+00 0.44059765E+04</pdfrwt>
<pdfrwt beam="2">  1       -1 0.68823191E+00 0.44059765E+04</pdfrwt>
<totfact> 0.21728634E-03</totfact>
</mgrwt>
</event>
<event>
 6    1  0.1585031E-006  0.2413798E+04  0.7818608E-02  0.8434356E-01
          1   -1    0    0  501    0  0.00000000000E+00  0.00000000000E+00  0.21233122596E+04  0.21233122596E+04  0.00000000000E+00 0. -1.
         -1   -1    0    0    0  501 -0.00000000000E+00 -0.00000000000E+00 -0.68600604547E+03  0.68600604547E+03  0.00000000000E+00 0.  1.
         23    2    1    2    0    0 -0.11672641588E+04 -0.68363219779E+02  0.37982102720E+03  0.12327860133E+04  0.91204142727E+02 0.  0.
         11    1    3    3    0    0 -0.77360438271E+03 -0.58187447445E+02  0.20833936512E+03  0.80327754297E+03  0.00000000000E+00 0. -1.
        -11    1    3    3    0    0 -0.39365977613E+03 -0.10175772334E+02  0.17148166208E+03  0.42950847036E+03  0.00000000000E+00 0.  1.
         22    1    1    2    0    0  0.11672641588E+04  0.68363219779E+02  0.10574851869E+04  0.15765322917E+04  0.00000000000E+00 0. -1.
<mgrwt>
<rscale>  0 0.24137979E+04</rscale>
<asrwt>0</asrwt>
<pdfrwt beam="1">  1        1 0.32666342E+00 0.24137979E+04</pdfrwt>
<pdfrwt beam="2">  1       -1 0.10553939E+00 0.24137979E+04</pdfrwt>
<totfact> 0.18496207E+00</totfact>
</mgrwt>
</event>
<event>
 6    1  0.1585031E-006  0.2673558E+04  0.7818608E-02  0.8343636E-01
          2   -1    0    0  501    0  0.00000000000E+00  0.00000000000E+00  0.26575529106E+04  0.26575529106E+04  0.00000000000E+00 0. -1.
         -2   -1    0    0    0  501 -0.00000000000E+00 -0.00000000000E+00 -0.67241497570E+03  0.67241497570E+03  0.00000000000E+00 0.  1.
         23    2    1    2    0    0  0.12654759363E+04  0.93434782161E+02  0.15113486928E+04  0.19754806587E+04  0.90496174302E+02 0.  0.
         11    1    3    3    0    0  0.10100283919E+04  0.89697805656E+02  0.11540085128E+04  0.15362091968E+04  0.00000000000E+00 0. -1.
        -11    1    3    3    0    0  0.25544754447E+03  0.37369765058E+01  0.35734017995E+03  0.43927146182E+03  0.00000000000E+00 0.  1.
         22    1    1    2    0    0 -0.12654759363E+04 -0.93434782161E+02  0.47378924211E+03  0.13544872276E+04  0.00000000000E+00 0.  1.
<mgrwt>
<rscale>  0 0.26735582E+04</rscale>
<asrwt>0</asrwt>
<pdfrwt beam="1">  1        2 0.40885429E+00 0.26735582E+04</pdfrwt>
<pdfrwt beam="2">  1       -2 0.10344846E+00 0.26735582E+04</pdfrwt>
<totfact> 0.18844634E+00</totfact>
</mgrwt>
</event>
<event>
 6    1  0.1585031E-006  0.1420977E+04  0.7818608E-02  0.8938773E-01
         -3   -1    0    0    0  501 -0.00000000000E+00  0.00000000000E+00  0.78069266341E+03  0.78069266341E+03  0.00000000000E+00 0.  1.
          3   -1    0    0  501    0  0.00000000000E+00 -0.00000000000E+00 -0.64659767635E+03  0.64659767635E+03  0.00000000000E+00 0. -1.
         23    2    1    2    0    0  0.28538228720E+03 -0.40957011659E+03  0.57091562695E+03  0.76396311909E+03  0.92218566421E+02 0.  0.
         13    1    3    3    0    0  0.23673765888E+03 -0.31074343042E+03  0.49314590340E+03  0.62912564780E+03  0.00000000000E+00 0.  1.
        -13    1    3    3    0    0  0.48644628324E+02 -0.98826686172E+02  0.77769723543E+02  0.13483747129E+03  0.00000000000E+00 0. -1.
         22    1    1    2    0    0 -0.28538228720E+03  0.40957011659E+03 -0.43682063988E+03  0.66332722067E+03  0.00000000000E+00 0. -1.
<mgrwt>
<rscale>  0 0.14209772E+04</rscale>
<asrwt>0</asrwt>
<pdfrwt beam="1">  1        3 0.99476566E-01 0.14209772E+04</pdfrwt>
<pdfrwt beam="2">  1       -3 0.12010656E+00 0.14209772E+04</pdfrwt>
<totfact> 0.12723505E+00</totfact>
</mgrwt>
</event>
<event>
 6    1  0.1585031E-006  0.1304714E+04  0.7818608E-02  0.9025835E-01
          2   -1    0    0  501    0  0.00000000000E+00  0.00000000000E+00  0.46769267393E+03  0.46769267393E+03  0.00000000000E+00 0. -1.
         -2   -1    0    0    0  501 -0.00000000000E+00 -0.00000000000E+00 -0.90993469164E+03  0.90993469164E+03  0.00000000000E+00 0.  1.
         23    2    1    2    0    0 -0.64589502277E+02 -0.43567372457E+03 -0.72576939564E+03  0.85382284849E+03  0.91043082435E+02 0.  0.
         11    1    3    3    0    0 -0.41094696249E+02 -0.36985291043E+03 -0.66092044378E+03  0.75848255248E+03  0.00000000000E+00 0. -1.
        -11    1    3    3    0    0 -0.23494806028E+02 -0.65820814143E+02 -0.64848951866E+02  0.95340296007E+02  0.00000000000E+00 0.  1.
         22    1    1    2    0    0  0.64589502277E+02  0.43567372457E+03  0.28352737793E+03  0.52380451709E+03  0.00000000000E+00 0. -1.
<mgrwt>
<rscale>  0 0.13047142E+04</rscale>
<asrwt>0</asrwt>
<pdfrwt beam="1">  1        2 0.71952720E-01 0.13047142E+04</pdfrwt>
<pdfrwt beam="2">  1       -2 0.13998995E+00 0.13047142E+04</pdfrwt>
<totfact> 0.23401083E+01</totfact>
</mgrwt>
</event>
<event>
 6    1  0.1585031E-006  0.3980886E+04  0.7818608E-02  0.8008414E-01
         -1   -1    0    0    0  501 -0.00000000000E+00  0.00000000000E+00  0.17744403186E+04  0.17744403186E+04  0.00000000000E+00 0.  1.
          1   -1    0    0  501    0  0.00000000000E+00 -0.00000000000E+00 -0.22327393592E+04  0.22327393592E+04  0.00000000000E+00 0. -1.
         23    2    1    2    0    0  0.99940285613E+03 -0.10222972451E+04 -0.16226128601E+04  0.21633997570E+04  0.59399398943E+02 0.  0.
         11    1    3    3    0    0  0.41498025242E+03 -0.39401999860E+03 -0.67929029266E+03  0.88819799082E+03  0.00000000000E+00 0.  1.
        -11    1    3    3    0    0  0.58442260371E+03 -0.62827724649E+03 -0.94332256746E+03  0.12752017662E+04  0.00000000000E+00 0. -1.
         22    1    1    2    0    0 -0.99940285613E+03  0.10222972451E+04  0.11643138195E+04  0.18437799208E+04  0.00000000000E+00 0.  1.
<mgrwt>
<rscale>  0 0.39808857E+04</rscale>
<asrwt>0</asrwt>
<pdfrwt beam="1">  1        1 0.34349836E+00 0.39808857E+04</pdfrwt>
<pdfrwt beam="2">  1       -1 0.27299082E+00 0.39808857E+04</pdfrwt>
<totfact> 0.80152165E-02</totfact>
</mgrwt>
</event>
<event>
 6    1  0.1585031E-006  0.9826292E+03  0.7818608E-02  0.9327805E-01
         -1   -1    0    0    0  501 -0.00000000000E+00  0.00000000000E+00  0.57542415782E+03  0.57542415782E+03  0.00000000000E+00 0.  1.
          1   -1    0    0  501    0  0.00000000000E+00 -0.00000000000E+00 -0.41949934547E+03  0.41949934547E+03  0.00000000000E+00 0. -1.
         23    2    1    2    0    0  0.69911027213E+02  0.16847885050E+03  0.53573344848E+03  0.57358364656E+03  0.93355219406E+02 0.  0.
         11    1    3    3    0    0 -0.81834044151E+01  0.65819612285E+02  0.10720862747E+03  0.12606696345E+03  0.00000000000E+00 0. -1.
        -11    1    3    3    0    0  0.78094431628E+02  0.10265923822E+03  0.42852482101E+03  0.44751668312E+03  0.00000000000E+00 0.  1.
         22    1    1    2    0    0 -0.69911027213E+02 -0.16847885050E+03 -0.37980863613E+03  0.42133985673E+03  0.00000000000E+00 0. -1.
<mgrwt>
<rscale>  0 0.98262924E+03</rscale>
<asrwt>0</asrwt>
<pdfrwt beam="1">  1        1 0.64538361E-01 0.98262924E+03</pdfrwt>
<pdfrwt beam="2">  1       -1 0.88526793E-01 0.98262924E+03</pdfrwt>
<totfact> 0.70817114E+01</totfact>
</mgrwt>
</event>
<event>
 6    1  0.1585031E-006  0.4738694E+04  0.7818608E-02  0.7870131E-01
         -2   -1    0    0    0  501 -0.00000000000E+00  0.00000000000E+00  0.16027466210E+04  0.16027466210E+04  0.00000000000E+00 0.  1.
          2   -1    0    0  501    0  0.00000000000E+00 -0.00000000000E+00 -0.35026158278E+04  0.35026158278E+04  0.00000000000E+00 0. -1.
         23    2    1    2    0    0 -0.75040175062E+03  0.15380655895E+04  0.81388446137E+03  0.18970595459E+04  0.87626818352E+02 0.  0.
         11    1    3    3    0    0 -0.40512590243E+03  0.73048515842E+03  0.39722979869E+03  0.92494706684E+03  0.00000000000E+00 0. -1.
        -11    1    3    3    0    0 -0.34527584819E+03  0.80758043113E+03  0.41665466269E+03  0.97211247910E+03  0.00000000000E+00 0.  1.
         22    1    1    2    0    0  0.75040175062E+03 -0.15380655895E+04 -0.27137536682E+04  0.32083029029E+04  0.00000000000E+00 0. -1.
<mgrwt>
<rscale>  0 0.47386942E+04</rscale>
<asrwt>0</asrwt>
<pdfrwt beam="1">  1        2 0.53886397E+00 0.47386942E+04</pdfrwt>
<pdfrwt beam="2">  1       -2 0.24657640E+00 0.47386942E+04</pdfrwt>
<totfact> 0.40512571E-02</totfact>
</mgrwt>
</event>
<event>
 6    1  0.1585031E-006  0.2158955E+04  0.7818608E-02  0.8535709E-01
          2   -1    0    0  501    0  0.00000000000E+00  0.00000000000E+00  0.53198289549E+03  0.53198289549E+03  0.00000000000E+00 0. -1.
         -2   -1    0    0    0  501 -0.00000000000E+00 -0.00000000000E+00 -0.21904315733E+04  0.21904315733E+04  0.00000000000E+00 0.  1.
         23    2    1    2    0    0 -0.42725673352E+03 -0.22987922550E+02 -0.20777573922E+04  0.21233347088E+04  0.91639204514E+02 0.  0.
         13    1    3    3    0    0 -0.31026415843E+03  0.15879484656E+02 -0.16033673156E+04  0.16331879116E+04  0.00000000000E+00 0. -1.
        -13    1    3    3    0    0 -0.11699257509E+03 -0.38867407206E+02 -0.47439007657E+03  0.49014679711E+03  0.00000000000E+00 0.  1.
         22    1    1    2    0    0  0.42725673352E+03  0.22987922550E+02  0.41930871437E+03  0.59907976002E+03  0.00000000000E+00 0. -1.
<mgrwt>
<rscale>  0 0.21589554E+04</rscale>
<asrwt>0</asrwt>
<pdfrwt beam="1">  1        2 0.81843523E-01 0.21589554E+04</pdfrwt>
<pdfrwt beam="2">  1       -2 0.33698947E+00 0.21589554E+04</pdfrwt>
<totfact> 0.98752829E-01</totfact>
</mgrwt>
</event>
<event>
 6    1  0.1585031E-006  0.8595048E+03  0.7818608E-02  0.9477668E-01
         -2   -1    0    0    0  501 -0.00000000000E+00  0.00000000000E+00  0.14652747217E+03  0.14652747217E+03  0.00000000000E+00 0.  1.
          2   -1    0    0  501    0  0.00000000000E+00 -0.00000000000E+00 -0.12604264716E+04  0.12604264716E+04  0.00000000000E+00 0. -1.
         23    2    1    2    0    0 -0.20073459882E+03 -0.33614666900E+03 -0.29298412613E+03  0.49745397596E+03  0.91278682028E+02 0.  0.
         11    1    3    3    0    0 -0.15626623542E+03 -0.18517538497E+03 -0.15107754205E+03  0.28554068580E+03  0.00000000000E+00 0. -1.
        -11    1    3    3    0    0 -0.44468363399E+02 -0.15097128403E+03 -0.14190658408E+03  0.21191329016E+03  0.00000000000E+00 0.  1.
         22    1    1    2    0    0  0.20073459882E+03  0.33614666900E+03 -0.82091487333E+03  0.90949996784E+03  0.00000000000E+00 0. -1.
<mgrwt>
<rscale>  0 0.85950475E+03</rscale>
<asrwt>0</asrwt>
<pdfrwt beam="1">  1        2 0.19391177E+00 0.85950475E+03</pdfrwt>
<pdfrwt beam="2">  1       -2 0.22542688E-01 0.85950475E+03</pdfrwt>
<totfact> 0.30229118E+02</totfact>
</mgrwt>
</event>
<event>
 6    1  0.1585031E-006  0.1828015E+04  0.7818608E-02  0.8691542E-01
         -2   -1    0    0    0  501 -0.00000000000E+00  0.00000000000E+00  0.85755780017E+03  0.85755780017E+03  0.00000000000E+00 0.  1.
          2   -1    0    0  501    0  0.00000000000E+00 -0.00000000000E+00 -0.97417266772E+03  0.97417266772E+03  0.00000000000E+00 0. -1.
         23    2    1    2    0    0  0.53894631877E+03  0.72926656350E+03 -0.15057560722E+03  0.92429111068E+03  0.96686031197E+02 0.  0.
         13    1    3    3    0    0  0.21046731945E+03  0.23084793429E+03 -0.18550039282E+02  0.31293987487E+03  0.00000000000E+00 0. -1.
        -13    1    3    3    0    0  0.32847899932E+03  0.49841862922E+03 -0.13202556794E+03  0.61135123581E+03  0.00000000000E+00 0.  1.
         22    1    1    2    0    0 -0.53894631877E+03 -0.72926656350E+03  0.33960739670E+02  0.90743935720E+03  0.00000000000E+00 0. -1.
<mgrwt>
<rscale>  0 0.18280146E+04</rscale>
<asrwt>0</asrwt>
<pdfrwt beam="1">  1        2 0.14987272E+00 0.18280146E+04</pdfrwt>
<pdfrwt beam="2">  1       -2 0.13193197E+00 0.18280146E+04</pdfrwt>
<totfact> 0.10315023E+01</totfact>
</mgrwt>
</event>
<event>
 6    1  0.1585031E-006  0.3946701E+04  0.7818608E-02  0.8015386E-01
          3   -1    0    0  501    0  0.00000000000E+00  0.00000000000E+00  0.12326120004E+04  0.12326120004E+04  0.00000000000E+00 0. -1.
         -3   -1    0    0    0  501 -0.00000000000E+00 -0.00000000000E+00 -0.31592366365E+04  0.31592366365E+04  0.00000000000E+00 0.  1.
         23    2    1    2    0    0  0.18935153744E+04 -0.52033694982E+03 -0.11688428727E+04  0.22870008478E+04  0.89600235810E+02 0.  0.
         13    1    3    3    0    0  0.74538295267E+03 -0.25033303000E+03 -0.46896922064E+03  0.91552962920E+03  0.00000000000E+00 0. -1.
        -13    1    3    3    0    0  0.11481324217E+04 -0.27000391982E+03 -0.69987365210E+03  0.13714712186E+04  0.00000000000E+00 0.  1.
         22    1    1    2    0    0 -0.18935153744E+04  0.52033694982E+03 -0.75778176333E+03  0.21048477891E+04  0.00000000000E+00 0. -1.
<mgrwt>
<rscale>  0 0.39467014E+04</rscale>
<asrwt>0</asrwt>
<pdfrwt beam="1">  1        3 0.18963262E+00 0.39467014E+04</pdfrwt>
<pdfrwt beam="2">  1       -3 0.48603640E+00 0.39467014E+04</pdfrwt>
<totfact> 0.12625276E-03</totfact>
</mgrwt>
</event>
<event>
 6    1  0.1585031E-006  0.3055997E+04  0.7818608E-02  0.8227919E-01
         -2   -1    0    0    0  501 -0.00000000000E+00  0.00000000000E+00  0.63744929294E+03  0.63744929294E+03  0.00000000000E+00 0.  1.
          2   -1    0    0  501    0  0.00000000000E+00 -0.00000000000E+00 -0.36626907712E+04  0.36626907712E+04  0.00000000000E+00 0. -1.
         23    2    1    2    0    0 -0.33047645540E+03 -0.14156745587E+04 -0.85779997821E+03  0.16903217180E+04  0.89540851517E+02 0.  0.
         13    1    3    3    0    0 -0.51349934173E+02 -0.29400516931E+03 -0.13961251658E+03  0.32949584232E+03  0.00000000000E+00 0. -1.
        -13    1    3    3    0    0 -0.27912652123E+03 -0.11216693894E+04 -0.71818746163E+03  0.13608258757E+04  0.00000000000E+00 0.  1.
         22    1    1    2    0    0  0.33047645540E+03  0.14156745587E+04 -0.21674415000E+04  0.26098183461E+04  0.00000000000E+00 0. -1.
<mgrwt>
<rscale>  0 0.30559971E+04</rscale>
<asrwt>0</asrwt>
<pdfrwt beam="1">  1        2 0.56349086E+00 0.30559971E+04</pdfrwt>
<pdfrwt beam="2">  1       -2 0.98069126E-01 0.30559971E+04</pdfrwt>
<totfact> 0.45781164E-01</totfact>
</mgrwt>
</event>
<event>
 6    1  0.1585031E-006  0.3322831E+04  0.7818608E-02  0.8157110E-01
         -2   -1    0    0    0  501 -0.00000000000E+00  0.00000000000E+00  0.13315350803E+04  0.13315350803E+04  0.00000000000E+00 0.  1.
          2   -1    0    0  501    0  0.00000000000E+00 -0.00000000000E+00 -0.20730214187E+04  0.20730214187E+04  0.00000000000E+00 0. -1.
         23    2    1    2    0    0 -0.99243649134E+02 -0.16135543019E+04 -0.75823855352E+03  0.17878662306E+04  0.90184075874E+02 0.  0.
         13    1    3    3    0    0 -0.85840887866E+02 -0.85267344301E+03 -0.36817626634E+03  0.93272419371E+03  0.00000000000E+00 0. -1.
        -13    1    3    3    0    0 -0.13402761269E+02 -0.76088085888E+03 -0.39006228718E+03  0.85514203692E+03  0.00000000000E+00 0.  1.
         22    1    1    2    0    0  0.99243649134E+02  0.16135543019E+04  0.16752215134E+02  0.16166902683E+04  0.00000000000E+00 0.  1.
<mgrwt>
<rscale>  0 0.33228306E+04</rscale>
<asrwt>0</asrwt>
<pdfrwt beam="1">  1        2 0.31892637E+00 0.33228306E+04</pdfrwt>
<pdfrwt beam="2">  1       -2 0.20485155E+00 0.33228306E+04</pdfrwt>
<totfact> 0.62704664E-01</totfact>
</mgrwt>
</event>
<event>
 6    1  0.1585031E-006  0.1695761E+04  0.7818608E-02  0.8763786E-01
         -2   -1    0    0    0  501 -0.00000000000E+00  0.00000000000E+00  0.81165620022E+03  0.81165620022E+03  0.00000000000E+00 0.  1.
          2   -1    0    0  501    0  0.00000000000E+00 -0.00000000000E+00 -0.88572146526E+03  0.88572146526E+03  0.00000000000E+00 0. -1.
         23    2    1    2    0    0 -0.56744896556E+03  0.61653240286E+03 -0.14834430455E+03  0.85617144344E+03  0.94408556694E+02 0.  0.
         11    1    3    3    0    0 -0.18165038446E+03  0.15096992798E+03 -0.70801669812E+02  0.24657992168E+03  0.00000000000E+00 0. -1.
        -11    1    3    3    0    0 -0.38579858110E+03  0.46556247488E+03 -0.77542634739E+02  0.60959152176E+03  0.00000000000E+00 0.  1.
         22    1    1    2    0    0  0.56744896556E+03 -0.61653240286E+03  0.74279039512E+02  0.84120622204E+03  0.00000000000E+00 0.  1.
<mgrwt>
<rscale>  0 0.16957610E+04</rscale>
<asrwt>0</asrwt>
<pdfrwt beam="1">  1        2 0.13626484E+00 0.16957610E+04</pdfrwt>
<pdfrwt beam="2">  1       -2 0.12487018E+00 0.16957610E+04</pdfrwt>
<totfact> 0.13720265E+01</totfact>
</mgrwt>
</event>
<event>
 6    1  0.1585031E-006  0.1696804E+04  0.7818608E-02  0.8763189E-01
         -1   -1    0    0    0  501 -0.00000000000E+00  0.00000000000E+00  0.34094954380E+03  0.34094954380E+03  0.00000000000E+00 0.  1.
          1   -1    0    0  501    0  0.00000000000E+00 -0.00000000000E+00 -0.21111221535E+04  0.21111221535E+04  0.00000000000E+00 0. -1.
         23    2    1    2    0    0  0.54758569876E+03  0.40028666680E+03 -0.16183849069E+04  0.17570040604E+04  0.88397105435E+02 0.  0.
         13    1    3    3    0    0  0.31520786468E+03  0.28354203421E+03 -0.10022446901E+04  0.10882309047E+04  0.00000000000E+00 0. -1.
        -13    1    3    3    0    0  0.23237783407E+03  0.11674463258E+03 -0.61614021684E+03  0.66877315572E+03  0.00000000000E+00 0.  1.
         22    1    1    2    0    0 -0.54758569876E+03 -0.40028666680E+03 -0.15178770275E+03  0.69506763686E+03  0.00000000000E+00 0.  1.
<mgrwt>
<rscale>  0 0.16968042E+04</rscale>
<asrwt>0</asrwt>
<pdfrwt beam="1">  1        1 0.32478802E+00 0.16968042E+04</pdfrwt>
<pdfrwt beam="2">  1       -1 0.52453776E-01 0.16968042E+04</pdfrwt>
<totfact> 0.87335918E+00</totfact>
</mgrwt>
</event>
<event>
 6    1  0.1585031E-006  0.2946346E+04  0.7818608E-02  0.8259220E-01
         -1   -1    0    0    0  501 -0.00000000000E+00  0.00000000000E+00  0.11323970088E+04  0.11323970088E+04  0.00000000000E+00 0.  1.
          1   -1    0    0  501    0  0.00000000000E+00 -0.00000000000E+00 -0.19165002731E+04  0.19165002731E+04  0.00000000000E+00 0. -1.
         23    2    1    2    0    0  0.11899181334E+04 -0.63209323097E+03  0.22054357083E+03  0.13681943693E+04  0.88709349589E+02 0.  0.
         13    1    3    3    0    0  0.82502450092E+03 -0.39248221790E+03  0.15864684315E+03  0.92729528163E+03  0.00000000000E+00 0. -1.
        -13    1    3    3    0    0  0.36489363249E+03 -0.23961101308E+03  0.61896727681E+02  0.44089908768E+03  0.00000000000E+00 0.  1.
         22    1    1    2    0    0 -0.11899181334E+04  0.63209323097E+03 -0.10046468351E+04  0.16807029125E+04  0.00000000000E+00 0. -1.
<mgrwt>
<rscale>  0 0.29463463E+04</rscale>
<asrwt>0</asrwt>
<pdfrwt beam="1">  1        1 0.29484619E+00 0.29463463E+04</pdfrwt>
<pdfrwt beam="2">  1       -1 0.17421493E+00 0.29463463E+04</pdfrwt>
<totfact> 0.66532337E-01</totfact>
</mgrwt>
</event>
<event>
 6    1  0.1585031E-006  0.9861557E+03  0.7818608E-02  0.9323861E-01
         -3   -1    0    0    0  501 -0.00000000000E+00  0.00000000000E+00  0.22409734726E+03  0.22409734726E+03  0.00000000000E+00 0.  1.
          3   -1    0    0  501    0  0.00000000000E+00 -0.00000000000E+00 -0.10849114248E+04  0.10849114248E+04  0.00000000000E+00 0. -1.
         23    2    1    2    0    0 -0.27005376883E+02  0.19090186913E+03 -0.10301114011E+04  0.10524266258E+04  0.96433864201E+02 0.  0.
         11    1    3    3    0    0 -0.13068220817E+02  0.12037338404E+03 -0.84862825207E+03  0.85722251498E+03  0.00000000000E+00 0. -1.
        -11    1    3    3    0    0 -0.13937156066E+02  0.70528485092E+02 -0.18148314899E+03  0.19520411086E+03  0.00000000000E+00 0.  1.
         22    1    1    2    0    0  0.27005376883E+02 -0.19090186913E+03  0.16929732351E+03  0.25658214623E+03  0.00000000000E+00 0.  1.
<mgrwt>
<rscale>  0 0.98615571E+03</rscale>
<asrwt>0</asrwt>
<pdfrwt beam="1">  1        3 0.16690945E+00 0.98615571E+03</pdfrwt>
<pdfrwt beam="2">  1       -3 0.34476515E-01 0.98615571E+03</pdfrwt>
<totfact> 0.53171948E+00</totfact>
</mgrwt>
</event>
<event>
 6    1  0.1585031E-006  0.1409023E+04  0.7818608E-02  0.8947313E-01
         -1   -1    0    0    0  501 -0.00000000000E+00  0.00000000000E+00  0.22992878131E+03  0.22992878131E+03  0.00000000000E+00 0.  1.
          1   -1    0    0  501    0  0.00000000000E+00 -0.00000000000E+00 -0.21586519820E+04  0.21586519820E+04  0.00000000000E+00 0. -1.
         23    2    1    2    0    0  0.62680845934E+02  0.62987708021E+03 -0.45065251949E+03  0.78067312812E+03  0.75424233715E+02 0.  0.
         11    1    3    3    0    0 -0.86546715482E+01  0.27519555924E+03 -0.18196675079E+03  0.33002938893E+03  0.00000000000E+00 0.  1.
        -11    1    3    3    0    0  0.71335517483E+02  0.35468152097E+03 -0.26868576870E+03  0.45064373919E+03  0.00000000000E+00 0. -1.
         22    1    1    2    0    0 -0.62680845934E+02 -0.62987708021E+03 -0.14780706812E+04  0.16079076352E+04  0.00000000000E+00 0. -1.
<mgrwt>
<rscale>  0 0.14090227E+04</rscale>
<asrwt>0</asrwt>
<pdfrwt beam="1">  1        1 0.33210030E+00 0.14090227E+04</pdfrwt>
<pdfrwt beam="2">  1       -1 0.35373659E-01 0.14090227E+04</pdfrwt>
<totfact> 0.17270532E+01</totfact>
</mgrwt>
</event>
<event>
 6    1  0.1585031E-006  0.2613960E+04  0.7818608E-02  0.8363475E-01
          2   -1    0    0  501    0  0.00000000000E+00  0.00000000000E+00  0.11514465189E+04  0.11514465189E+04  0.00000000000E+00 0. -1.
         -2   -1    0    0    0  501 -0.00000000000E+00 -0.00000000000E+00 -0.14835227543E+04  0.14835227543E+04  0.00000000000E+00 0.  1.
         23    2    1    2    0    0  0.97486971118E+03  0.60924933481E+03  0.45662548451E+03  0.12408365289E+04  0.98044645616E+02 0.  0.
         11    1    3    3    0    0  0.27952027597E+03  0.16832086571E+03  0.83077177160E+02  0.33669766241E+03  0.00000000000E+00 0. -1.
        -11    1    3    3    0    0  0.69534943521E+03  0.44092846910E+03  0.37354830736E+03  0.90413886646E+03  0.00000000000E+00 0.  1.
         22    1    1    2    0    0 -0.97486971118E+03 -0.60924933481E+03 -0.78870171989E+03  0.13941327443E+04  0.00000000000E+00 0.  1.
<mgrwt>
<rscale>  0 0.26139603E+04</rscale>
<asrwt>0</asrwt>
<pdfrwt beam="1">  1        2 0.17714562E+00 0.26139603E+04</pdfrwt>
<pdfrwt beam="2">  1       -2 0.22823427E+00 0.26139603E+04</pdfrwt>
<totfact> 0.15699953E+00</totfact>
</mgrwt>
</event>
<event>
 6    1  0.1585031E-006  0.3946616E+04  0.7818608E-02  0.8015403E-01
         -1   -1    0    0    0  501 -0.00000000000E+00  0.00000000000E+00  0.27256641331E+04  0.27256641331E+04  0.00000000000E+00 0.  1.
          1   -1    0    0  501    0  0.00000000000E+00 -0.00000000000E+00 -0.14286219272E+04  0.14286219272E+04  0.00000000000E+00 0. -1.
         23    2    1    2    0    0 -0.18134035442E+04 -0.67601314170E+03  0.24885497941E+03  0.19533492953E+04  0.90655870154E+02 0.  0.
         13    1    3    3    0    0 -0.16359733510E+04 -0.62422421916E+03  0.20171290491E+03  0.17625983028E+04  0.00000000000E+00 0. -1.
        -13    1    3    3    0    0 -0.17743019322E+03 -0.51788922540E+02  0.47142074500E+02  0.19075099253E+03  0.00000000000E+00 0.  1.
         22    1    1    2    0    0  0.18134035442E+04  0.67601314170E+03  0.10481872265E+04  0.22009367650E+04  0.00000000000E+00 0.  1.
<mgrwt>
<rscale>  0 0.39466155E+04</rscale>
<asrwt>0</asrwt>
<pdfrwt beam="1">  1        1 0.21978799E+00 0.39466155E+04</pdfrwt>
<pdfrwt beam="2">  1       -1 0.41933294E+00 0.39466155E+04</pdfrwt>
<totfact> 0.30364406E-02</totfact>
</mgrwt>
</event>
<event>
 6    1  0.1585031E-006  0.1992682E+04  0.7818608E-02  0.8610050E-01
          2   -1    0    0  501    0  0.00000000000E+00  0.00000000000E+00  0.29129872915E+04  0.29129872915E+04  0.00000000000E+00 0.  1.
         -2   -1    0    0    0  501 -0.00000000000E+00 -0.00000000000E+00 -0.34078252191E+03  0.34078252191E+03  0.00000000000E+00 0. -1.
         23    2    1    2    0    0  0.15936224487E+03 -0.82381112112E+03  0.41934753838E+03  0.94317349508E+03  0.98299519338E+02 0.  0.
         11    1    3    3    0    0  0.55086872973E+02 -0.34377816487E+03  0.12178415622E+03  0.36884871008E+03  0.00000000000E+00 0. -1.
        -11    1    3    3    0    0  0.10427537189E+03 -0.48003295624E+03  0.29756338216E+03  0.57432478500E+03  0.00000000000E+00 0.  1.
         22    1    1    2    0    0 -0.15936224487E+03  0.82381112112E+03  0.21528572312E+04  0.23105963184E+04  0.00000000000E+00 0.  1.
<mgrwt>
<rscale>  0 0.19926818E+04</rscale>
<asrwt>0</asrwt>
<pdfrwt beam="1">  1        2 0.44815188E+00 0.19926818E+04</pdfrwt>
<pdfrwt beam="2">  1       -2 0.52428082E-01 0.19926818E+04</pdfrwt>
<totfact> 0.63077327E+00</totfact>
</mgrwt>
</event>
<event>
 6    1  0.1585031E-006  0.1613805E+04  0.7818608E-02  0.8812112E-01
          2   -1    0    0  501    0  0.00000000000E+00  0.00000000000E+00  0.16801458072E+04  0.16801458072E+04  0.00000000000E+00 0. -1.
         -2   -1    0    0    0  501 -0.00000000000E+00 -0.00000000000E+00 -0.38752087896E+03  0.38752087896E+03  0.00000000000E+00 0.  1.
         23    2    1    2    0    0 -0.37480955984E+03 -0.36540756026E+03 -0.13409218379E+03  0.54795401299E+03  0.90928517835E+02 0.  0.
         13    1    3    3    0    0 -0.11766172236E+03 -0.63879545708E+02 -0.49475069866E+02  0.14273282666E+03  0.00000000000E+00 0. -1.
        -13    1    3    3    0    0 -0.25714783748E+03 -0.30152801455E+03 -0.84617113923E+02  0.40522118633E+03  0.00000000000E+00 0.  1.
         22    1    1    2    0    0  0.37480955984E+03  0.36540756026E+03  0.14267171120E+04  0.15197126732E+04  0.00000000000E+00 0. -1.
<mgrwt>
<rscale>  0 0.16138049E+04</rscale>
<asrwt>0</asrwt>
<pdfrwt beam="1">  1        2 0.25848397E+00 0.16138049E+04</pdfrwt>
<pdfrwt beam="2">  1       -2 0.59618598E-01 0.16138049E+04</pdfrwt>
<totfact> 0.25293970E+01</totfact>
</mgrwt>
</event>
<event>
 6    1  0.1585031E-006  0.2425964E+04  0.7818608E-02  0.8429846E-01
          2   -1    0    0  501    0  0.00000000000E+00  0.00000000000E+00  0.27469213052E+04  0.27469213052E+04  0.00000000000E+00 0.  1.
         -2   -1    0    0    0  501 -0.00000000000E+00 -0.00000000000E+00 -0.53562719549E+03  0.53562719549E+03  0.00000000000E+00 0. -1.
         23    2    1    2    0    0 -0.45622457676E+03 -0.11205447210E+04  0.10266608497E+04  0.15892920828E+04  0.89752370099E+02 0.  0.
         13    1    3    3    0    0 -0.14795513367E+03 -0.28561872503E+03  0.23822807328E+03  0.40027664504E+03  0.00000000000E+00 0. -1.
        -13    1    3    3    0    0 -0.30826944309E+03 -0.83492599592E+03  0.78843277642E+03  0.11890154377E+04  0.00000000000E+00 0.  1.
         22    1    1    2    0    0  0.45622457676E+03  0.11205447210E+04  0.11846332600E+04  0.16932564179E+04  0.00000000000E+00 0.  1.
<mgrwt>
<rscale>  0 0.24259643E+04</rscale>
<asrwt>0</asrwt>
<pdfrwt beam="1">  1        2 0.42260327E+00 0.24259643E+04</pdfrwt>
<pdfrwt beam="2">  1       -2 0.82404186E-01 0.24259643E+04</pdfrwt>
<totfact> 0.28879726E+00</totfact>
</mgrwt>
</event>
<event>
 6    1  0.1585031E-006  0.3447447E+04  0.7818608E-02  0.8126358E-01
          1   -1    0    0  501    0  0.00000000000E+00  0.00000000000E+00  0.22984278981E+04  0.22984278981E+04  0.00000000000E+00 0. -1.
         -1   -1    0    0    0  501 -0.00000000000E+00 -0.00000000000E+00 -0.12927198406E+04  0.12927198406E+04  0.00000000000E+00 0.  1.
         23    2    1    2    0    0  0.21760829610E+03 -0.41355127270E+03  0.22301916488E+04  0.22805226623E+04  0.93009661693E+02 0.  0.
         11    1    3    3    0    0  0.17664285147E+03 -0.29962740359E+03  0.18155978312E+04  0.18486142817E+04  0.00000000000E+00 0.  1.
        -11    1    3    3    0    0  0.40965444635E+02 -0.11392386911E+03  0.41459381755E+03  0.43190838052E+03  0.00000000000E+00 0. -1.
         22    1    1    2    0    0 -0.21760829610E+03  0.41355127270E+03 -0.12244835913E+04  0.13106250764E+04  0.00000000000E+00 0.  1.
<mgrwt>
<rscale>  0 0.34474474E+04</rscale>
<asrwt>0</asrwt>
<pdfrwt beam="1">  1        1 0.35360429E+00 0.34474474E+04</pdfrwt>
<pdfrwt beam="2">  1       -1 0.19887998E+00 0.34474474E+04</pdfrwt>
<totfact> 0.23423504E-01</totfact>
</mgrwt>
</event>
<event>
 6    1  0.1585031E-006  0.1485431E+04  0.7818608E-02  0.8894199E-01
          2   -1    0    0  501    0  0.00000000000E+00  0.00000000000E+00  0.59274761141E+03  0.59274761141E+03  0.00000000000E+00 0.  1.
         -2   -1    0    0    0  501 -0.00000000000E+00 -0.00000000000E+00 -0.93062619010E+03  0.93062619010E+03  0.00000000000E+00 0. -1.
         23    2    1    2    0    0 -0.11770698821E+03  0.21213081287E+03 -0.88678211242E+03  0.92324922595E+03  0.84570689114E+02 0.  0.
         11    1    3    3    0    0 -0.10107744471E+03  0.95837031643E+02 -0.49682821401E+03  0.51598416710E+03  0.00000000000E+00 0. -1.
        -11    1    3    3    0    0 -0.16629543499E+02  0.11629378123E+03 -0.38995389841E+03  0.40726505885E+03  0.00000000000E+00 0.  1.
         22    1    1    2    0    0  0.11770698821E+03 -0.21213081287E+03  0.54890353374E+03  0.60012457556E+03  0.00000000000E+00 0.  1.
<mgrwt>
<rscale>  0 0.14854312E+04</rscale>
<asrwt>0</asrwt>
<pdfrwt beam="1">  1        2 0.91191941E-01 0.14854312E+04</pdfrwt>
<pdfrwt beam="2">  1       -2 0.14317326E+00 0.14854312E+04</pdfrwt>
<totfact> 0.16481011E+01</totfact>
</mgrwt>
</event>
<event>
 6    1  0.1585031E-006  0.8438453E+03  0.7818608E-02  0.9498635E-01
          2   -1    0    0  501    0  0.00000000000E+00  0.00000000000E+00  0.16377335295E+04  0.16377335295E+04  0.00000000000E+00 0. -1.
         -2   -1    0    0    0  501 -0.00000000000E+00 -0.00000000000E+00 -0.10869821842E+03  0.10869821842E+03  0.00000000000E+00 0.  1.
         23    2    1    2    0    0  0.30628837416E+03  0.23179377448E+03  0.43855729274E+03  0.59028157147E+03  0.92514391128E+02 0.  0.
         11    1    3    3    0    0  0.12985862514E+03  0.15480555885E+03  0.20916618439E+03  0.29082385780E+03  0.00000000000E+00 0.  1.
        -11    1    3    3    0    0  0.17642974902E+03  0.76988215633E+02  0.22939110835E+03  0.29945771366E+03  0.00000000000E+00 0. -1.
         22    1    1    2    0    0 -0.30628837416E+03 -0.23179377448E+03  0.10904780184E+04  0.11561501765E+04  0.00000000000E+00 0. -1.
<mgrwt>
<rscale>  0 0.84384529E+03</rscale>
<asrwt>0</asrwt>
<pdfrwt beam="1">  1        2 0.25195899E+00 0.84384529E+03</pdfrwt>
<pdfrwt beam="2">  1       -2 0.16722804E-01 0.84384529E+03</pdfrwt>
<totfact> 0.31212563E+02</totfact>
</mgrwt>
</event>
<event>
 6    1  0.1585031E-006  0.2890845E+04  0.7818608E-02  0.8275606E-01
          2   -1    0    0  501    0  0.00000000000E+00  0.00000000000E+00  0.16033619625E+04  0.16033619625E+04  0.00000000000E+00 0. -1.
         -2   -1    0    0    0  501 -0.00000000000E+00 -0.00000000000E+00 -0.13030411089E+04  0.13030411089E+04  0.00000000000E+00 0.  1.
         23    2    1    2    0    0  0.94673386692E+03 -0.57352655008E+03 -0.78198468535E+03  0.13583000393E+04  0.90781221527E+02 0.  0.
         11    1    3    3    0    0  0.41286933168E+03 -0.29200614196E+03 -0.32286214566E+03  0.59997386366E+03  0.00000000000E+00 0. -1.
        -11    1    3    3    0    0  0.53386453525E+03 -0.28152040812E+03 -0.45912253970E+03  0.75832617563E+03  0.00000000000E+00 0.  1.
         22    1    1    2    0    0 -0.94673386692E+03  0.57352655008E+03  0.10823055389E+04  0.15481030321E+04  0.00000000000E+00 0. -1.
<mgrwt>
<rscale>  0 0.28908452E+04</rscale>
<asrwt>0</asrwt>
<pdfrwt beam="1">  1        2 0.24667107E+00 0.28908452E+04</pdfrwt>
<pdfrwt beam="2">  1       -2 0.20046786E+00 0.28908452E+04</pdfrwt>
<totfact> 0.12666675E+00</totfact>
</mgrwt>
</event>
<event>
 6    1  0.1585031E-006  0.3364282E+04  0.7818608E-02  0.8146729E-01
         -1   -1    0    0    0  501 -0.00000000000E+00  0.00000000000E+00  0.13834142647E+04  0.13834142647E+04  0.00000000000E+00 0.  1.
          1   -1    0    0  501    0  0.00000000000E+00 -0.00000000000E+00 -0.20453734700E+04  0.20453734700E+04  0.00000000000E+00 0. -1.
         23    2    1    2    0    0 -0.13829148066E+04  0.74186985745E+03 -0.94487281602E+03  0.18341516135E+04  0.92213095955E+02 0.  0.
         11    1    3    3    0    0 -0.21241586183E+03  0.15194782214E+03 -0.14846437312E+03  0.30041689216E+03  0.00000000000E+00 0. -1.
        -11    1    3    3    0    0 -0.11704989448E+04  0.58992203532E+03 -0.79640844289E+03  0.15337347213E+04  0.00000000000E+00 0.  1.
         22    1    1    2    0    0  0.13829148066E+04 -0.74186985745E+03  0.28291361077E+03  0.15946361212E+04  0.00000000000E+00 0. -1.
<mgrwt>
<rscale>  0 0.33642823E+04</rscale>
<asrwt>0</asrwt>
<pdfrwt beam="1">  1        1 0.31467284E+00 0.33642823E+04</pdfrwt>
<pdfrwt beam="2">  1       -1 0.21283296E+00 0.33642823E+04</pdfrwt>
<totfact> 0.28174297E-01</totfact>
</mgrwt>
</event>
<event>
 6    1  0.1585031E-006  0.2259196E+04  0.7818608E-02  0.8494185E-01
         -2   -1    0    0    0  501 -0.00000000000E+00  0.00000000000E+00  0.60017856778E+03  0.60017856778E+03  0.00000000000E+00 0.  1.
          2   -1    0    0  501    0  0.00000000000E+00 -0.00000000000E+00 -0.21260203985E+04  0.21260203985E+04  0.00000000000E+00 0. -1.
         23    2    1    2    0    0 -0.86720142759E+03 -0.26556744614E+03  0.44635482949E+02  0.91264902840E+03  0.91496110534E+02 0.  0.
         11    1    3    3    0    0 -0.59665830563E+03 -0.13935589052E+03  0.18909435678E+02  0.61300796460E+03  0.00000000000E+00 0. -1.
        -11    1    3    3    0    0 -0.27054312196E+03 -0.12621155561E+03  0.25726047271E+02  0.29964106380E+03  0.00000000000E+00 0.  1.
         22    1    1    2    0    0  0.86720142759E+03  0.26556744614E+03 -0.15704773137E+04  0.18135499379E+04  0.00000000000E+00 0. -1.
<mgrwt>
<rscale>  0 0.22591962E+04</rscale>
<asrwt>0</asrwt>
<pdfrwt beam="1">  1        2 0.32708006E+00 0.22591962E+04</pdfrwt>
<pdfrwt beam="2">  1       -2 0.92335165E-01 0.22591962E+04</pdfrwt>
<totfact> 0.51469562E+00</totfact>
</mgrwt>
</event>
<event>
 6    1  0.1585031E-006  0.4827845E+04  0.7818608E-02  0.7855627E-01
          2   -1    0    0  501    0  0.00000000000E+00  0.00000000000E+00  0.22762148471E+04  0.22762148471E+04  0.00000000000E+00 0. -1.
         -2   -1    0    0    0  501 -0.00000000000E+00 -0.00000000000E+00 -0.25599614854E+04  0.25599614854E+04  0.00000000000E+00 0.  1.
         23    2    1    2    0    0 -0.77936388471E+03 -0.20778648769E+04  0.80726193482E+03  0.23632771801E+04  0.92068924624E+02 0.  0.
         11    1    3    3    0    0 -0.52748804461E+03 -0.13151397195E+04  0.48264411868E+03  0.14969240008E+04  0.00000000000E+00 0.  1.
        -11    1    3    3    0    0 -0.25187584010E+03 -0.76272515746E+03  0.32461781615E+03  0.86635317926E+03  0.00000000000E+00 0. -1.
         22    1    1    2    0    0  0.77936388471E+03  0.20778648769E+04 -0.10910085732E+04  0.24728991525E+04  0.00000000000E+00 0.  1.
<mgrwt>
<rscale>  0 0.48278452E+04</rscale>
<asrwt>0</asrwt>
<pdfrwt beam="1">  1        2 0.35018690E+00 0.48278452E+04</pdfrwt>
<pdfrwt beam="2">  1       -2 0.39384023E+00 0.48278452E+04</pdfrwt>
<totfact> 0.28116812E-02</totfact>
</mgrwt>
</event>
<event>
 6    1  0.1585031E-006  0.1402576E+04  0.7818608E-02  0.8951956E-01
         -1   -1    0    0    0  501 -0.00000000000E+00  0.00000000000E+00  0.26273165699E+03  0.26273165699E+03  0.00000000000E+00 0.  1.
          1   -1    0    0  501    0  0.00000000000E+00 -0.00000000000E+00 -0.18718895679E+04  0.18718895679E+04  0.00000000000E+00 0. -1.
         23    2    1    2    0    0  0.14633201140E+03  0.27151315912E+03 -0.17614511413E+04  0.17906362236E+04  0.92387817062E+02 0.  0.
         13    1    3    3    0    0  0.10562341600E+03  0.14497568807E+03 -0.12195513322E+04  0.12326717763E+04  0.00000000000E+00 0. -1.
        -13    1    3    3    0    0  0.40708595406E+02  0.12653747105E+03 -0.54189980909E+03  0.55796444726E+03  0.00000000000E+00 0.  1.
         22    1    1    2    0    0 -0.14633201140E+03 -0.27151315912E+03  0.15229323038E+03  0.34398500136E+03  0.00000000000E+00 0.  1.
<mgrwt>
<rscale>  0 0.14025757E+04</rscale>
<asrwt>0</asrwt>
<pdfrwt beam="1">  1        1 0.28798302E+00 0.14025757E+04</pdfrwt>
<pdfrwt beam="2">  1       -1 0.40420253E-01 0.14025757E+04</pdfrwt>
<totfact> 0.21217559E+01</totfact>
</mgrwt>
</event>
<event>
 6    1  0.1585031E-006  0.1781467E+04  0.7818608E-02  0.8716217E-01
          1   -1    0    0  501    0  0.00000000000E+00  0.00000000000E+00  0.21191363824E+04  0.21191363824E+04  0.00000000000E+00 0. -1.
         -1   -1    0    0    0  501 -0.00000000000E+00 -0.00000000000E+00 -0.37440084657E+03  0.37440084657E+03  0.00000000000E+00 0.  1.
         23    2    1    2    0    0  0.33320879980E+03  0.36072055767E+02  0.20261715018E+04  0.20558895391E+04  0.94771013256E+02 0.  0.
         13    1    3    3    0    0  0.14360960299E+03  0.48334573907E+00  0.11369077360E+04  0.11459420369E+04  0.00000000000E+00 0. -1.
        -13    1    3    3    0    0  0.18959919681E+03  0.35588710028E+02  0.88926376580E+03  0.90994750227E+03  0.00000000000E+00 0.  1.
         22    1    1    2    0    0 -0.33320879980E+03 -0.36072055767E+02 -0.28143596598E+03  0.43764768983E+03  0.00000000000E+00 0.  1.
<mgrwt>
<rscale>  0 0.17814673E+04</rscale>
<asrwt>0</asrwt>
<pdfrwt beam="1">  1        1 0.32602098E+00 0.17814673E+04</pdfrwt>
<pdfrwt beam="2">  1       -1 0.57600131E-01 0.17814673E+04</pdfrwt>
<totfact> 0.71378649E+00</totfact>
</mgrwt>
</event>
<event>
 6    1  0.1585031E-006  0.3815862E+04  0.7818608E-02  0.8042760E-01
         -2   -1    0    0    0  501 -0.00000000000E+00  0.00000000000E+00  0.19004179744E+04  0.19004179744E+04  0.00000000000E+00 0.  1.
          2   -1    0    0  501    0  0.00000000000E+00 -0.00000000000E+00 -0.19154735310E+04  0.19154735310E+04  0.00000000000E+00 0. -1.
         23    2    1    2    0    0  0.90520745016E+02  0.18706373024E+04 -0.36458172079E+03  0.19107283990E+04  0.10239756451E+03 0.  0.
         11    1    3    3    0    0  0.19804781596E+02  0.78260411968E+03 -0.10439115653E+03  0.78978411676E+03  0.00000000000E+00 0.  1.
        -11    1    3    3    0    0  0.70715963420E+02  0.10880331828E+04 -0.26019056425E+03  0.11209442823E+04  0.00000000000E+00 0. -1.
         22    1    1    2    0    0 -0.90520745016E+02 -0.18706373024E+04  0.34952616418E+03  0.19051631064E+04  0.00000000000E+00 0.  1.
<mgrwt>
<rscale>  0 0.38158618E+04</rscale>
<asrwt>0</asrwt>
<pdfrwt beam="1">  1        2 0.29468824E+00 0.38158618E+04</pdfrwt>
<pdfrwt beam="2">  1       -2 0.29237199E+00 0.38158618E+04</pdfrwt>
<totfact> 0.21097305E-01</totfact>
</mgrwt>
</event>
<event>
 6    1  0.1585031E-006  0.3293632E+04  0.7818608E-02  0.8164518E-01
          2   -1    0    0  501    0  0.00000000000E+00  0.00000000000E+00  0.25114594507E+04  0.25114594507E+04  0.00000000000E+00 0.  1.
         -2   -1    0    0    0  501 -0.00000000000E+00 -0.00000000000E+00 -0.10798515834E+04  0.10798515834E+04  0.00000000000E+00 0. -1.
         23    2    1    2    0    0  0.15317101697E+04  0.30508371486E+03  0.12826292826E+04  0.20224239330E+04  0.76475952065E+02 0.  0.
         11    1    3    3    0    0  0.71819619583E+03  0.10475711952E+03  0.58676580873E+03  0.93331342222E+03  0.00000000000E+00 0. -1.
        -11    1    3    3    0    0  0.81351397386E+03  0.20032659534E+03  0.69586347384E+03  0.10891105108E+04  0.00000000000E+00 0.  1.
         22    1    1    2    0    0 -0.15317101697E+04 -0.30508371486E+03  0.14897858473E+03  0.15688871010E+04  0.00000000000E+00 0. -1.
<mgrwt>
<rscale>  0 0.32936323E+04</rscale>
<asrwt>0</asrwt>
<pdfrwt beam="1">  1        2 0.38637837E+00 0.32936323E+04</pdfrwt>
<pdfrwt beam="2">  1       -2 0.16613101E+00 0.32936323E+04</pdfrwt>
<totfact> 0.65073571E-01</totfact>
</mgrwt>
</event>
<event>
 6    1  0.1585031E-006  0.2648465E+04  0.7818608E-02  0.8351923E-01
          1   -1    0    0  501    0  0.00000000000E+00  0.00000000000E+00  0.16780638998E+04  0.16780638998E+04  0.00000000000E+00 0. -1.
         -1   -1    0    0    0  501 -0.00000000000E+00 -0.00000000000E+00 -0.10450090329E+04  0.10450090329E+04  0.00000000000E+00 0.  1.
         23    2    1    2    0    0 -0.85625070839E+03  0.18562517593E+02 -0.71960340417E+03  0.11220750437E+04  0.87826542746E+02 0.  0.
         11    1    3    3    0    0 -0.11301527734E+03  0.31835926349E+02 -0.90484458483E+02  0.14823432917E+03  0.00000000000E+00 0. -1.
        -11    1    3    3    0    0 -0.74323543105E+03 -0.13273408756E+02 -0.62911894569E+03  0.97384071448E+03  0.00000000000E+00 0.  1.
         22    1    1    2    0    0  0.85625070839E+03 -0.18562517593E+02  0.13526582711E+04  0.16009978891E+04  0.00000000000E+00 0. -1.
<mgrwt>
<rscale>  0 0.26484652E+04</rscale>
<asrwt>0</asrwt>
<pdfrwt beam="1">  1        1 0.25816368E+00 0.26484652E+04</pdfrwt>
<pdfrwt beam="2">  1       -1 0.16077062E+00 0.26484652E+04</pdfrwt>
<totfact> 0.12475949E+00</totfact>
</mgrwt>
</event>
<event>
 6    1  0.1585031E-006  0.1908442E+04  0.7818608E-02  0.8650666E-01
          1   -1    0    0  501    0  0.00000000000E+00  0.00000000000E+00  0.19106956806E+04  0.19106956806E+04  0.00000000000E+00 0. -1.
         -1   -1    0    0    0  501 -0.00000000000E+00 -0.00000000000E+00 -0.47654777052E+03  0.47654777052E+03  0.00000000000E+00 0.  1.
         23    2    1    2    0    0  0.44333821407E+03 -0.76454516216E+03  0.27536611693E+03  0.92989883808E+03  0.88358778061E+02 0.  0.
         13    1    3    3    0    0  0.78167696247E+02 -0.19076093683E+03  0.90116135513E+02  0.22499075900E+03  0.00000000000E+00 0. -1.
        -13    1    3    3    0    0  0.36517051782E+03 -0.57378422534E+03  0.18524998142E+03  0.70490807907E+03  0.00000000000E+00 0.  1.
         22    1    1    2    0    0 -0.44333821407E+03  0.76454516216E+03  0.11587817932E+04  0.14573446131E+04  0.00000000000E+00 0. -1.
<mgrwt>
<rscale>  0 0.19084421E+04</rscale>
<asrwt>0</asrwt>
<pdfrwt beam="1">  1        1 0.29395318E+00 0.19084421E+04</pdfrwt>
<pdfrwt beam="2">  1       -1 0.73315043E-01 0.19084421E+04</pdfrwt>
<totfact> 0.60055027E+00</totfact>
</mgrwt>
</event>
<event>
 6    1  0.1585031E-006  0.7022721E+03  0.7818608E-02  0.9713354E-01
          3   -1    0    0  501    0  0.00000000000E+00  0.00000000000E+00  0.37820215104E+03  0.37820215104E+03  0.00000000000E+00 0. -1.
         -3   -1    0    0    0  501 -0.00000000000E+00 -0.00000000000E+00 -0.32600697875E+03  0.32600697875E+03  0.00000000000E+00 0.  1.
         23    2    1    2    0    0  0.42540490161E+02 -0.18917003089E+03 -0.25986999809E+03  0.33681334258E+03  0.91191106705E+02 0.  0.
         13    1    3    3    0    0  0.59955182200E+02 -0.97964716084E+02 -0.18400215705E+03  0.21690666949E+03  0.00000000000E+00 0.  1.
        -13    1    3    3    0    0 -0.17414692040E+02 -0.91205314802E+02 -0.75867841045E+02  0.11990667309E+03  0.00000000000E+00 0. -1.
         22    1    1    2    0    0 -0.42540490161E+02  0.18917003089E+03  0.31206517039E+03  0.36739578721E+03  0.00000000000E+00 0. -1.
<mgrwt>
<rscale>  0 0.70227214E+03</rscale>
<asrwt>0</asrwt>
<pdfrwt beam="1">  1        3 0.58184946E-01 0.70227214E+03</pdfrwt>
<pdfrwt beam="2">  1       -3 0.50154920E-01 0.70227214E+03</pdfrwt>
<totfact> 0.30101623E+01</totfact>
</mgrwt>
</event>
<event>
 6    1  0.1585031E-006  0.2867357E+04  0.7818608E-02  0.8282656E-01
          2   -1    0    0  501    0  0.00000000000E+00  0.00000000000E+00  0.10564235114E+04  0.10564235114E+04  0.00000000000E+00 0. -1.
         -2   -1    0    0    0  501 -0.00000000000E+00 -0.00000000000E+00 -0.19456540812E+04  0.19456540812E+04  0.00000000000E+00 0.  1.
         23    2    1    2    0    0 -0.91282658868E+03  0.10614255749E+04 -0.76184305129E+03  0.15963378542E+04  0.89515797263E+02 0.  0.
         13    1    3    3    0    0 -0.24827445930E+03  0.34212389007E+03 -0.20512060679E+03  0.46985468671E+03  0.00000000000E+00 0. -1.
        -13    1    3    3    0    0 -0.66455212938E+03  0.71930168485E+03 -0.55672244450E+03  0.11264831675E+04  0.00000000000E+00 0.  1.
         22    1    1    2    0    0  0.91282658868E+03 -0.10614255749E+04 -0.12738751850E+03  0.14057397383E+04  0.00000000000E+00 0. -1.
<mgrwt>
<rscale>  0 0.28673575E+04</rscale>
<asrwt>0</asrwt>
<pdfrwt beam="1">  1        2 0.16252670E+00 0.28673575E+04</pdfrwt>
<pdfrwt beam="2">  1       -2 0.29933139E+00 0.28673575E+04</pdfrwt>
<totfact> 0.64389561E-01</totfact>
</mgrwt>
</event>
<event>
 6    1  0.1585031E-006  0.2984088E+04  0.7818608E-02  0.8248289E-01
          1   -1    0    0  501    0  0.00000000000E+00  0.00000000000E+00  0.13281303217E+04  0.13281303217E+04  0.00000000000E+00 0. -1.
         -1   -1    0    0    0  501 -0.00000000000E+00 -0.00000000000E+00 -0.16761872014E+04  0.16761872014E+04  0.00000000000E+00 0.  1.
         23    2    1    2    0    0  0.92823775001E+03 -0.38328583704E+03 -0.12833970615E+04  0.16319492748E+04  0.87275795028E+02 0.  0.
         13    1    3    3    0    0  0.27255539330E+03 -0.15542061464E+03 -0.38699580444E+03  0.49820453884E+03  0.00000000000E+00 0. -1.
        -13    1    3    3    0    0  0.65568235672E+03 -0.22786522240E+03 -0.89640125710E+03  0.11337447359E+04  0.00000000000E+00 0.  1.
         22    1    1    2    0    0 -0.92823775001E+03  0.38328583704E+03  0.93534018181E+03  0.13723682484E+04  0.00000000000E+00 0. -1.
<mgrwt>
<rscale>  0 0.29840878E+04</rscale>
<asrwt>0</asrwt>
<pdfrwt beam="1">  1        1 0.20432774E+00 0.29840878E+04</pdfrwt>
<pdfrwt beam="2">  1       -1 0.25787495E+00 0.29840878E+04</pdfrwt>
<totfact> 0.45591294E-01</totfact>
</mgrwt>
</event>
<event>
 6    1  0.1585031E-006  0.1214312E+04  0.7818608E-02  0.9100421E-01
         -1   -1    0    0    0  501 -0.00000000000E+00  0.00000000000E+00  0.89789717434E+03  0.89789717434E+03  0.00000000000E+00 0.  1.
          1   -1    0    0  501    0  0.00000000000E+00 -0.00000000000E+00 -0.41055744123E+03  0.41055744123E+03  0.00000000000E+00 0. -1.
         23    2    1    2    0    0  0.27225849812E+03  0.71643020475E+02 -0.33174928166E+03  0.44233440087E+03  0.79653776627E+02 0.  0.
         11    1    3    3    0    0  0.12890746024E+03  0.72269106869E+02 -0.19030715836E+03  0.24094972844E+03  0.00000000000E+00 0.  1.
        -11    1    3    3    0    0  0.14335103789E+03 -0.62608639432E+00 -0.14144212330E+03  0.20138467243E+03  0.00000000000E+00 0. -1.
         22    1    1    2    0    0 -0.27225849812E+03 -0.71643020475E+02  0.81908901477E+03  0.86612021470E+03  0.00000000000E+00 0.  1.
<mgrwt>
<rscale>  0 0.12143119E+04</rscale>
<asrwt>0</asrwt>
<pdfrwt beam="1">  1        1 0.63162684E-01 0.12143119E+04</pdfrwt>
<pdfrwt beam="2">  1       -1 0.13813803E+00 0.12143119E+04</pdfrwt>
<totfact> 0.24872178E+01</totfact>
</mgrwt>
</event>
<event>
 6    1  0.1585031E-006  0.1400133E+04  0.7818608E-02  0.8953722E-01
         -2   -1    0    0    0  501 -0.00000000000E+00  0.00000000000E+00  0.25362130805E+03  0.25362130805E+03  0.00000000000E+00 0.  1.
          2   -1    0    0  501    0  0.00000000000E+00 -0.00000000000E+00 -0.19323808123E+04  0.19323808123E+04  0.00000000000E+00 0. -1.
         23    2    1    2    0    0  0.32640870842E+03  0.52809322888E+03 -0.13379236159E+04  0.14777689623E+04  0.91303892603E+02 0.  0.
         13    1    3    3    0    0  0.25764504898E+03  0.45217024610E+03 -0.11782179803E+04  0.12880359125E+04  0.00000000000E+00 0. -1.
        -13    1    3    3    0    0  0.68763659442E+02  0.75922982779E+02 -0.15970563553E+03  0.18973304982E+03  0.00000000000E+00 0.  1.
         22    1    1    2    0    0 -0.32640870842E+03 -0.52809322888E+03 -0.34083588839E+03  0.70823315803E+03  0.00000000000E+00 0. -1.
<mgrwt>
<rscale>  0 0.14001328E+04</rscale>
<asrwt>0</asrwt>
<pdfrwt beam="1">  1        2 0.29728934E+00 0.14001328E+04</pdfrwt>
<pdfrwt beam="2">  1       -2 0.39018664E-01 0.14001328E+04</pdfrwt>
<totfact> 0.44042063E+01</totfact>
</mgrwt>
</event>
<event>
 6    1  0.1585031E-006  0.2706719E+04  0.7818608E-02  0.8332828E-01
         -2   -1    0    0    0  501 -0.00000000000E+00  0.00000000000E+00  0.17049144247E+04  0.17049144247E+04  0.00000000000E+00 0.  1.
          2   -1    0    0  501    0  0.00000000000E+00 -0.00000000000E+00 -0.10742955368E+04  0.10742955368E+04  0.00000000000E+00 0. -1.
         23    2    1    2    0    0 -0.59434295552E+03 -0.38670828583E+03 -0.86609422116E+03  0.11230285168E+04  0.91032974342E+02 0.  0.
         11    1    3    3    0    0 -0.37765034812E+03 -0.20622086711E+03 -0.47578391902E+03  0.64149603979E+03  0.00000000000E+00 0. -1.
        -11    1    3    3    0    0 -0.21669260740E+03 -0.18048741872E+03 -0.39031030214E+03  0.48153247697E+03  0.00000000000E+00 0.  1.
         22    1    1    2    0    0  0.59434295552E+03  0.38670828583E+03  0.14967131090E+04  0.16561814447E+04  0.00000000000E+00 0.  1.
<mgrwt>
<rscale>  0 0.27067190E+04</rscale>
<asrwt>0</asrwt>
<pdfrwt beam="1">  1        2 0.16527624E+00 0.27067190E+04</pdfrwt>
<pdfrwt beam="2">  1       -2 0.26229453E+00 0.27067190E+04</pdfrwt>
<totfact> 0.10704591E+00</totfact>
</mgrwt>
</event>
<event>
 6    1  0.1585031E-006  0.9230006E+03  0.7818608E-02  0.9397278E-01
          3   -1    0    0  501    0  0.00000000000E+00  0.00000000000E+00  0.14453313538E+04  0.14453313538E+04  0.00000000000E+00 0. -1.
         -3   -1    0    0    0  501 -0.00000000000E+00 -0.00000000000E+00 -0.14735895154E+03  0.14735895154E+03  0.00000000000E+00 0.  1.
         23    2    1    2    0    0 -0.14014979325E+03 -0.25386956741E+03  0.46073568073E+02  0.30764462022E+03  0.91818935250E+02 0.  0.
         13    1    3    3    0    0 -0.38028055228E+02 -0.15709661802E+03  0.77113776290E+01  0.16181763107E+03  0.00000000000E+00 0. -1.
        -13    1    3    3    0    0 -0.10212173803E+03 -0.96772949383E+02  0.38362190444E+02  0.14582698915E+03  0.00000000000E+00 0.  1.
         22    1    1    2    0    0  0.14014979325E+03  0.25386956741E+03  0.12518988342E+04  0.12850456851E+04  0.00000000000E+00 0. -1.
<mgrwt>
<rscale>  0 0.92300057E+03</rscale>
<asrwt>0</asrwt>
<pdfrwt beam="1">  1        3 0.22235866E+00 0.92300057E+03</pdfrwt>
<pdfrwt beam="2">  1       -3 0.22670609E-01 0.92300057E+03</pdfrwt>
<totfact> 0.51886146E+00</totfact>
</mgrwt>
</event>
<event>
 6    1  0.1585031E-006  0.1941924E+04  0.7818608E-02  0.8634265E-01
         -3   -1    0    0    0  501 -0.00000000000E+00  0.00000000000E+00  0.99788600047E+03  0.99788600047E+03  0.00000000000E+00 0.  1.
          3   -1    0    0  501    0  0.00000000000E+00 -0.00000000000E+00 -0.94476447278E+03  0.94476447278E+03  0.00000000000E+00 0. -1.
         23    2    1    2    0    0 -0.11354307538E+03 -0.16150110941E+03 -0.92223511783E+03  0.94751469143E+03  0.91059538796E+02 0.  0.
         11    1    3    3    0    0 -0.17192668426E+02 -0.82304349362E+02 -0.50797923458E+03  0.51489076175E+03  0.00000000000E+00 0. -1.
        -11    1    3    3    0    0 -0.96350406955E+02 -0.79196760046E+02 -0.41425588325E+03  0.43262392968E+03  0.00000000000E+00 0.  1.
         22    1    1    2    0    0  0.11354307538E+03  0.16150110941E+03  0.97535664552E+03  0.99513578183E+03  0.00000000000E+00 0.  1.
<mgrwt>
<rscale>  0 0.19419240E+04</rscale>
<asrwt>0</asrwt>
<pdfrwt beam="1">  1        3 0.14534838E+00 0.19419240E+04</pdfrwt>
<pdfrwt beam="2">  1       -3 0.15352092E+00 0.19419240E+04</pdfrwt>
<totfact> 0.25993465E-01</totfact>
</mgrwt>
</event>
<event>
 6    1  0.1585031E-006  0.1557636E+04  0.7818608E-02  0.8847005E-01
          1   -1    0    0  501    0  0.00000000000E+00  0.00000000000E+00  0.80546779608E+03  0.80546779608E+03  0.00000000000E+00 0. -1.
         -1   -1    0    0    0  501 -0.00000000000E+00 -0.00000000000E+00 -0.75304983706E+03  0.75304983706E+03  0.00000000000E+00 0.  1.
         23    2    1    2    0    0 -0.80848736552E+02  0.53737789384E+03  0.58095755812E+03  0.80045059995E+03  0.88870465480E+02 0.  0.
         13    1    3    3    0    0 -0.15070737060E+02  0.13810577473E+03  0.96127139115E+02  0.16894010478E+03  0.00000000000E+00 0. -1.
        -13    1    3    3    0    0 -0.65777999491E+02  0.39927211911E+03  0.48483041901E+03  0.63151049517E+03  0.00000000000E+00 0.  1.
         22    1    1    2    0    0  0.80848736552E+02 -0.53737789384E+03 -0.52853959911E+03  0.75806703319E+03  0.00000000000E+00 0.  1.
<mgrwt>
<rscale>  0 0.15576359E+04</rscale>
<asrwt>0</asrwt>
<pdfrwt beam="1">  1        1 0.12391812E+00 0.15576359E+04</pdfrwt>
<pdfrwt beam="2">  1       -1 0.11585382E+00 0.15576359E+04</pdfrwt>
<totfact> 0.14202047E+01</totfact>
</mgrwt>
</event>
<event>
 6    1  0.1585031E-006  0.2658080E+04  0.7818608E-02  0.8348736E-01
          2   -1    0    0  501    0  0.00000000000E+00  0.00000000000E+00  0.35966211691E+04  0.35966211691E+04  0.00000000000E+00 0. -1.
         -2   -1    0    0    0  501 -0.00000000000E+00 -0.00000000000E+00 -0.49111284528E+03  0.49111284528E+03  0.00000000000E+00 0.  1.
         23    2    1    2    0    0 -0.68761317329E+03 -0.18655857424E+03 -0.16782721762E+03  0.73775766452E+03  0.92219406179E+02 0.  0.
         11    1    3    3    0    0 -0.25548999372E+03 -0.38821921800E+02 -0.94872113027E+02  0.27528711618E+03  0.00000000000E+00 0.  1.
        -11    1    3    3    0    0 -0.43212317957E+03 -0.14773665244E+03 -0.72955104593E+02  0.46247054834E+03  0.00000000000E+00 0. -1.
         22    1    1    2    0    0  0.68761317329E+03  0.18655857424E+03  0.32733355415E+04  0.33499763499E+04  0.00000000000E+00 0. -1.
<mgrwt>
<rscale>  0 0.26580796E+04</rscale>
<asrwt>0</asrwt>
<pdfrwt beam="1">  1        2 0.55332632E+00 0.26580796E+04</pdfrwt>
<pdfrwt beam="2">  1       -2 0.75555825E-01 0.26580796E+04</pdfrwt>
<totfact> 0.96065692E-01</totfact>
</mgrwt>
</event>
<event>
 6    1  0.1585031E-006  0.2676908E+04  0.7818608E-02  0.8342537E-01
         -2   -1    0    0    0  501 -0.00000000000E+00  0.00000000000E+00  0.10489125355E+04  0.10489125355E+04  0.00000000000E+00 0.  1.
          2   -1    0    0  501    0  0.00000000000E+00 -0.00000000000E+00 -0.17079198246E+04  0.17079198246E+04  0.00000000000E+00 0. -1.
         23    2    1    2    0    0 -0.76681291271E+03 -0.37093208681E+03 -0.13910934972E+04  0.16336481044E+04  0.89846283859E+02 0.  0.
         13    1    3    3    0    0 -0.53124434840E+03 -0.28933697881E+03 -0.92894067508E+03  0.11085428376E+04  0.00000000000E+00 0. -1.
        -13    1    3    3    0    0 -0.23556856430E+03 -0.81595107998E+02 -0.46215282216E+03  0.52510526675E+03  0.00000000000E+00 0.  1.
         22    1    1    2    0    0  0.76681291271E+03  0.37093208681E+03  0.73208620814E+03  0.11231842557E+04  0.00000000000E+00 0.  1.
<mgrwt>
<rscale>  0 0.26769076E+04</rscale>
<asrwt>0</asrwt>
<pdfrwt beam="1">  1        2 0.26275689E+00 0.26769076E+04</pdfrwt>
<pdfrwt beam="2">  1       -2 0.16137116E+00 0.26769076E+04</pdfrwt>
<totfact> 0.21001974E+00</totfact>
</mgrwt>
</event>
<event>
 6    1  0.1585031E-006  0.3846726E+04  0.7818608E-02  0.8036201E-01
          2   -1    0    0  501    0  0.00000000000E+00  0.00000000000E+00  0.21286654277E+04  0.21286654277E+04  0.00000000000E+00 0. -1.
         -2   -1    0    0    0  501 -0.00000000000E+00 -0.00000000000E+00 -0.17378617123E+04  0.17378617123E+04  0.00000000000E+00 0.  1.
         23    2    1    2    0    0  0.11675400326E+04  0.13670993264E+04 -0.48900723104E+03  0.18649833365E+04  0.83213444226E+02 0.  0.
         13    1    3    3    0    0  0.10633493956E+04  0.12439922401E+04 -0.42002595825E+03  0.16895710805E+04  0.00000000000E+00 0.  1.
        -13    1    3    3    0    0  0.10419063697E+03  0.12310708632E+03 -0.68981272788E+02  0.17541225593E+03  0.00000000000E+00 0. -1.
         22    1    1    2    0    0 -0.11675400326E+04 -0.13670993264E+04  0.87981094644E+03  0.20015438035E+04  0.00000000000E+00 0. -1.
<mgrwt>
<rscale>  0 0.38467265E+04</rscale>
<asrwt>0</asrwt>
<pdfrwt beam="1">  1        2 0.32748699E+00 0.38467265E+04</pdfrwt>
<pdfrwt beam="2">  1       -2 0.26736334E+00 0.38467265E+04</pdfrwt>
<totfact> 0.22752488E-01</totfact>
</mgrwt>
</event>
<event>
 6    1  0.1585031E-006  0.2638222E+04  0.7818608E-02  0.8355333E-01
          1   -1    0    0  501    0  0.00000000000E+00  0.00000000000E+00  0.17116374933E+04  0.17116374933E+04  0.00000000000E+00 0. -1.
         -1   -1    0    0    0  501 -0.00000000000E+00 -0.00000000000E+00 -0.10166015510E+04  0.10166015510E+04  0.00000000000E+00 0.  1.
         23    2    1    2    0    0 -0.33212524342E+03  0.97504331752E+03 -0.50149488217E+03  0.11494095214E+04  0.92889625911E+02 0.  0.
         13    1    3    3    0    0 -0.10453757027E+03  0.43362121416E+03 -0.19302767098E+03  0.48601969377E+03  0.00000000000E+00 0.  1.
        -13    1    3    3    0    0 -0.22758767315E+03  0.54142210336E+03 -0.30846721119E+03  0.66338982760E+03  0.00000000000E+00 0. -1.
         22    1    1    2    0    0  0.33212524342E+03 -0.97504331752E+03  0.11965308245E+04  0.15788295229E+04  0.00000000000E+00 0.  1.
<mgrwt>
<rscale>  0 0.26382216E+04</rscale>
<asrwt>0</asrwt>
<pdfrwt beam="1">  1        1 0.26332885E+00 0.26382216E+04</pdfrwt>
<pdfrwt beam="2">  1       -1 0.15640024E+00 0.26382216E+04</pdfrwt>
<totfact> 0.12788464E+00</totfact>
</mgrwt>
</event>
<event>
 6    1  0.1585031E-006  0.4708157E+04  0.7818608E-02  0.7875175E-01
         -1   -1    0    0    0  501 -0.00000000000E+00  0.00000000000E+00  0.30428671843E+04  0.30428671843E+04  0.00000000000E+00 0.  1.
          1   -1    0    0  501    0  0.00000000000E+00 -0.00000000000E+00 -0.18212050226E+04  0.18212050226E+04  0.00000000000E+00 0. -1.
         23    2    1    2    0    0  0.15916027302E+04  0.89274397453E+03  0.21459196924E+04  0.28184810850E+04  0.93130261727E+02 0.  0.
         11    1    3    3    0    0  0.11792470965E+04  0.70538921660E+03  0.15950973707E+04  0.21053582317E+04  0.00000000000E+00 0.  1.
        -11    1    3    3    0    0  0.41235563377E+03  0.18735475793E+03  0.55082232162E+03  0.71312285339E+03  0.00000000000E+00 0. -1.
         22    1    1    2    0    0 -0.15916027302E+04 -0.89274397453E+03 -0.92425753068E+03  0.20455911219E+04  0.00000000000E+00 0. -1.
<mgrwt>
<rscale>  0 0.47081568E+04</rscale>
<asrwt>0</asrwt>
<pdfrwt beam="1">  1        1 0.28018539E+00 0.47081568E+04</pdfrwt>
<pdfrwt beam="2">  1       -1 0.46813341E+00 0.47081568E+04</pdfrwt>
<totfact> 0.70927430E-03</totfact>
</mgrwt>
</event>
<event>
 6    1  0.1585031E-006  0.3160311E+04  0.7818608E-02  0.8199378E-01
         -2   -1    0    0    0  501 -0.00000000000E+00  0.00000000000E+00  0.13101170187E+04  0.13101170187E+04  0.00000000000E+00 0.  1.
          2   -1    0    0  501    0  0.00000000000E+00 -0.00000000000E+00 -0.19058539845E+04  0.19058539845E+04  0.00000000000E+00 0. -1.
         23    2    1    2    0    0 -0.53833183301E+03 -0.15846419115E+03 -0.17997813340E+04  0.18875753909E+04  0.93893257597E+02 0.  0.
         11    1    3    3    0    0 -0.10241503764E+03 -0.86178915433E+00 -0.40683065923E+03  0.41952445448E+03  0.00000000000E+00 0. -1.
        -11    1    3    3    0    0 -0.43591679537E+03 -0.15760240199E+03 -0.13929506748E+04  0.14680509364E+04  0.00000000000E+00 0.  1.
         22    1    1    2    0    0  0.53833183301E+03  0.15846419115E+03  0.12040443682E+04  0.13283956123E+04  0.00000000000E+00 0.  1.
<mgrwt>
<rscale>  0 0.31603112E+04</rscale>
<asrwt>0</asrwt>
<pdfrwt beam="1">  1        2 0.29320830E+00 0.31603112E+04</pdfrwt>
<pdfrwt beam="2">  1       -2 0.20155646E+00 0.31603112E+04</pdfrwt>
<totfact> 0.82723991E-01</totfact>
</mgrwt>
</event>
<event>
 6    1  0.1585031E-006  0.8694340E+03  0.7818608E-02  0.9464618E-01
         -1   -1    0    0    0  501 -0.00000000000E+00  0.00000000000E+00  0.54060519208E+03  0.54060519208E+03  0.00000000000E+00 0.  1.
          1   -1    0    0  501    0  0.00000000000E+00 -0.00000000000E+00 -0.34956910011E+03  0.34956910011E+03  0.00000000000E+00 0. -1.
         23    2    1    2    0    0 -0.38265366535E+03  0.15176272863E+02  0.29655941957E+03  0.49294725443E+03  0.91626194114E+02 0.  0.
         13    1    3    3    0    0 -0.36196324569E+03  0.19461121078E+02  0.24579942588E+03  0.43796516326E+03  0.00000000000E+00 0. -1.
        -13    1    3    3    0    0 -0.20690419656E+02 -0.42848482150E+01  0.50759993688E+02  0.54982091166E+02  0.00000000000E+00 0.  1.
         22    1    1    2    0    0  0.38265366535E+03 -0.15176272863E+02 -0.10552332761E+03  0.39722703776E+03  0.00000000000E+00 0. -1.
<mgrwt>
<rscale>  0 0.86943400E+03</rscale>
<asrwt>0</asrwt>
<pdfrwt beam="1">  1        1 0.53779861E-01 0.86943400E+03</pdfrwt>
<pdfrwt beam="2">  1       -1 0.83170030E-01 0.86943400E+03</pdfrwt>
<totfact> 0.10397105E+02</totfact>
</mgrwt>
</event>
<event>
 6    1  0.1585031E-006  0.2433342E+04  0.7818608E-02  0.8427125E-01
          2   -1    0    0  501    0  0.00000000000E+00  0.00000000000E+00  0.92935683350E+03  0.92935683350E+03  0.00000000000E+00 0. -1.
         -2   -1    0    0    0  501 -0.00000000000E+00 -0.00000000000E+00 -0.15928088773E+04  0.15928088773E+04  0.00000000000E+00 0.  1.
         23    2    1    2    0    0  0.29243670468E+03 -0.11692611618E+04 -0.49120650796E+03  0.13046438771E+04  0.90116157366E+02 0.  0.
         11    1    3    3    0    0  0.15607270448E+03 -0.47350053279E+03 -0.17568927840E+03  0.52860965389E+03  0.00000000000E+00 0.  1.
        -11    1    3    3    0    0  0.13636400021E+03 -0.69576062904E+03 -0.31551722955E+03  0.77603422323E+03  0.00000000000E+00 0. -1.
         22    1    1    2    0    0 -0.29243670468E+03  0.11692611618E+04 -0.17224553582E+03  0.12175218337E+04  0.00000000000E+00 0.  1.
<mgrwt>
<rscale>  0 0.24333416E+04</rscale>
<asrwt>0</asrwt>
<pdfrwt beam="1">  1        2 0.14297797E+00 0.24333416E+04</pdfrwt>
<pdfrwt beam="2">  1       -2 0.24504752E+00 0.24333416E+04</pdfrwt>
<totfact> 0.17319784E+00</totfact>
</mgrwt>
</event>
<event>
 6    1  0.1585031E-006  0.2227394E+04  0.7818608E-02  0.8507112E-01
          2   -1    0    0  501    0  0.00000000000E+00  0.00000000000E+00  0.17120362863E+04  0.17120362863E+04  0.00000000000E+00 0. -1.
         -2   -1    0    0    0  501 -0.00000000000E+00 -0.00000000000E+00 -0.72447130645E+03  0.72447130645E+03  0.00000000000E+00 0.  1.
         23    2    1    2    0    0 -0.43948393849E+02 -0.20042665059E+03  0.16899346638E+04  0.17047798588E+04  0.91065336946E+02 0.  0.
         13    1    3    3    0    0 -0.59655307128E+02 -0.17008551703E+03  0.11783497363E+04  0.11920553426E+04  0.00000000000E+00 0.  1.
        -13    1    3    3    0    0  0.15706913279E+02 -0.30341133566E+02  0.51158492745E+03  0.51272451619E+03  0.00000000000E+00 0. -1.
         22    1    1    2    0    0  0.43948393849E+02  0.20042665059E+03 -0.70236968397E+03  0.73172773389E+03  0.00000000000E+00 0.  1.
<mgrwt>
<rscale>  0 0.22273941E+04</rscale>
<asrwt>0</asrwt>
<pdfrwt beam="1">  1        2 0.26339020E+00 0.22273941E+04</pdfrwt>
<pdfrwt beam="2">  1       -2 0.11145712E+00 0.22273941E+04</pdfrwt>
<totfact> 0.56048760E+00</totfact>
</mgrwt>
</event>
<event>
 6    1  0.1585031E-006  0.3365522E+04  0.7818608E-02  0.8146421E-01
          2   -1    0    0  501    0  0.00000000000E+00  0.00000000000E+00  0.25990387840E+04  0.25990387840E+04  0.00000000000E+00 0. -1.
         -2   -1    0    0    0  501 -0.00000000000E+00 -0.00000000000E+00 -0.10895120846E+04  0.10895120846E+04  0.00000000000E+00 0.  1.
         23    2    1    2    0    0  0.12020609142E+04 -0.45075098908E+03  0.19455441378E+04  0.23327344716E+04  0.91549042676E+02 0.  0.
         13    1    3    3    0    0  0.29689523795E+03 -0.79454861906E+02  0.42053170607E+03  0.52087116757E+03  0.00000000000E+00 0.  1.
        -13    1    3    3    0    0  0.90516567624E+03 -0.37129612717E+03  0.15250124318E+04  0.18118633041E+04  0.00000000000E+00 0. -1.
         22    1    1    2    0    0 -0.12020609142E+04  0.45075098908E+03 -0.43601743842E+03  0.13558163969E+04  0.00000000000E+00 0.  1.
<mgrwt>
<rscale>  0 0.33655218E+04</rscale>
<asrwt>0</asrwt>
<pdfrwt beam="1">  1        2 0.39985212E+00 0.33655218E+04</pdfrwt>
<pdfrwt beam="2">  1       -2 0.16761724E+00 0.33655218E+04</pdfrwt>
<totfact> 0.56100479E-01</totfact>
</mgrwt>
</event>
<event>
 6    1  0.1585031E-006  0.2959508E+04  0.7818608E-02  0.8255389E-01
          2   -1    0    0  501    0  0.00000000000E+00  0.00000000000E+00  0.21788091759E+04  0.21788091759E+04  0.00000000000E+00 0. -1.
         -2   -1    0    0    0  501 -0.00000000000E+00 -0.00000000000E+00 -0.10049857761E+04  0.10049857761E+04  0.00000000000E+00 0.  1.
         23    2    1    2    0    0  0.87734918067E+03 -0.86719588680E+03  0.14639808045E+04  0.19165295455E+04  0.89863296917E+02 0.  0.
         13    1    3    3    0    0  0.45066992582E+03 -0.43501218816E+03  0.81189064529E+03  0.10254293763E+04  0.00000000000E+00 0. -1.
        -13    1    3    3    0    0  0.42667925485E+03 -0.43218369864E+03  0.65209015917E+03  0.89110016922E+03  0.00000000000E+00 0.  1.
         22    1    1    2    0    0 -0.87734918067E+03  0.86719588680E+03 -0.29015740460E+03  0.12672654064E+04  0.00000000000E+00 0. -1.
<mgrwt>
<rscale>  0 0.29595082E+04</rscale>
<asrwt>0</asrwt>
<pdfrwt beam="1">  1        2 0.33520141E+00 0.29595082E+04</pdfrwt>
<pdfrwt beam="2">  1       -2 0.15461320E+00 0.29595082E+04</pdfrwt>
<totfact> 0.12598011E+00</totfact>
</mgrwt>
</event>
<event>
 6    1  0.1585031E-006  0.2273510E+04  0.7818608E-02  0.8488439E-01
          2   -1    0    0  501    0  0.00000000000E+00  0.00000000000E+00  0.13982758052E+04  0.13982758052E+04  0.00000000000E+00 0. -1.
         -2   -1    0    0    0  501 -0.00000000000E+00 -0.00000000000E+00 -0.92414688289E+03  0.92414688289E+03  0.00000000000E+00 0.  1.
         23    2    1    2    0    0 -0.25867580125E+03  0.82775865407E+03  0.98508795247E+03  0.13158559044E+04  0.94767755789E+02 0.  0.
         13    1    3    3    0    0 -0.15275340197E+03  0.38309975522E+03  0.41418318392E+03  0.58450554668E+03  0.00000000000E+00 0.  1.
        -13    1    3    3    0    0 -0.10592239928E+03  0.44465889885E+03  0.57090476856E+03  0.73135035773E+03  0.00000000000E+00 0. -1.
         22    1    1    2    0    0  0.25867580125E+03 -0.82775865407E+03 -0.51095903015E+03  0.10065667837E+04  0.00000000000E+00 0.  1.
<mgrwt>
<rscale>  0 0.22735103E+04</rscale>
<asrwt>0</asrwt>
<pdfrwt beam="1">  1        2 0.21511936E+00 0.22735103E+04</pdfrwt>
<pdfrwt beam="2">  1       -2 0.14217644E+00 0.22735103E+04</pdfrwt>
<totfact> 0.45470908E+00</totfact>
</mgrwt>
</event>
<event>
 6    1  0.1585031E-006  0.2836900E+04  0.7818608E-02  0.8291903E-01
          2   -1    0    0  501    0  0.00000000000E+00  0.00000000000E+00  0.10667727083E+04  0.10667727083E+04  0.00000000000E+00 0.  1.
         -2   -1    0    0    0  501 -0.00000000000E+00 -0.00000000000E+00 -0.18860634117E+04  0.18860634117E+04  0.00000000000E+00 0. -1.
         23    2    1    2    0    0 -0.96980825981E+03 -0.95743061738E+03 -0.61390433475E+01  0.13658839878E+04  0.91651144505E+02 0.  0.
         11    1    3    3    0    0 -0.33144165890E+03 -0.36886646050E+03 -0.34866185635E+02  0.49712341509E+03  0.00000000000E+00 0.  1.
        -11    1    3    3    0    0 -0.63836660091E+03 -0.58856415688E+03  0.28727142287E+02  0.86876057267E+03  0.00000000000E+00 0. -1.
         22    1    1    2    0    0  0.96980825981E+03  0.95743061738E+03 -0.81315165996E+03  0.15869521322E+04  0.00000000000E+00 0. -1.
<mgrwt>
<rscale>  0 0.28369004E+04</rscale>
<asrwt>0</asrwt>
<pdfrwt beam="1">  1        2 0.16411888E+00 0.28369004E+04</pdfrwt>
<pdfrwt beam="2">  1       -2 0.29016360E+00 0.28369004E+04</pdfrwt>
<totfact> 0.72356197E-01</totfact>
</mgrwt>
</event>
<event>
 6    1  0.1585031E-006  0.1250511E+04  0.7818608E-02  0.9069758E-01
          1   -1    0    0  501    0  0.00000000000E+00  0.00000000000E+00  0.12071639737E+04  0.12071639737E+04  0.00000000000E+00 0. -1.
         -1   -1    0    0    0  501 -0.00000000000E+00 -0.00000000000E+00 -0.32385348925E+03  0.32385348925E+03  0.00000000000E+00 0.  1.
         23    2    1    2    0    0 -0.55747180795E+03 -0.17619435723E+03  0.18361683325E+03  0.61921130278E+03  0.88815696004E+02 0.  0.
         11    1    3    3    0    0 -0.29359885476E+03 -0.10242380801E+03  0.14288583875E+03  0.34220941962E+03  0.00000000000E+00 0. -1.
        -11    1    3    3    0    0 -0.26387295319E+03 -0.73770549224E+02  0.40730994494E+02  0.27700188316E+03  0.00000000000E+00 0.  1.
         22    1    1    2    0    0  0.55747180795E+03  0.17619435723E+03  0.69969365118E+03  0.91180616015E+03  0.00000000000E+00 0. -1.
<mgrwt>
<rscale>  0 0.12505107E+04</rscale>
<asrwt>0</asrwt>
<pdfrwt beam="1">  1        1 0.18571753E+00 0.12505107E+04</pdfrwt>
<pdfrwt beam="2">  1       -1 0.49823614E-01 0.12505107E+04</pdfrwt>
<totfact> 0.42059856E+01</totfact>
</mgrwt>
</event>
<event>
 6    1  0.1585031E-006  0.3499438E+04  0.7818608E-02  0.8113923E-01
          1   -1    0    0  501    0  0.00000000000E+00  0.00000000000E+00  0.16494937576E+04  0.16494937576E+04  0.00000000000E+00 0. -1.
         -1   -1    0    0    0  501 -0.00000000000E+00 -0.00000000000E+00 -0.18560342141E+04  0.18560342141E+04  0.00000000000E+00 0.  1.
         23    2    1    2    0    0 -0.51874839488E+03 -0.16528267351E+04 -0.34328797593E+03  0.17678179850E+04  0.79985500289E+02 0.  0.
         11    1    3    3    0    0 -0.12095167242E+03 -0.29469825146E+03 -0.47957046147E+02  0.32214320535E+03  0.00000000000E+00 0.  1.
        -11    1    3    3    0    0 -0.39779672246E+03 -0.13581284837E+04 -0.29533092979E+03  0.14456747797E+04  0.00000000000E+00 0. -1.
         22    1    1    2    0    0  0.51874839488E+03  0.16528267351E+04  0.13674751945E+03  0.17377099866E+04  0.00000000000E+00 0. -1.
<mgrwt>
<rscale>  0 0.34994382E+04</rscale>
<asrwt>0</asrwt>
<pdfrwt beam="1">  1        1 0.25376827E+00 0.34994382E+04</pdfrwt>
<pdfrwt beam="2">  1       -1 0.28554373E+00 0.34994382E+04</pdfrwt>
<totfact> 0.17251209E-01</totfact>
</mgrwt>
</event>
<event>
 6    1  0.1585031E-006  0.3140383E+04  0.7818608E-02  0.8204742E-01
          1   -1    0    0  501    0  0.00000000000E+00  0.00000000000E+00  0.20637061493E+04  0.20637061493E+04  0.00000000000E+00 0. -1.
         -1   -1    0    0    0  501 -0.00000000000E+00 -0.00000000000E+00 -0.11946959412E+04  0.11946959412E+04  0.00000000000E+00 0.  1.
         23    2    1    2    0    0 -0.81795843131E+03  0.96699135417E+03 -0.52572571218E+03  0.13744125571E+04  0.92163323830E+02 0.  0.
         13    1    3    3    0    0 -0.32337958345E+03  0.35963768915E+03 -0.24679528528E+03  0.54297470962E+03  0.00000000000E+00 0.  1.
        -13    1    3    3    0    0 -0.49457884786E+03  0.60735366501E+03 -0.27893042690E+03  0.83143784747E+03  0.00000000000E+00 0. -1.
         22    1    1    2    0    0  0.81795843131E+03 -0.96699135417E+03  0.13947359203E+04  0.18839895333E+04  0.00000000000E+00 0. -1.
<mgrwt>
<rscale>  0 0.31403830E+04</rscale>
<asrwt>0</asrwt>
<pdfrwt beam="1">  1        1 0.31749325E+00 0.31403830E+04</pdfrwt>
<pdfrwt beam="2">  1       -1 0.18379938E+00 0.31403830E+04</pdfrwt>
<totfact> 0.44340518E-01</totfact>
</mgrwt>
</event>
<event>
 6    1  0.1585031E-006  0.1272627E+04  0.7818608E-02  0.9051558E-01
         -1   -1    0    0    0  501 -0.00000000000E+00  0.00000000000E+00  0.12860646680E+03  0.12860646680E+03  0.00000000000E+00 0.  1.
          1   -1    0    0  501    0  0.00000000000E+00 -0.00000000000E+00 -0.31483246095E+04  0.31483246095E+04  0.00000000000E+00 0. -1.
         23    2    1    2    0    0 -0.60299683978E+03 -0.12526380276E+03 -0.18939262794E+04  0.19936916097E+04  0.92483911633E+02 0.  0.
         11    1    3    3    0    0 -0.32314270876E+03 -0.75150732380E+02 -0.11637986870E+04  0.12101637190E+04  0.00000000000E+00 0. -1.
        -11    1    3    3    0    0 -0.27985413102E+03 -0.50113070377E+02 -0.73012759236E+03  0.78352789076E+03  0.00000000000E+00 0.  1.
         22    1    1    2    0    0  0.60299683978E+03  0.12526380276E+03 -0.11257918633E+04  0.12832394665E+04  0.00000000000E+00 0.  1.
<mgrwt>
<rscale>  0 0.12726271E+04</rscale>
<asrwt>0</asrwt>
<pdfrwt beam="1">  1        1 0.48435764E+00 0.12726271E+04</pdfrwt>
<pdfrwt beam="2">  1       -1 0.19785610E-01 0.12726271E+04</pdfrwt>
<totfact> 0.96518282E+00</totfact>
</mgrwt>
</event>
<event>
 6    1  0.1585031E-006  0.4905971E+03  0.7818608E-02  0.1016263E+00
          1   -1    0    0  501    0  0.00000000000E+00  0.00000000000E+00  0.22779775267E+03  0.22779775267E+03  0.00000000000E+00 0. -1.
         -1   -1    0    0    0  501 -0.00000000000E+00 -0.00000000000E+00 -0.26414381511E+03  0.26414381511E+03  0.00000000000E+00 0.  1.
         23    2    1    2    0    0  0.16226360506E+03  0.17745728144E+03 -0.40176064379E+02  0.25145199799E+03  0.61590801934E+02 0.  0.
         11    1    3    3    0    0  0.11433981857E+03  0.15785512544E+03 -0.42983766464E+02  0.19959819367E+03  0.00000000000E+00 0. -1.
        -11    1    3    3    0    0  0.47923786490E+02  0.19602155998E+02  0.28077020849E+01  0.51853804319E+02  0.00000000000E+00 0.  1.
         22    1    1    2    0    0 -0.16226360506E+03 -0.17745728144E+03  0.38300019404E+01  0.24048956979E+03  0.00000000000E+00 0. -1.
<mgrwt>
<rscale>  0 0.49059705E+03</rscale>
<asrwt>0</asrwt>
<pdfrwt beam="1">  1        1 0.35045808E-01 0.49059705E+03</pdfrwt>
<pdfrwt beam="2">  1       -1 0.40637510E-01 0.49059705E+03</pdfrwt>
<totfact> 0.74746238E+02</totfact>
</mgrwt>
</event>
<event>
 6    1  0.1775891E-006  0.2387244E+04  0.7818608E-02  0.8444295E-01
          2   -1    0    0  501    0  0.00000000000E+00  0.00000000000E+00  0.15746815053E+04  0.15746815053E+04  0.00000000000E+00 0. -1.
         -2   -1    0    0    0  501 -0.00000000000E+00 -0.00000000000E+00 -0.90477540740E+03  0.90477540740E+03  0.00000000000E+00 0.  1.
         23    2    1    2    0    0  0.11445929423E+02  0.38140247232E+03 -0.83728127829E+03  0.92471814297E+03  0.92004618191E+02 0.  0.
         13    1    3    3    0    0  0.11063473703E+02  0.29101438355E+03 -0.53394990638E+03  0.60820578294E+03  0.00000000000E+00 0.  1.
        -13    1    3    3    0    0  0.38245571985E+00  0.90388088770E+02 -0.30333137191E+03  0.31651236002E+03  0.00000000000E+00 0. -1.
         22    1    1    2    0    0 -0.11445929423E+02 -0.38140247232E+03  0.15071873762E+04  0.15547387698E+04  0.00000000000E+00 0. -1.
<mgrwt>
<rscale>  0 0.23872437E+04</rscale>
<asrwt>0</asrwt>
<pdfrwt beam="1">  1        2 0.24225869E+00 0.23872437E+04</pdfrwt>
<pdfrwt beam="2">  1       -2 0.13919622E+00 0.23872437E+04</pdfrwt>
<totfact> 0.37820537E+00</totfact>
</mgrwt>
</event>
<event>
 6    1  0.1585031E-006  0.2305884E+04  0.7818608E-02  0.8475605E-01
          2   -1    0    0  501    0  0.00000000000E+00  0.00000000000E+00  0.23217438751E+04  0.23217438751E+04  0.00000000000E+00 0.  1.
         -2   -1    0    0    0  501 -0.00000000000E+00 -0.00000000000E+00 -0.57253312608E+03  0.57253312608E+03  0.00000000000E+00 0. -1.
         23    2    1    2    0    0 -0.44619408521E+02  0.11380286945E+04  0.10839380726E+04  0.15753046985E+04  0.97790320753E+02 0.  0.
         11    1    3    3    0    0  0.30796951677E+02  0.38316842862E+03  0.35624082347E+03  0.52409352336E+03  0.00000000000E+00 0.  1.
        -11    1    3    3    0    0 -0.75416360198E+02  0.75486026588E+03  0.72769724918E+03  0.10512111752E+04  0.00000000000E+00 0. -1.
         22    1    1    2    0    0  0.44619408521E+02 -0.11380286945E+04  0.66527267635E+03  0.13189723026E+04  0.00000000000E+00 0. -1.
<mgrwt>
<rscale>  0 0.23058840E+04</rscale>
<asrwt>0</asrwt>
<pdfrwt beam="1">  1        2 0.35719136E+00 0.23058840E+04</pdfrwt>
<pdfrwt beam="2">  1       -2 0.88082020E-01 0.23058840E+04</pdfrwt>
<totfact> 0.44340024E+00</totfact>
</mgrwt>
</event>
<event>
 6    1  0.1585031E-006  0.9804542E+03  0.7818608E-02  0.9330246E-01
         -2   -1    0    0    0  501 -0.00000000000E+00  0.00000000000E+00  0.22340870281E+03  0.22340870281E+03  0.00000000000E+00 0.  1.
          2   -1    0    0  501    0  0.00000000000E+00 -0.00000000000E+00 -0.10757083972E+04  0.10757083972E+04  0.00000000000E+00 0. -1.
         23    2    1    2    0    0 -0.22434089843E+03  0.19164024158E+03  0.83664063066E+02  0.31774918930E+03  0.83126716247E+02 0.  0.
         11    1    3    3    0    0 -0.56745284204E+02  0.10138202552E+03  0.31636448072E+02  0.12041265393E+03  0.00000000000E+00 0. -1.
        -11    1    3    3    0    0 -0.16759561422E+03  0.90258216050E+02  0.52027614994E+02  0.19733653537E+03  0.00000000000E+00 0.  1.
         22    1    1    2    0    0  0.22434089843E+03 -0.19164024158E+03 -0.93596375749E+03  0.98136791074E+03  0.00000000000E+00 0. -1.
<mgrwt>
<rscale>  0 0.98045422E+03</rscale>
<asrwt>0</asrwt>
<pdfrwt beam="1">  1        2 0.16549360E+00 0.98045422E+03</pdfrwt>
<pdfrwt beam="2">  1       -2 0.34370570E-01 0.98045422E+03</pdfrwt>
<totfact> 0.17854357E+02</totfact>
</mgrwt>
</event>
<event>
 6    1  0.1585031E-006  0.1406621E+04  0.7818608E-02  0.8949040E-01
         -2   -1    0    0    0  501 -0.00000000000E+00  0.00000000000E+00  0.88989456935E+03  0.88989456935E+03  0.00000000000E+00 0.  1.
          2   -1    0    0  501    0  0.00000000000E+00 -0.00000000000E+00 -0.55584767523E+03  0.55584767523E+03  0.00000000000E+00 0. -1.
         23    2    1    2    0    0 -0.52228745614E+03 -0.17839775764E+03  0.61099240036E+03  0.82824021203E+03  0.89778553967E+02 0.  0.
         13    1    3    3    0    0 -0.70701617137E+02  0.29373183150E+01  0.10103771043E+03  0.12335301145E+03  0.00000000000E+00 0.  1.
        -13    1    3    3    0    0 -0.45158583901E+03 -0.18133507596E+03  0.50995468993E+03  0.70488720058E+03  0.00000000000E+00 0. -1.
         22    1    1    2    0    0  0.52228745614E+03  0.17839775764E+03 -0.27694550624E+03  0.61750203255E+03  0.00000000000E+00 0. -1.
<mgrwt>
<rscale>  0 0.14066212E+04</rscale>
<asrwt>0</asrwt>
<pdfrwt beam="1">  1        2 0.85515027E-01 0.14066212E+04</pdfrwt>
<pdfrwt beam="2">  1       -2 0.13690686E+00 0.14066212E+04</pdfrwt>
<totfact> 0.20115711E+01</totfact>
</mgrwt>
</event>
<event>
 6    1  0.1585031E-006  0.8273364E+03  0.7818608E-02  0.9521270E-01
          1   -1    0    0  501    0  0.00000000000E+00  0.00000000000E+00  0.13778812527E+03  0.13778812527E+03  0.00000000000E+00 0.  1.
         -1   -1    0    0    0  501 -0.00000000000E+00 -0.00000000000E+00 -0.12419168866E+04  0.12419168866E+04  0.00000000000E+00 0. -1.
         23    2    1    2    0    0 -0.39644355829E+03  0.41274129550E+02 -0.40754350440E+03  0.57714531387E+03  0.90188450847E+02 0.  0.
         13    1    3    3    0    0 -0.21516666941E+03  0.12713996776E+02 -0.28138084054E+03  0.35444818911E+03  0.00000000000E+00 0. -1.
        -13    1    3    3    0    0 -0.18127688888E+03  0.28560132774E+02 -0.12616266386E+03  0.22269712476E+03  0.00000000000E+00 0.  1.
         22    1    1    2    0    0  0.39644355829E+03 -0.41274129550E+02 -0.69658525688E+03  0.80255969796E+03  0.00000000000E+00 0. -1.
<mgrwt>
<rscale>  0 0.82733645E+03</rscale>
<asrwt>0</asrwt>
<pdfrwt beam="1">  1        1 0.21198174E-01 0.82733645E+03</pdfrwt>
<pdfrwt beam="2">  1       -1 0.19106413E+00 0.82733645E+03</pdfrwt>
<totfact> 0.42860979E+01</totfact>
</mgrwt>
</event>
<event>
 6    1  0.1687095E-006  0.1460876E+04  0.7818608E-02  0.8910895E-01
          1   -1    0    0  501    0  0.00000000000E+00  0.00000000000E+00  0.67289856430E+03  0.67289856430E+03  0.00000000000E+00 0. -1.
         -1   -1    0    0    0  501 -0.00000000000E+00 -0.00000000000E+00 -0.79289784104E+03  0.79289784104E+03  0.00000000000E+00 0.  1.
         23    2    1    2    0    0 -0.10882555610E+03  0.14339977144E+03 -0.76761617745E+03  0.79362518743E+03  0.90553001826E+02 0.  0.
         11    1    3    3    0    0 -0.22766038784E+02  0.86158964720E+02 -0.24069429959E+03  0.25666204545E+03  0.00000000000E+00 0.  1.
        -11    1    3    3    0    0 -0.86059517312E+02  0.57240806717E+02 -0.52692187786E+03  0.53696314198E+03  0.00000000000E+00 0. -1.
         22    1    1    2    0    0  0.10882555610E+03 -0.14339977144E+03  0.64761690070E+03  0.67217121791E+03  0.00000000000E+00 0. -1.
<mgrwt>
<rscale>  0 0.14608762E+04</rscale>
<asrwt>0</asrwt>
<pdfrwt beam="1">  1        1 0.10352286E+00 0.14608762E+04</pdfrwt>
<pdfrwt beam="2">  1       -1 0.12198428E+00 0.14608762E+04</pdfrwt>
<totfact> 0.16692316E+01</totfact>
</mgrwt>
</event>
<event>
 6    1  0.1585031E-006  0.1156165E+04  0.7818608E-02  0.9152114E-01
          2   -1    0    0  501    0  0.00000000000E+00  0.00000000000E+00  0.52158147265E+03  0.52158147265E+03  0.00000000000E+00 0. -1.
         -2   -1    0    0    0  501 -0.00000000000E+00 -0.00000000000E+00 -0.64070462957E+03  0.64070462957E+03  0.00000000000E+00 0.  1.
         23    2    1    2    0    0 -0.12410840702E+03 -0.23350300532E+03 -0.57245097716E+03  0.63746931248E+03  0.93490389436E+02 0.  0.
         13    1    3    3    0    0 -0.70361214215E+02 -0.74493551213E+02 -0.30459102229E+03  0.32136533805E+03  0.00000000000E+00 0. -1.
        -13    1    3    3    0    0 -0.53747192802E+02 -0.15900945411E+03 -0.26785995487E+03  0.31610397444E+03  0.00000000000E+00 0.  1.
         22    1    1    2    0    0  0.12410840702E+03  0.23350300532E+03  0.45332782024E+03  0.52481678974E+03  0.00000000000E+00 0. -1.
<mgrwt>
<rscale>  0 0.11561655E+04</rscale>
<asrwt>0</asrwt>
<pdfrwt beam="1">  1        2 0.80243303E-01 0.11561655E+04</pdfrwt>
<pdfrwt beam="2">  1       -2 0.98569943E-01 0.11561655E+04</pdfrwt>
<totfact> 0.49577215E+01</totfact>
</mgrwt>
</event>
<event>
 6    1  0.1585031E-006  0.2050473E+04  0.7818608E-02  0.8583380E-01
         -1   -1    0    0    0  501 -0.00000000000E+00  0.00000000000E+00  0.48904933623E+03  0.48904933623E+03  0.00000000000E+00 0.  1.
          1   -1    0    0  501    0  0.00000000000E+00 -0.00000000000E+00 -0.21492917251E+04  0.21492917251E+04  0.00000000000E+00 0. -1.
         23    2    1    2    0    0 -0.28989215597E+03  0.48283703567E+03 -0.19305644205E+04  0.20136466834E+04  0.10259102542E+03 0.  0.
         13    1    3    3    0    0 -0.11602096315E+03  0.11607789699E+03 -0.64353050389E+03  0.66412833963E+03  0.00000000000E+00 0. -1.
        -13    1    3    3    0    0 -0.17387119282E+03  0.36675913868E+03 -0.12870339167E+04  0.13495183437E+04  0.00000000000E+00 0.  1.
         22    1    1    2    0    0  0.28989215597E+03 -0.48283703567E+03  0.27032203163E+03  0.62469437799E+03  0.00000000000E+00 0.  1.
<mgrwt>
<rscale>  0 0.20504728E+04</rscale>
<asrwt>0</asrwt>
<pdfrwt beam="1">  1        1 0.33066027E+00 0.20504728E+04</pdfrwt>
<pdfrwt beam="2">  1       -1 0.75238358E-01 0.20504728E+04</pdfrwt>
<totfact> 0.38696216E+00</totfact>
</mgrwt>
</event>
<event>
 6    1  0.1585031E-006  0.3038493E+04  0.7818608E-02  0.8232823E-01
         -2   -1    0    0    0  501 -0.00000000000E+00  0.00000000000E+00  0.11554728924E+04  0.11554728924E+04  0.00000000000E+00 0.  1.
          2   -1    0    0  501    0  0.00000000000E+00 -0.00000000000E+00 -0.19975463638E+04  0.19975463638E+04  0.00000000000E+00 0. -1.
         23    2    1    2    0    0 -0.15046563062E+04 -0.19927996808E+03 -0.43882578211E+03  0.15825697013E+04  0.90860812081E+02 0.  0.
         11    1    3    3    0    0 -0.13120038260E+04 -0.15323582056E+03 -0.40507028377E+03  0.13816356940E+04  0.00000000000E+00 0. -1.
        -11    1    3    3    0    0 -0.19265248014E+03 -0.46044147523E+02 -0.33755498340E+02  0.20093400731E+03  0.00000000000E+00 0.  1.
         22    1    1    2    0    0  0.15046563062E+04  0.19927996808E+03 -0.40324768931E+03  0.15704495549E+04  0.00000000000E+00 0.  1.
<mgrwt>
<rscale>  0 0.30384935E+04</rscale>
<asrwt>0</asrwt>
<pdfrwt beam="1">  1        2 0.30731482E+00 0.30384935E+04</pdfrwt>
<pdfrwt beam="2">  1       -2 0.17776506E+00 0.30384935E+04</pdfrwt>
<totfact> 0.10748359E+00</totfact>
</mgrwt>
</event>
<event>
 6    1  0.1585031E-006  0.3060154E+04  0.7818608E-02  0.8226759E-01
          1   -1    0    0  501    0  0.00000000000E+00  0.00000000000E+00  0.10432668243E+04  0.10432668243E+04  0.00000000000E+00 0. -1.
         -1   -1    0    0    0  501 -0.00000000000E+00 -0.00000000000E+00 -0.22440431624E+04  0.22440431624E+04  0.00000000000E+00 0.  1.
         23    2    1    2    0    0  0.11574296007E+04  0.99840170236E+03 -0.57766719010E+03  0.16366391382E+04  0.91864281094E+02 0.  0.
         13    1    3    3    0    0  0.61276649189E+03  0.47870913144E+03 -0.26555992640E+03  0.82168563370E+03  0.00000000000E+00 0.  1.
        -13    1    3    3    0    0  0.54466310884E+03  0.51969257092E+03 -0.31210726370E+03  0.81495350447E+03  0.00000000000E+00 0. -1.
         22    1    1    2    0    0 -0.11574296007E+04 -0.99840170236E+03 -0.62310914805E+03  0.16506708486E+04  0.00000000000E+00 0. -1.
<mgrwt>
<rscale>  0 0.30601541E+04</rscale>
<asrwt>0</asrwt>
<pdfrwt beam="1">  1        1 0.16050259E+00 0.30601541E+04</pdfrwt>
<pdfrwt beam="2">  1       -1 0.34523741E+00 0.30601541E+04</pdfrwt>
<totfact> 0.19806950E-01</totfact>
</mgrwt>
</event>
<event>
 6    1  0.1585031E-006  0.5197656E+03  0.7818608E-02  0.1008745E+00
          1   -1    0    0  501    0  0.00000000000E+00  0.00000000000E+00  0.60315371243E+03  0.60315371243E+03  0.00000000000E+00 0. -1.
         -1   -1    0    0    0  501 -0.00000000000E+00 -0.00000000000E+00 -0.11197655656E+03  0.11197655656E+03  0.00000000000E+00 0.  1.
         23    2    1    2    0    0  0.46746571531E+02 -0.41947798746E+02  0.58884649047E+03  0.59900895876E+03  0.90148120135E+02 0.  0.
         13    1    3    3    0    0 -0.45599750944E+01  0.25038886966E+02  0.12956527727E+03  0.13204128258E+03  0.00000000000E+00 0. -1.
        -13    1    3    3    0    0  0.51306546625E+02 -0.66986685712E+02  0.45928121320E+03  0.46696767617E+03  0.00000000000E+00 0.  1.
         22    1    1    2    0    0 -0.46746571531E+02  0.41947798746E+02 -0.97669334603E+02  0.11612131024E+03  0.00000000000E+00 0.  1.
<mgrwt>
<rscale>  0 0.51976562E+03</rscale>
<asrwt>0</asrwt>
<pdfrwt beam="1">  1        1 0.92792877E-01 0.51976562E+03</pdfrwt>
<pdfrwt beam="2">  1       -1 0.17227163E-01 0.51976562E+03</pdfrwt>
<totfact> 0.89666898E+02</totfact>
</mgrwt>
</event>
<event>
 6    1  0.1585031E-006  0.1837732E+04  0.7818608E-02  0.8686487E-01
         -2   -1    0    0    0  501 -0.00000000000E+00  0.00000000000E+00  0.28440093990E+03  0.28440093990E+03  0.00000000000E+00 0.  1.
          2   -1    0    0  501    0  0.00000000000E+00 -0.00000000000E+00 -0.29687489729E+04  0.29687489729E+04  0.00000000000E+00 0. -1.
         23    2    1    2    0    0  0.72096203573E+03 -0.83806289404E+02 -0.23364909967E+04  0.24482808124E+04  0.89883300714E+02 0.  0.
         13    1    3    3    0    0  0.52595532720E+03 -0.50640546166E+02 -0.15630097679E+04  0.16499069688E+04  0.00000000000E+00 0.  1.
        -13    1    3    3    0    0  0.19500670853E+03 -0.33165743238E+02 -0.77348122879E+03  0.79837384363E+03  0.00000000000E+00 0. -1.
         22    1    1    2    0    0 -0.72096203573E+03  0.83806289404E+02 -0.34785703638E+03  0.80486910046E+03  0.00000000000E+00 0.  1.
<mgrwt>
<rscale>  0 0.18377323E+04</rscale>
<asrwt>0</asrwt>
<pdfrwt beam="1">  1        2 0.45673059E+00 0.18377323E+04</pdfrwt>
<pdfrwt beam="2">  1       -2 0.43753993E-01 0.18377323E+04</pdfrwt>
<totfact> 0.85196629E+00</totfact>
</mgrwt>
</event>
<event>
 6    1  0.1585031E-006  0.1793980E+04  0.7818608E-02  0.8709507E-01
         -1   -1    0    0    0  501 -0.00000000000E+00  0.00000000000E+00  0.63462327045E+03  0.63462327045E+03  0.00000000000E+00 0. -1.
          1   -1    0    0  501    0  0.00000000000E+00 -0.00000000000E+00 -0.12678247335E+04  0.12678247335E+04  0.00000000000E+00 0.  1.
         23    2    1    2    0    0 -0.12365842630E+03  0.74133939500E+03 -0.83225044365E+03  0.11249545946E+04  0.89479237391E+02 0.  0.
         11    1    3    3    0    0 -0.11240056273E+03  0.60042783678E+03 -0.62371393554E+03  0.87302150436E+03  0.00000000000E+00 0. -1.
        -11    1    3    3    0    0 -0.11257863563E+02  0.14091155823E+03 -0.20853650811E+03  0.25193309022E+03  0.00000000000E+00 0.  1.
         22    1    1    2    0    0  0.12365842630E+03 -0.74133939500E+03  0.19904898058E+03  0.77749340939E+03  0.00000000000E+00 0. -1.
<mgrwt>
<rscale>  0 0.17939800E+04</rscale>
<asrwt>0</asrwt>
<pdfrwt beam="1">  1        1 0.19504996E+00 0.17939800E+04</pdfrwt>
<pdfrwt beam="2">  1       -1 0.97634350E-01 0.17939800E+04</pdfrwt>
<totfact> 0.90664948E+00</totfact>
</mgrwt>
</event>
<event>
 6    1  0.1585031E-006  0.3418113E+04  0.7818608E-02  0.8133475E-01
         -2   -1    0    0    0  501 -0.00000000000E+00  0.00000000000E+00  0.27222456602E+04  0.27222456602E+04  0.00000000000E+00 0.  1.
          2   -1    0    0  501    0  0.00000000000E+00 -0.00000000000E+00 -0.10729647211E+04  0.10729647211E+04  0.00000000000E+00 0. -1.
         23    2    1    2    0    0  0.87434826272E+03  0.14454631911E+04  0.54668037419E+03  0.17778911882E+04  0.90492674728E+02 0.  0.
         11    1    3    3    0    0  0.39730571210E+03  0.73613630495E+03  0.29037262070E+03  0.88547430634E+03  0.00000000000E+00 0.  1.
        -11    1    3    3    0    0  0.47704255062E+03  0.70932688612E+03  0.25630775349E+03  0.89241688183E+03  0.00000000000E+00 0. -1.
         22    1    1    2    0    0 -0.87434826272E+03 -0.14454631911E+04  0.11026005649E+04  0.20173191932E+04  0.00000000000E+00 0.  1.
<mgrwt>
<rscale>  0 0.34181127E+04</rscale>
<asrwt>0</asrwt>
<pdfrwt beam="1">  1        2 0.16507150E+00 0.34181127E+04</pdfrwt>
<pdfrwt beam="2">  1       -2 0.41880702E+00 0.34181127E+04</pdfrwt>
<totfact> 0.10448029E-01</totfact>
</mgrwt>
</event>
<event>
 6    1  0.1585031E-006  0.2251735E+04  0.7818608E-02  0.8497198E-01
          1   -1    0    0  501    0  0.00000000000E+00  0.00000000000E+00  0.49732534570E+03  0.49732534570E+03  0.00000000000E+00 0. -1.
         -1   -1    0    0    0  501 -0.00000000000E+00 -0.00000000000E+00 -0.25487894030E+04  0.25487894030E+04  0.00000000000E+00 0.  1.
         23    2    1    2    0    0 -0.11049820147E+04 -0.10658681092E+03 -0.12661337562E+04  0.16863023782E+04  0.90415823683E+02 0.  0.
         11    1    3    3    0    0 -0.68583292691E+03 -0.76840791554E+02 -0.85043381963E+03  0.10952209788E+04  0.00000000000E+00 0. -1.
        -11    1    3    3    0    0 -0.41914908780E+03 -0.29746019362E+02 -0.41569993654E+03  0.59108139939E+03  0.00000000000E+00 0.  1.
         22    1    1    2    0    0  0.11049820147E+04  0.10658681092E+03 -0.78533030117E+03  0.13598123705E+04  0.00000000000E+00 0. -1.
<mgrwt>
<rscale>  0 0.22517349E+04</rscale>
<asrwt>0</asrwt>
<pdfrwt beam="1">  1        1 0.76511591E-01 0.22517349E+04</pdfrwt>
<pdfrwt beam="2">  1       -1 0.39212145E+00 0.22517349E+04</pdfrwt>
<totfact> 0.32839652E-01</totfact>
</mgrwt>
</event>
<event>
 6    1  0.1585031E-006  0.2848154E+04  0.7818608E-02  0.8288473E-01
         -1   -1    0    0    0  501 -0.00000000000E+00  0.00000000000E+00  0.73166710850E+03  0.73166710850E+03  0.00000000000E+00 0.  1.
          1   -1    0    0  501    0  0.00000000000E+00 -0.00000000000E+00 -0.27717453242E+04  0.27717453242E+04  0.00000000000E+00 0. -1.
         23    2    1    2    0    0  0.94954247463E+03  0.43229518721E+03 -0.22105389857E+04  0.24462620583E+04  0.95944831300E+02 0.  0.
         11    1    3    3    0    0  0.62820233156E+03  0.26765517123E+03 -0.13442884403E+04  0.15077761342E+04  0.00000000000E+00 0. -1.
        -11    1    3    3    0    0  0.32134014307E+03  0.16464001598E+03 -0.86625054537E+03  0.93848592412E+03  0.00000000000E+00 0.  1.
         22    1    1    2    0    0 -0.94954247463E+03 -0.43229518721E+03  0.17046076997E+03  0.10571503744E+04  0.00000000000E+00 0.  1.
<mgrwt>
<rscale>  0 0.28481537E+04</rscale>
<asrwt>0</asrwt>
<pdfrwt beam="1">  1        1 0.42642236E+00 0.28481537E+04</pdfrwt>
<pdfrwt beam="2">  1       -1 0.11256417E+00 0.28481537E+04</pdfrwt>
<totfact> 0.54345203E-01</totfact>
</mgrwt>
</event>
<event>
 6    1  0.1585031E-006  0.7760795E+03  0.7818608E-02  0.9595301E-01
         -2   -1    0    0    0  501 -0.00000000000E+00  0.00000000000E+00  0.12706416838E+03  0.12706416838E+03  0.00000000000E+00 0.  1.
          2   -1    0    0  501    0  0.00000000000E+00 -0.00000000000E+00 -0.11850299959E+04  0.11850299959E+04  0.00000000000E+00 0. -1.
         23    2    1    2    0    0  0.48784654501E+02  0.29322881046E+03 -0.12155366224E+03  0.32963255125E+03  0.74291643157E+02 0.  0.
         11    1    3    3    0    0 -0.14653693689E+02  0.13551894546E+03 -0.58338540097E+02  0.14826833977E+03  0.00000000000E+00 0. -1.
        -11    1    3    3    0    0  0.63438348190E+02  0.15770986500E+03 -0.63215122142E+02  0.18136421148E+03  0.00000000000E+00 0.  1.
         22    1    1    2    0    0 -0.48784654501E+02 -0.29322881046E+03 -0.93641216525E+03  0.98246161300E+03  0.00000000000E+00 0. -1.
<mgrwt>
<rscale>  0 0.77607951E+03</rscale>
<asrwt>0</asrwt>
<pdfrwt beam="1">  1        2 0.18231231E+00 0.77607951E+03</pdfrwt>
<pdfrwt beam="2">  1       -2 0.19548333E-01 0.77607951E+03</pdfrwt>
<totfact> 0.43238885E+02</totfact>
</mgrwt>
</event>
<event>
 6    1  0.1585031E-006  0.3937016E+04  0.7818608E-02  0.8017374E-01
          1   -1    0    0  501    0  0.00000000000E+00  0.00000000000E+00  0.44490171179E+04  0.44490171179E+04  0.00000000000E+00 0. -1.
         -1   -1    0    0    0  501 -0.00000000000E+00 -0.00000000000E+00 -0.87098429533E+03  0.87098429533E+03  0.00000000000E+00 0.  1.
         23    2    1    2    0    0  0.83169642607E+03 -0.14986492411E+04  0.48457879666E+03  0.17834598394E+04  0.90795901334E+02 0.  0.
         13    1    3    3    0    0  0.13518420806E+03 -0.18627867059E+03  0.79115246336E+02  0.24337981722E+03  0.00000000000E+00 0. -1.
        -13    1    3    3    0    0  0.69651221801E+03 -0.13123705705E+04  0.40546355032E+03  0.15400800222E+04  0.00000000000E+00 0.  1.
         22    1    1    2    0    0 -0.83169642607E+03  0.14986492411E+04  0.30934540260E+04  0.35365415739E+04  0.00000000000E+00 0. -1.
<mgrwt>
<rscale>  0 0.39370161E+04</rscale>
<asrwt>0</asrwt>
<pdfrwt beam="1">  1        1 0.68446416E+00 0.39370161E+04</pdfrwt>
<pdfrwt beam="2">  1       -1 0.13399759E+00 0.39370161E+04</pdfrwt>
<totfact> 0.13336643E-02</totfact>
</mgrwt>
</event>
<event>
 6    1  0.1585031E-006  0.8861995E+03  0.7818608E-02  0.9442999E-01
          1   -1    0    0  501    0  0.00000000000E+00  0.00000000000E+00  0.90684688400E+03  0.90684688400E+03  0.00000000000E+00 0.  1.
         -1   -1    0    0    0  501 -0.00000000000E+00 -0.00000000000E+00 -0.21650555722E+03  0.21650555722E+03  0.00000000000E+00 0. -1.
         23    2    1    2    0    0  0.17670226360E+03  0.40091267026E+03  0.36736758414E+03  0.57904857611E+03  0.91562287438E+02 0.  0.
         13    1    3    3    0    0  0.13292687400E+03  0.28829790923E+03  0.31545178761E+03  0.44754337065E+03  0.00000000000E+00 0. -1.
        -13    1    3    3    0    0  0.43775389604E+02  0.11261476102E+03  0.51915796532E+02  0.13150520547E+03  0.00000000000E+00 0.  1.
         22    1    1    2    0    0 -0.17670226360E+03 -0.40091267026E+03  0.32297374264E+03  0.54430386511E+03  0.00000000000E+00 0. -1.
<mgrwt>
<rscale>  0 0.88619950E+03</rscale>
<asrwt>0</asrwt>
<pdfrwt beam="1">  1        1 0.13951490E+00 0.88619950E+03</pdfrwt>
<pdfrwt beam="2">  1       -1 0.33308548E-01 0.88619950E+03</pdfrwt>
<totfact> 0.15335036E+02</totfact>
</mgrwt>
</event>
<event>
 6    1  0.1585031E-006  0.2114156E+04  0.7818608E-02  0.8555033E-01
         -4   -1    0    0    0  501 -0.00000000000E+00  0.00000000000E+00  0.59814326523E+03  0.59814326523E+03  0.00000000000E+00 0.  1.
          4   -1    0    0  501    0  0.00000000000E+00 -0.00000000000E+00 -0.18681370983E+04  0.18681370983E+04  0.00000000000E+00 0. -1.
         23    2    1    2    0    0  0.22304578452E+03  0.10263909344E+04 -0.75381669240E+03  0.12959527971E+04  0.89589476878E+02 0.  0.
         11    1    3    3    0    0  0.13720417430E+02  0.23942229914E+03 -0.17421043262E+03  0.29641282363E+03  0.00000000000E+00 0. -1.
        -11    1    3    3    0    0  0.20932536709E+03  0.78696863527E+03 -0.57960625978E+03  0.99953997348E+03  0.00000000000E+00 0.  1.
         22    1    1    2    0    0 -0.22304578452E+03 -0.10263909344E+04 -0.51617714069E+03  0.11703275664E+04  0.00000000000E+00 0.  1.
<mgrwt>
<rscale>  0 0.21141557E+04</rscale>
<asrwt>0</asrwt>
<pdfrwt beam="1">  1        4 0.28740570E+00 0.21141557E+04</pdfrwt>
<pdfrwt beam="2">  1       -4 0.92022043E-01 0.21141557E+04</pdfrwt>
<totfact> 0.68498202E-02</totfact>
</mgrwt>
</event>
<event>
 6    1  0.1585031E-006  0.1124203E+04  0.7818608E-02  0.9181918E-01
         -1   -1    0    0    0  501 -0.00000000000E+00  0.00000000000E+00  0.44221489811E+03  0.44221489811E+03  0.00000000000E+00 0.  1.
          1   -1    0    0  501    0  0.00000000000E+00 -0.00000000000E+00 -0.71448989295E+03  0.71448989295E+03  0.00000000000E+00 0. -1.
         23    2    1    2    0    0  0.35595386740E+03 -0.42926353661E+03 -0.10195877696E+03  0.57362850647E+03  0.87656897322E+02 0.  0.
         11    1    3    3    0    0  0.94273242973E+02 -0.79302447404E+02 -0.52314157302E+02  0.13383980559E+03  0.00000000000E+00 0.  1.
        -11    1    3    3    0    0  0.26168062443E+03 -0.34996108921E+03 -0.49644619655E+02  0.43978870088E+03  0.00000000000E+00 0. -1.
         22    1    1    2    0    0 -0.35595386740E+03  0.42926353661E+03 -0.17031621788E+03  0.58307628459E+03  0.00000000000E+00 0. -1.
<mgrwt>
<rscale>  0 0.11242030E+04</rscale>
<asrwt>0</asrwt>
<pdfrwt beam="1">  1        1 0.10992152E+00 0.11242030E+04</pdfrwt>
<pdfrwt beam="2">  1       -1 0.68033061E-01 0.11242030E+04</pdfrwt>
<totfact> 0.57478956E+01</totfact>
</mgrwt>
</event>
<event>
 6    1  0.1585031E-006  0.1591280E+04  0.7818608E-02  0.8825923E-01
          1   -1    0    0  501    0  0.00000000000E+00  0.00000000000E+00  0.61339003575E+03  0.61339003575E+03  0.00000000000E+00 0.  1.
         -1   -1    0    0    0  501 -0.00000000000E+00 -0.00000000000E+00 -0.10320399915E+04  0.10320399915E+04  0.00000000000E+00 0. -1.
         23    2    1    2    0    0  0.63794350390E+03  0.39484049504E+03 -0.47669312615E+03  0.89294086433E+03  0.85065386475E+02 0.  0.
         11    1    3    3    0    0  0.48460929082E+03  0.31046004987E+03 -0.32271955641E+03  0.65983294811E+03  0.00000000000E+00 0. -1.
        -11    1    3    3    0    0  0.15333421308E+03  0.84380445173E+02 -0.15397356974E+03  0.23310791622E+03  0.00000000000E+00 0.  1.
         22    1    1    2    0    0 -0.63794350390E+03 -0.39484049504E+03  0.58043170383E+02  0.75248916293E+03  0.00000000000E+00 0. -1.
<mgrwt>
<rscale>  0 0.15912800E+04</rscale>
<asrwt>0</asrwt>
<pdfrwt beam="1">  1        1 0.94367699E-01 0.15912800E+04</pdfrwt>
<pdfrwt beam="2">  1       -1 0.15877538E+00 0.15912800E+04</pdfrwt>
<totfact> 0.95088395E+00</totfact>
</mgrwt>
</event>
<event>
 6    1  0.1585031E-006  0.1442006E+04  0.7818608E-02  0.8923962E-01
         -2   -1    0    0    0  501 -0.00000000000E+00  0.00000000000E+00  0.14375083664E+03  0.14375083664E+03  0.00000000000E+00 0.  1.
          2   -1    0    0  501    0  0.00000000000E+00 -0.00000000000E+00 -0.36162933339E+04  0.36162933339E+04  0.00000000000E+00 0. -1.
         23    2    1    2    0    0  0.49586039641E+02  0.56261360612E+03 -0.58676557057E+03  0.81951678320E+03  0.91219943076E+02 0.  0.
         11    1    3    3    0    0  0.36106810923E+02  0.50736984038E+03 -0.56045532565E+03  0.75686064025E+03  0.00000000000E+00 0. -1.
        -11    1    3    3    0    0  0.13479228717E+02  0.55243765745E+02 -0.26310244919E+02  0.62656142941E+02  0.00000000000E+00 0.  1.
         22    1    1    2    0    0 -0.49586039641E+02 -0.56261360612E+03 -0.28857769267E+04  0.29405273874E+04  0.00000000000E+00 0. -1.
<mgrwt>
<rscale>  0 0.14420058E+04</rscale>
<asrwt>0</asrwt>
<pdfrwt beam="1">  1        2 0.55635285E+00 0.14420058E+04</pdfrwt>
<pdfrwt beam="2">  1       -2 0.22115512E-01 0.14420058E+04</pdfrwt>
<totfact> 0.11875966E+01</totfact>
</mgrwt>
</event>
<event>
 6    1  0.1585031E-006  0.1638981E+04  0.7818608E-02  0.8796952E-01
          2   -1    0    0  501    0  0.00000000000E+00  0.00000000000E+00  0.95254400534E+03  0.95254400534E+03  0.00000000000E+00 0. -1.
         -2   -1    0    0    0  501 -0.00000000000E+00 -0.00000000000E+00 -0.70502258581E+03  0.70502258581E+03  0.00000000000E+00 0.  1.
         23    2    1    2    0    0  0.70951818672E+03  0.40199745471E+03  0.17443591563E+03  0.83881174277E+03  0.90328513047E+02 0.  0.
         11    1    3    3    0    0  0.24364104475E+03  0.15678628055E+03  0.21241745457E+02  0.29050664056E+03  0.00000000000E+00 0.  1.
        -11    1    3    3    0    0  0.46587714196E+03  0.24521117416E+03  0.15319417018E+03  0.54830510221E+03  0.00000000000E+00 0. -1.
         22    1    1    2    0    0 -0.70951818672E+03 -0.40199745471E+03  0.73085503899E+02  0.81875484838E+03  0.00000000000E+00 0. -1.
<mgrwt>
<rscale>  0 0.16389814E+04</rscale>
<asrwt>0</asrwt>
<pdfrwt beam="1">  1        2 0.14654523E+00 0.16389814E+04</pdfrwt>
<pdfrwt beam="2">  1       -2 0.10846501E+00 0.16389814E+04</pdfrwt>
<totfact> 0.17578892E+01</totfact>
</mgrwt>
</event>
<event>
 6    1  0.1585031E-006  0.2881103E+04  0.7818608E-02  0.8278522E-01
         -2   -1    0    0    0  501 -0.00000000000E+00  0.00000000000E+00  0.22122083710E+04  0.22122083710E+04  0.00000000000E+00 0.  1.
          2   -1    0    0  501    0  0.00000000000E+00 -0.00000000000E+00 -0.93806199542E+03  0.93806199542E+03  0.00000000000E+00 0. -1.
         23    2    1    2    0    0 -0.76145166591E+03  0.83956165255E+03  0.16074180644E+04  0.19688549329E+04  0.89019687674E+02 0.  0.
         11    1    3    3    0    0 -0.25829194017E+03  0.22991683445E+03  0.45868259432E+03  0.57442684430E+03  0.00000000000E+00 0. -1.
        -11    1    3    3    0    0 -0.50315972574E+03  0.60964481810E+03  0.11487354701E+04  0.13944280886E+04  0.00000000000E+00 0.  1.
         22    1    1    2    0    0  0.76145166591E+03 -0.83956165255E+03 -0.33327168890E+03  0.11814154335E+04  0.00000000000E+00 0. -1.
<mgrwt>
<rscale>  0 0.28811030E+04</rscale>
<asrwt>0</asrwt>
<pdfrwt beam="1">  1        2 0.14431723E+00 0.28811030E+04</pdfrwt>
<pdfrwt beam="2">  1       -2 0.34033975E+00 0.28811030E+04</pdfrwt>
<totfact> 0.42757982E-01</totfact>
</mgrwt>
</event>
<event>
 6    1  0.1948253E-006  0.4213319E+04  0.7818608E-02  0.7962844E-01
          2   -1    0    0  501    0  0.00000000000E+00  0.00000000000E+00  0.23256725299E+04  0.23256725299E+04  0.00000000000E+00 0. -1.
         -2   -1    0    0    0  501 -0.00000000000E+00 -0.00000000000E+00 -0.19082712626E+04  0.19082712626E+04  0.00000000000E+00 0.  1.
         23    2    1    2    0    0 -0.10296997577E+04 -0.11675539127E+04 -0.12160195064E+04  0.19775025338E+04  0.91373414938E+02 0.  0.
         11    1    3    3    0    0 -0.62485319604E+03 -0.65257706995E+03 -0.73753309667E+03  0.11662990258E+04  0.00000000000E+00 0. -1.
        -11    1    3    3    0    0 -0.40484656166E+03 -0.51497684277E+03 -0.47848640974E+03  0.81120350799E+03  0.00000000000E+00 0.  1.
         22    1    1    2    0    0  0.10296997577E+04  0.11675539127E+04  0.16334207738E+04  0.22564412588E+04  0.00000000000E+00 0. -1.
<mgrwt>
<rscale>  0 0.42133189E+04</rscale>
<asrwt>0</asrwt>
<pdfrwt beam="1">  1        2 0.35779578E+00 0.42133189E+04</pdfrwt>
<pdfrwt beam="2">  1       -2 0.29358019E+00 0.42133189E+04</pdfrwt>
<totfact> 0.11827458E-01</totfact>
</mgrwt>
</event>
<event>
 6    1  0.1585031E-006  0.9714387E+03  0.7818608E-02  0.9340437E-01
          2   -1    0    0  501    0  0.00000000000E+00  0.00000000000E+00  0.35709804464E+03  0.35709804464E+03  0.00000000000E+00 0. -1.
         -2   -1    0    0    0  501 -0.00000000000E+00 -0.00000000000E+00 -0.66066813750E+03  0.66066813750E+03  0.00000000000E+00 0.  1.
         23    2    1    2    0    0  0.43693504615E+03 -0.28706381670E+02  0.55146057723E+02  0.45171532966E+03  0.96277517998E+02 0.  0.
         13    1    3    3    0    0  0.13566864934E+03  0.93211784607E+00 -0.26371179234E+02  0.13821103556E+03  0.00000000000E+00 0. -1.
        -13    1    3    3    0    0  0.30126639681E+03 -0.29638499516E+02  0.81517236957E+02  0.31350429410E+03  0.00000000000E+00 0.  1.
         22    1    1    2    0    0 -0.43693504615E+03  0.28706381670E+02 -0.35871615058E+03  0.56605085248E+03  0.00000000000E+00 0.  1.
<mgrwt>
<rscale>  0 0.97143873E+03</rscale>
<asrwt>0</asrwt>
<pdfrwt beam="1">  1        2 0.54938161E-01 0.97143873E+03</pdfrwt>
<pdfrwt beam="2">  1       -2 0.10164125E+00 0.97143873E+03</pdfrwt>
<totfact> 0.71795901E+01</totfact>
</mgrwt>
</event>
<event>
 6    1  0.1585031E-006  0.2771979E+04  0.7818608E-02  0.8312021E-01
         -1   -1    0    0    0  501 -0.00000000000E+00  0.00000000000E+00  0.10613921874E+04  0.10613921874E+04  0.00000000000E+00 0.  1.
          1   -1    0    0  501    0  0.00000000000E+00 -0.00000000000E+00 -0.18098560679E+04  0.18098560679E+04  0.00000000000E+00 0. -1.
         23    2    1    2    0    0 -0.49164124566E+03 -0.52385951978E+03 -0.16005088396E+04  0.17567436464E+04  0.91541153286E+02 0.  0.
         11    1    3    3    0    0 -0.78635350939E+02 -0.12001999334E+03 -0.38776893458E+03  0.41346470689E+03  0.00000000000E+00 0. -1.
        -11    1    3    3    0    0 -0.41300589472E+03 -0.40383952645E+03 -0.12127399050E+04  0.13432789395E+04  0.00000000000E+00 0.  1.
         22    1    1    2    0    0  0.49164124566E+03  0.52385951978E+03  0.85204495905E+03  0.11145046088E+04  0.00000000000E+00 0.  1.
<mgrwt>
<rscale>  0 0.27719791E+04</rscale>
<asrwt>0</asrwt>
<pdfrwt beam="1">  1        1 0.27843939E+00 0.27719791E+04</pdfrwt>
<pdfrwt beam="2">  1       -1 0.16329111E+00 0.27719791E+04</pdfrwt>
<totfact> 0.96083040E-01</totfact>
</mgrwt>
</event>
<event>
 6    1  0.1585031E-006  0.2032205E+04  0.7818608E-02  0.8591710E-01
          2   -1    0    0  501    0  0.00000000000E+00  0.00000000000E+00  0.11887975506E+04  0.11887975506E+04  0.00000000000E+00 0.  1.
         -2   -1    0    0    0  501 -0.00000000000E+00 -0.00000000000E+00 -0.86849431673E+03  0.86849431673E+03  0.00000000000E+00 0. -1.
         23    2    1    2    0    0 -0.45199828893E+03  0.31724937860E+03 -0.70032368328E+03  0.89684844974E+03  0.94521209405E+02 0.  0.
         11    1    3    3    0    0 -0.10880918960E+03  0.97500873205E+02 -0.24957915252E+03  0.28919822508E+03  0.00000000000E+00 0. -1.
        -11    1    3    3    0    0 -0.34318909934E+03  0.21974850539E+03 -0.45074453076E+03  0.60765022467E+03  0.00000000000E+00 0.  1.
         22    1    1    2    0    0  0.45199828893E+03 -0.31724937860E+03  0.10206269172E+04  0.11604434176E+04  0.00000000000E+00 0.  1.
<mgrwt>
<rscale>  0 0.20322046E+04</rscale>
<asrwt>0</asrwt>
<pdfrwt beam="1">  1        2 0.18289193E+00 0.20322046E+04</pdfrwt>
<pdfrwt beam="2">  1       -2 0.13361451E+00 0.20322046E+04</pdfrwt>
<totfact> 0.72208270E+00</totfact>
</mgrwt>
</event>
<event>
 6    1  0.1585031E-006  0.2230498E+04  0.7818608E-02  0.8505840E-01
         -2   -1    0    0    0  501 -0.00000000000E+00  0.00000000000E+00  0.16417278856E+04  0.16417278856E+04  0.00000000000E+00 0.  1.
          2   -1    0    0  501    0  0.00000000000E+00 -0.00000000000E+00 -0.75760473037E+03  0.75760473037E+03  0.00000000000E+00 0. -1.
         23    2    1    2    0    0 -0.80122058444E+03  0.74568466373E+03  0.22338974385E+03  0.11208300999E+04  0.91417134983E+02 0.  0.
         13    1    3    3    0    0 -0.27115367388E+03  0.20369275608E+03  0.92281089354E+02  0.35146956225E+03  0.00000000000E+00 0. -1.
        -13    1    3    3    0    0 -0.53006691056E+03  0.54199190765E+03  0.13110865449E+03  0.76936053766E+03  0.00000000000E+00 0.  1.
         22    1    1    2    0    0  0.80122058444E+03 -0.74568466373E+03  0.66073341139E+03  0.12785025161E+04  0.00000000000E+00 0.  1.
<mgrwt>
<rscale>  0 0.22304984E+04</rscale>
<asrwt>0</asrwt>
<pdfrwt beam="1">  1        2 0.11655457E+00 0.22304984E+04</pdfrwt>
<pdfrwt beam="2">  1       -2 0.25257352E+00 0.22304984E+04</pdfrwt>
<totfact> 0.20905209E+00</totfact>
</mgrwt>
</event>
<event>
 6    1  0.1585031E-006  0.1818396E+04  0.7818608E-02  0.8696577E-01
         -1   -1    0    0    0  501 -0.00000000000E+00  0.00000000000E+00  0.44012583585E+03  0.44012583585E+03  0.00000000000E+00 0.  1.
          1   -1    0    0  501    0  0.00000000000E+00 -0.00000000000E+00 -0.18781921786E+04  0.18781921786E+04  0.00000000000E+00 0. -1.
         23    2    1    2    0    0 -0.46748651876E+03  0.51914837786E+03 -0.14581244112E+04  0.16194181579E+04  0.91267125062E+02 0.  0.
         11    1    3    3    0    0 -0.21362820169E+03  0.17474699587E+03 -0.53679297969E+03  0.60358945001E+03  0.00000000000E+00 0. -1.
        -11    1    3    3    0    0 -0.25385831707E+03  0.34440138199E+03 -0.92133143149E+03  0.10158287079E+04  0.00000000000E+00 0.  1.
         22    1    1    2    0    0  0.46748651876E+03 -0.51914837786E+03  0.20058068389E+02  0.69889985661E+03  0.00000000000E+00 0.  1.
<mgrwt>
<rscale>  0 0.18183959E+04</rscale>
<asrwt>0</asrwt>
<pdfrwt beam="1">  1        1 0.28895264E+00 0.18183959E+04</pdfrwt>
<pdfrwt beam="2">  1       -1 0.67711668E-01 0.18183959E+04</pdfrwt>
<totfact> 0.75010676E+00</totfact>
</mgrwt>
</event>
<event>
 6    1  0.1585031E-006  0.2650917E+04  0.7818608E-02  0.8351109E-01
          2   -1    0    0  501    0  0.00000000000E+00  0.00000000000E+00  0.23430763446E+04  0.23430763446E+04  0.00000000000E+00 0. -1.
         -2   -1    0    0    0  501 -0.00000000000E+00 -0.00000000000E+00 -0.74980079049E+03  0.74980079049E+03  0.00000000000E+00 0.  1.
         23    2    1    2    0    0  0.53245473779E+03 -0.11807274041E+04  0.47794333826E+03  0.13836108591E+04  0.91235541893E+02 0.  0.
         13    1    3    3    0    0  0.36860136749E+03 -0.71174014654E+03  0.28552723255E+03  0.85086238890E+03  0.00000000000E+00 0. -1.
        -13    1    3    3    0    0  0.16385337030E+03 -0.46898725759E+03  0.19241610571E+03  0.53274847018E+03  0.00000000000E+00 0.  1.
         22    1    1    2    0    0 -0.53245473779E+03  0.11807274041E+04  0.11153322159E+04  0.17092662760E+04  0.00000000000E+00 0.  1.
<mgrwt>
<rscale>  0 0.26509172E+04</rscale>
<asrwt>0</asrwt>
<pdfrwt beam="1">  1        2 0.36047328E+00 0.26509172E+04</pdfrwt>
<pdfrwt beam="2">  1       -2 0.11535397E+00 0.26509172E+04</pdfrwt>
<totfact> 0.22084993E+00</totfact>
</mgrwt>
</event>
<event>
 6    1  0.1585031E-006  0.1855956E+04  0.7818608E-02  0.8677096E-01
          2   -1    0    0  501    0  0.00000000000E+00  0.00000000000E+00  0.11173887161E+04  0.11173887161E+04  0.00000000000E+00 0. -1.
         -2   -1    0    0    0  501 -0.00000000000E+00 -0.00000000000E+00 -0.77067497184E+03  0.77067497184E+03  0.00000000000E+00 0.  1.
         23    2    1    2    0    0  0.17841850041E+03 -0.22717020429E+03  0.10686792222E+04  0.11104560655E+04  0.87166108544E+02 0.  0.
         13    1    3    3    0    0  0.93360099277E+02 -0.16628389569E+03  0.57437808614E+03  0.60520792125E+03  0.00000000000E+00 0. -1.
        -13    1    3    3    0    0  0.85058401129E+02 -0.60886308594E+02  0.49430113606E+03  0.50524814427E+03  0.00000000000E+00 0.  1.
         22    1    1    2    0    0 -0.17841850041E+03  0.22717020429E+03 -0.72196547798E+03  0.77760762239E+03  0.00000000000E+00 0.  1.
<mgrwt>
<rscale>  0 0.18559564E+04</rscale>
<asrwt>0</asrwt>
<pdfrwt beam="1">  1        2 0.17190596E+00 0.18559564E+04</pdfrwt>
<pdfrwt beam="2">  1       -2 0.11856538E+00 0.18559564E+04</pdfrwt>
<totfact> 0.10931055E+01</totfact>
</mgrwt>
</event>
<event>
 6    1  0.1585031E-006  0.1960521E+04  0.7818608E-02  0.8625304E-01
          2   -1    0    0  501    0  0.00000000000E+00  0.00000000000E+00  0.94856291019E+03  0.94856291019E+03  0.00000000000E+00 0. -1.
         -2   -1    0    0    0  501 -0.00000000000E+00 -0.00000000000E+00 -0.10130169092E+04  0.10130169092E+04  0.00000000000E+00 0.  1.
         23    2    1    2    0    0  0.21361981716E+03  0.37181829944E+03  0.84729834526E+03  0.95402108097E+03  0.91430098766E+02 0.  0.
         13    1    3    3    0    0  0.15763267432E+03  0.18320259701E+03  0.46254288189E+03  0.52187850037E+03  0.00000000000E+00 0.  1.
        -13    1    3    3    0    0  0.55987142844E+02  0.18861570243E+03  0.38475546337E+03  0.43214258060E+03  0.00000000000E+00 0. -1.
         22    1    1    2    0    0 -0.21361981716E+03 -0.37181829944E+03 -0.91175234428E+03  0.10075587384E+04  0.00000000000E+00 0.  1.
<mgrwt>
<rscale>  0 0.19605206E+04</rscale>
<asrwt>0</asrwt>
<pdfrwt beam="1">  1        2 0.14593276E+00 0.19605206E+04</pdfrwt>
<pdfrwt beam="2">  1       -2 0.15584875E+00 0.19605206E+04</pdfrwt>
<totfact> 0.68587233E+00</totfact>
</mgrwt>
</event>
<event>
 6    1  0.1585031E-006  0.2794552E+04  0.7818608E-02  0.8304962E-01
          1   -1    0    0  501    0  0.00000000000E+00  0.00000000000E+00  0.22578365912E+04  0.22578365912E+04  0.00000000000E+00 0. -1.
         -1   -1    0    0    0  501 -0.00000000000E+00 -0.00000000000E+00 -0.86471298956E+03  0.86471298956E+03  0.00000000000E+00 0.  1.
         23    2    1    2    0    0  0.78134992832E+03  0.96907771819E+03  0.14027524600E+04  0.18776752702E+04  0.91272240277E+02 0.  0.
         13    1    3    3    0    0  0.38623064639E+03  0.49135857092E+03  0.77185670428E+03  0.99316168340E+03  0.00000000000E+00 0. -1.
        -13    1    3    3    0    0  0.39511928193E+03  0.47771914727E+03  0.63089575569E+03  0.88451358676E+03  0.00000000000E+00 0.  1.
         22    1    1    2    0    0 -0.78134992832E+03 -0.96907771819E+03 -0.96288582899E+01  0.12448743106E+04  0.00000000000E+00 0.  1.
<mgrwt>
<rscale>  0 0.27945523E+04</rscale>
<asrwt>0</asrwt>
<pdfrwt beam="1">  1        1 0.34735947E+00 0.27945523E+04</pdfrwt>
<pdfrwt beam="2">  1       -1 0.13303277E+00 0.27945523E+04</pdfrwt>
<totfact> 0.82376026E-01</totfact>
</mgrwt>
</event>
<event>
 6    1  0.1585031E-006  0.7492068E+03  0.7818608E-02  0.9636596E-01
         -1   -1    0    0    0  501 -0.00000000000E+00  0.00000000000E+00  0.20775422776E+04  0.20775422776E+04  0.00000000000E+00 0.  1.
          1   -1    0    0  501    0  0.00000000000E+00 -0.00000000000E+00 -0.67545047274E+02  0.67545047274E+02  0.00000000000E+00 0. -1.
         23    2    1    2    0    0 -0.26390606634E+03 -0.10032884277E+03  0.34029652804E+03  0.45168461915E+03  0.92222446502E+02 0.  0.
         13    1    3    3    0    0 -0.35162347606E+02 -0.44830775573E+02  0.37695321263E+02  0.68316369728E+02  0.00000000000E+00 0.  1.
        -13    1    3    3    0    0 -0.22874371873E+03 -0.55498067196E+02  0.30260120678E+03  0.38336824942E+03  0.00000000000E+00 0. -1.
         22    1    1    2    0    0  0.26390606634E+03  0.10032884277E+03  0.16697007023E+04  0.16934027057E+04  0.00000000000E+00 0.  1.
<mgrwt>
<rscale>  0 0.74920676E+03</rscale>
<asrwt>0</asrwt>
<pdfrwt beam="1">  1        1 0.10391547E-01 0.74920676E+03</pdfrwt>
<pdfrwt beam="2">  1       -1 0.31962184E+00 0.74920676E+03</pdfrwt>
<totfact> 0.16392123E+01</totfact>
</mgrwt>
</event>
<event>
 6    1  0.1817943E-006  0.4150377E+04  0.7818608E-02  0.7974879E-01
          3   -1    0    0  501    0  0.00000000000E+00  0.00000000000E+00  0.24269601766E+04  0.24269601766E+04  0.00000000000E+00 0. -1.
         -3   -1    0    0    0  501 -0.00000000000E+00 -0.00000000000E+00 -0.17744034511E+04  0.17744034511E+04  0.00000000000E+00 0.  1.
         23    2    1    2    0    0 -0.16634916794E+04  0.12291799199E+04  0.48460839820E+03  0.21262023126E+04  0.88335335917E+02 0.  0.
         13    1    3    3    0    0 -0.76709783856E+03  0.61493792647E+03  0.25193826184E+03  0.10149190288E+04  0.00000000000E+00 0.  1.
        -13    1    3    3    0    0 -0.89639384086E+03  0.61424199338E+03  0.23267013636E+03  0.11112832837E+04  0.00000000000E+00 0. -1.
         22    1    1    2    0    0  0.16634916794E+04 -0.12291799199E+04  0.16794832736E+03  0.20751613151E+04  0.00000000000E+00 0.  1.
<mgrwt>
<rscale>  0 0.41503766E+04</rscale>
<asrwt>0</asrwt>
<pdfrwt beam="1">  1        3 0.37337849E+00 0.41503766E+04</pdfrwt>
<pdfrwt beam="2">  1       -3 0.27298514E+00 0.41503766E+04</pdfrwt>
<totfact> 0.16692982E-03</totfact>
</mgrwt>
</event>
<event>
 6    1  0.1585031E-006  0.4998963E+04  0.7818608E-02  0.7828667E-01
         -1   -1    0    0    0  501 -0.00000000000E+00  0.00000000000E+00  0.38079514408E+04  0.38079514408E+04  0.00000000000E+00 0.  1.
          1   -1    0    0  501    0  0.00000000000E+00 -0.00000000000E+00 -0.16406214925E+04  0.16406214925E+04  0.00000000000E+00 0. -1.
         23    2    1    2    0    0  0.12864416779E+04  0.48299745133E+03  0.33585968508E+04  0.36299647947E+04  0.90845342685E+02 0.  0.
         13    1    3    3    0    0  0.80660064198E+03  0.27946135251E+03  0.19831410439E+04  0.21590626770E+04  0.00000000000E+00 0. -1.
        -13    1    3    3    0    0  0.47984103587E+03  0.20353609882E+03  0.13754558069E+04  0.14709021178E+04  0.00000000000E+00 0.  1.
         22    1    1    2    0    0 -0.12864416779E+04 -0.48299745133E+03 -0.11912669026E+04  0.18186081386E+04  0.00000000000E+00 0. -1.
<mgrwt>
<rscale>  0 0.49989627E+04</rscale>
<asrwt>0</asrwt>
<pdfrwt beam="1">  1        1 0.25240331E+00 0.49989627E+04</pdfrwt>
<pdfrwt beam="2">  1       -1 0.58583868E+00 0.49989627E+04</pdfrwt>
<totfact> 0.19273212E-03</totfact>
</mgrwt>
</event>
<event>
 6    1  0.1585031E-006  0.1449809E+04  0.7818608E-02  0.8918533E-01
          2   -1    0    0  501    0  0.00000000000E+00  0.00000000000E+00  0.83046679089E+03  0.83046679089E+03  0.00000000000E+00 0. -1.
         -2   -1    0    0    0  501 -0.00000000000E+00 -0.00000000000E+00 -0.63276030788E+03  0.63276030788E+03  0.00000000000E+00 0.  1.
         23    2    1    2    0    0  0.62040760275E+03 -0.50736038376E+02  0.46859435735E+03  0.78436041112E+03  0.90337387957E+02 0.  0.
         11    1    3    3    0    0  0.22392556937E+03  0.21726530846E+02  0.18898418742E+03  0.29381920607E+03  0.00000000000E+00 0.  1.
        -11    1    3    3    0    0  0.39648203337E+03 -0.72462569223E+02  0.27961016993E+03  0.49054120505E+03  0.00000000000E+00 0. -1.
         22    1    1    2    0    0 -0.62040760275E+03  0.50736038376E+02 -0.27088787433E+03  0.67886668765E+03  0.00000000000E+00 0.  1.
<mgrwt>
<rscale>  0 0.14498088E+04</rscale>
<asrwt>0</asrwt>
<pdfrwt beam="1">  1        2 0.12776412E+00 0.14498088E+04</pdfrwt>
<pdfrwt beam="2">  1       -2 0.97347740E-01 0.14498088E+04</pdfrwt>
<totfact> 0.27968127E+01</totfact>
</mgrwt>
</event>
<event>
 6    1  0.1585031E-006  0.3903546E+04  0.7818608E-02  0.8024292E-01
          1   -1    0    0  501    0  0.00000000000E+00  0.00000000000E+00  0.17588063907E+04  0.17588063907E+04  0.00000000000E+00 0. -1.
         -1   -1    0    0    0  501 -0.00000000000E+00 -0.00000000000E+00 -0.21659111592E+04  0.21659111592E+04  0.00000000000E+00 0.  1.
         23    2    1    2    0    0  0.33483092901E+03  0.47311096710E+03  0.16690020909E+04  0.17692209876E+04  0.92893408874E+02 0.  0.
         11    1    3    3    0    0  0.11954294874E+03  0.10131299347E+03  0.48447151345E+03  0.50918315622E+03  0.00000000000E+00 0. -1.
        -11    1    3    3    0    0  0.21528798027E+03  0.37179797363E+03  0.11845305775E+04  0.12600378314E+04  0.00000000000E+00 0.  1.
         22    1    1    2    0    0 -0.33483092901E+03 -0.47311096710E+03 -0.20761068594E+04  0.21554965622E+04  0.00000000000E+00 0.  1.
<mgrwt>
<rscale>  0 0.39035463E+04</rscale>
<asrwt>0</asrwt>
<pdfrwt beam="1">  1        1 0.27058560E+00 0.39035463E+04</pdfrwt>
<pdfrwt beam="2">  1       -1 0.33321710E+00 0.39035463E+04</pdfrwt>
<totfact> 0.68722185E-02</totfact>
</mgrwt>
</event>
<event>
 6    1  0.1585031E-006  0.4536070E+04  0.7818608E-02  0.7904352E-01
         -1   -1    0    0    0  501 -0.00000000000E+00  0.00000000000E+00  0.14999665698E+04  0.14999665698E+04  0.00000000000E+00 0.  1.
          1   -1    0    0  501    0  0.00000000000E+00 -0.00000000000E+00 -0.34293975420E+04  0.34293975420E+04  0.00000000000E+00 0. -1.
         23    2    1    2    0    0 -0.82965574546E+03 -0.68351493606E+02 -0.32567006859E+04  0.33626332876E+04  0.90568684386E+02 0.  0.
         13    1    3    3    0    0 -0.56880712030E+03 -0.66192485496E+02 -0.20818843643E+04  0.21592048285E+04  0.00000000000E+00 0. -1.
        -13    1    3    3    0    0 -0.26084862516E+03 -0.21590081102E+01 -0.11748163216E+04  0.12034284591E+04  0.00000000000E+00 0.  1.
         22    1    1    2    0    0  0.82965574546E+03  0.68351493606E+02  0.13272697137E+04  0.15667308242E+04  0.00000000000E+00 0.  1.
<mgrwt>
<rscale>  0 0.45360695E+04</rscale>
<asrwt>0</asrwt>
<pdfrwt beam="1">  1        1 0.52759962E+00 0.45360695E+04</pdfrwt>
<pdfrwt beam="2">  1       -1 0.23076409E+00 0.45360695E+04</pdfrwt>
<totfact> 0.19820026E-02</totfact>
</mgrwt>
</event>
<event>
 6    1  0.1585031E-006  0.1002083E+04  0.7818608E-02  0.9306263E-01
          2   -1    0    0  501    0  0.00000000000E+00  0.00000000000E+00  0.19805925807E+04  0.19805925807E+04  0.00000000000E+00 0. -1.
         -2   -1    0    0    0  501 -0.00000000000E+00 -0.00000000000E+00 -0.12675124374E+03  0.12675124374E+03  0.00000000000E+00 0.  1.
         23    2    1    2    0    0 -0.12487566164E+03 -0.45375326281E+03  0.59836371236E+03  0.76655673462E+03  0.89911849778E+02 0.  0.
         13    1    3    3    0    0 -0.51911361236E+01 -0.81342216785E+02  0.15628008417E+03  0.17625824472E+03  0.00000000000E+00 0.  1.
        -13    1    3    3    0    0 -0.11968452552E+03 -0.37241104603E+03  0.44208362819E+03  0.59029848989E+03  0.00000000000E+00 0. -1.
         22    1    1    2    0    0  0.12487566164E+03  0.45375326281E+03  0.12554776246E+04  0.13407870898E+04  0.00000000000E+00 0. -1.
<mgrwt>
<rscale>  0 0.10020830E+04</rscale>
<asrwt>0</asrwt>
<pdfrwt beam="1">  1        2 0.30470653E+00 0.10020830E+04</pdfrwt>
<pdfrwt beam="2">  1       -2 0.19500193E-01 0.10020830E+04</pdfrwt>
<totfact> 0.15331705E+02</totfact>
</mgrwt>
</event>
<event>
 6    1  0.1585031E-006  0.2556310E+04  0.7818608E-02  0.8383195E-01
          1   -1    0    0  501    0  0.00000000000E+00  0.00000000000E+00  0.18629267603E+04  0.18629267603E+04  0.00000000000E+00 0. -1.
         -1   -1    0    0    0  501 -0.00000000000E+00 -0.00000000000E+00 -0.87694246548E+03  0.87694246548E+03  0.00000000000E+00 0.  1.
         23    2    1    2    0    0 -0.99684236418E+03  0.43704361637E+03  0.12084295230E+04  0.16289310181E+04  0.91719834471E+02 0.  0.
         11    1    3    3    0    0 -0.68605145488E+03  0.30356809665E+03  0.89452468920E+03  0.11674736004E+04  0.00000000000E+00 0. -1.
        -11    1    3    3    0    0 -0.31079090929E+03  0.13347551972E+03  0.31390483384E+03  0.46145741772E+03  0.00000000000E+00 0.  1.
         22    1    1    2    0    0  0.99684236418E+03 -0.43704361637E+03 -0.22244522822E+03  0.11109382076E+04  0.00000000000E+00 0.  1.
<mgrwt>
<rscale>  0 0.25563095E+04</rscale>
<asrwt>0</asrwt>
<pdfrwt beam="1">  1        1 0.28660412E+00 0.25563095E+04</pdfrwt>
<pdfrwt beam="2">  1       -1 0.13491423E+00 0.25563095E+04</pdfrwt>
<totfact> 0.15058697E+00</totfact>
</mgrwt>
</event>
<event>
 6    1  0.1585031E-006  0.1521367E+04  0.7818608E-02  0.8870367E-01
          1   -1    0    0  501    0  0.00000000000E+00  0.00000000000E+00  0.16640084107E+04  0.16640084107E+04  0.00000000000E+00 0. -1.
         -1   -1    0    0    0  501 -0.00000000000E+00 -0.00000000000E+00 -0.34773821203E+03  0.34773821203E+03  0.00000000000E+00 0.  1.
         23    2    1    2    0    0 -0.64292778830E+03  0.25583464700E+03  0.25152321877E+03  0.74190661755E+03  0.91400175148E+02 0.  0.
         13    1    3    3    0    0 -0.23583291304E+03  0.14161683514E+03  0.94052065306E+02  0.29072028112E+03  0.00000000000E+00 0. -1.
        -13    1    3    3    0    0 -0.40709487526E+03  0.11421781186E+03  0.15747115347E+03  0.45118633643E+03  0.00000000000E+00 0.  1.
         22    1    1    2    0    0  0.64292778830E+03 -0.25583464700E+03  0.10647469799E+04  0.12698400052E+04  0.00000000000E+00 0. -1.
<mgrwt>
<rscale>  0 0.15213669E+04</rscale>
<asrwt>0</asrwt>
<pdfrwt beam="1">  1        1 0.25600129E+00 0.15213669E+04</pdfrwt>
<pdfrwt beam="2">  1       -1 0.53498187E-01 0.15213669E+04</pdfrwt>
<totfact> 0.17170461E+01</totfact>
</mgrwt>
</event>
<event>
 6    1  0.1585031E-006  0.2141978E+04  0.7818608E-02  0.8542974E-01
          1   -1    0    0  501    0  0.00000000000E+00  0.00000000000E+00  0.10115218791E+04  0.10115218791E+04  0.00000000000E+00 0. -1.
         -1   -1    0    0    0  501 -0.00000000000E+00 -0.00000000000E+00 -0.11339519354E+04  0.11339519354E+04  0.00000000000E+00 0.  1.
         23    2    1    2    0    0  0.15118855344E+03 -0.19333946071E+03 -0.11035220315E+04  0.11341481551E+04  0.91066118881E+02 0.  0.
         11    1    3    3    0    0  0.83203685523E+02 -0.12544516095E+03 -0.47377685220E+03  0.49711552719E+03  0.00000000000E+00 0.  1.
        -11    1    3    3    0    0  0.67984867915E+02 -0.67894299757E+02 -0.62974517925E+03  0.63703262789E+03  0.00000000000E+00 0. -1.
         22    1    1    2    0    0 -0.15118855344E+03  0.19333946071E+03  0.98109197511E+03  0.10113256594E+04  0.00000000000E+00 0. -1.
<mgrwt>
<rscale>  0 0.21419778E+04</rscale>
<asrwt>0</asrwt>
<pdfrwt beam="1">  1        1 0.15561875E+00 0.21419778E+04</pdfrwt>
<pdfrwt beam="2">  1       -1 0.17445414E+00 0.21419778E+04</pdfrwt>
<totfact> 0.31001379E+00</totfact>
</mgrwt>
</event>
<event>
 6    1  0.1585031E-006  0.4763016E+03  0.7818608E-02  0.1020157E+00
         -2   -1    0    0    0  501 -0.00000000000E+00  0.00000000000E+00  0.41873415268E+02  0.41873415268E+02  0.00000000000E+00 0.  1.
          2   -1    0    0  501    0  0.00000000000E+00 -0.00000000000E+00 -0.13544585501E+04  0.13544585501E+04  0.00000000000E+00 0. -1.
         23    2    1    2    0    0  0.12928452114E+03  0.15943907758E+03 -0.38022053330E+03  0.44163879107E+03  0.91333788745E+02 0.  0.
         11    1    3    3    0    0  0.43219435928E+02  0.95744155079E+02 -0.26126831443E+03  0.28159544563E+03  0.00000000000E+00 0. -1.
        -11    1    3    3    0    0  0.86065085214E+02  0.63694922502E+02 -0.11895221887E+03  0.16004334544E+03  0.00000000000E+00 0.  1.
         22    1    1    2    0    0 -0.12928452114E+03 -0.15943907758E+03 -0.93236460156E+03  0.95469317433E+03  0.00000000000E+00 0.  1.
<mgrwt>
<rscale>  0 0.47630161E+03</rscale>
<asrwt>0</asrwt>
<pdfrwt beam="1">  1        2 0.20837824E+00 0.47630161E+03</pdfrwt>
<pdfrwt beam="2">  1       -2 0.64420638E-02 0.47630161E+03</pdfrwt>
<totfact> 0.21645508E+03</totfact>
</mgrwt>
</event>
<event>
 6    1  0.1585031E-006  0.1624811E+04  0.7818608E-02  0.8805449E-01
         -2   -1    0    0    0  501 -0.00000000000E+00  0.00000000000E+00  0.31638356260E+03  0.31638356260E+03  0.00000000000E+00 0.  1.
          2   -1    0    0  501    0  0.00000000000E+00 -0.00000000000E+00 -0.20860848100E+04  0.20860848100E+04  0.00000000000E+00 0. -1.
         23    2    1    2    0    0  0.42814175129E+03 -0.39947347720E+03 -0.17148760808E+04  0.18143440515E+04  0.90332422689E+02 0.  0.
         13    1    3    3    0    0  0.33858150580E+03 -0.28113886087E+03 -0.11851307456E+04  0.12642038520E+04  0.00000000000E+00 0. -1.
        -13    1    3    3    0    0  0.89560245484E+02 -0.11833461633E+03 -0.52974533519E+03  0.55014019954E+03  0.00000000000E+00 0.  1.
         22    1    1    2    0    0 -0.42814175129E+03  0.39947347720E+03 -0.54825166608E+02  0.58812432110E+03  0.00000000000E+00 0.  1.
<mgrwt>
<rscale>  0 0.16248113E+04</rscale>
<asrwt>0</asrwt>
<pdfrwt beam="1">  1        2 0.32093612E+00 0.16248113E+04</pdfrwt>
<pdfrwt beam="2">  1       -2 0.48674395E-01 0.16248113E+04</pdfrwt>
<totfact> 0.22894961E+01</totfact>
</mgrwt>
</event>
<event>
 6    1  0.1913752E-006  0.4346039E+04  0.7818608E-02  0.7938160E-01
         -1   -1    0    0    0  501 -0.00000000000E+00  0.00000000000E+00  0.20738383438E+04  0.20738383438E+04  0.00000000000E+00 0.  1.
          1   -1    0    0  501    0  0.00000000000E+00 -0.00000000000E+00 -0.22769435329E+04  0.22769435329E+04  0.00000000000E+00 0. -1.
         23    2    1    2    0    0  0.10293152855E+04  0.84746399691E+02  0.18112922394E+04  0.20870528935E+04  0.91314260746E+02 0.  0.
         13    1    3    3    0    0  0.53144687626E+03  0.42225041550E+02  0.84293739519E+03  0.99737765597E+03  0.00000000000E+00 0.  1.
        -13    1    3    3    0    0  0.49786840929E+03  0.42521358141E+02  0.96835484423E+03  0.10896752375E+04  0.00000000000E+00 0. -1.
         22    1    1    2    0    0 -0.10293152855E+04 -0.84746399691E+02 -0.20143974285E+04  0.22637289832E+04  0.00000000000E+00 0. -1.
<mgrwt>
<rscale>  0 0.43460386E+04</rscale>
<asrwt>0</asrwt>
<pdfrwt beam="1">  1        1 0.35029901E+00 0.43460386E+04</pdfrwt>
<pdfrwt beam="2">  1       -1 0.31905205E+00 0.43460386E+04</pdfrwt>
<totfact> 0.36459970E-02</totfact>
</mgrwt>
</event>
<event>
 6    1  0.1585031E-006  0.1588029E+04  0.7818608E-02  0.8827936E-01
          1   -1    0    0  501    0  0.00000000000E+00  0.00000000000E+00  0.12120597618E+04  0.12120597618E+04  0.00000000000E+00 0. -1.
         -1   -1    0    0    0  501 -0.00000000000E+00 -0.00000000000E+00 -0.52015514829E+03  0.52015514829E+03  0.00000000000E+00 0.  1.
         23    2    1    2    0    0 -0.52935843508E+03 -0.30365682406E+03  0.89673917211E+03  0.10884874709E+04  0.90752476632E+02 0.  0.
         13    1    3    3    0    0 -0.30868449916E+03 -0.20055956571E+03  0.60777625444E+03  0.71056472955E+03  0.00000000000E+00 0.  1.
        -13    1    3    3    0    0 -0.22067393592E+03 -0.10309725835E+03  0.28896291767E+03  0.37792274139E+03  0.00000000000E+00 0. -1.
         22    1    1    2    0    0  0.52935843508E+03  0.30365682406E+03 -0.20483455855E+03  0.64372743919E+03  0.00000000000E+00 0.  1.
<mgrwt>
<rscale>  0 0.15880291E+04</rscale>
<asrwt>0</asrwt>
<pdfrwt beam="1">  1        1 0.18647073E+00 0.15880291E+04</pdfrwt>
<pdfrwt beam="2">  1       -1 0.80023869E-01 0.15880291E+04</pdfrwt>
<totfact> 0.15679234E+01</totfact>
</mgrwt>
</event>
<event>
 6    1  0.1585031E-006  0.1369041E+04  0.7818608E-02  0.8976538E-01
         -1   -1    0    0    0  501 -0.00000000000E+00  0.00000000000E+00  0.61014539861E+03  0.61014539861E+03  0.00000000000E+00 0.  1.
          1   -1    0    0  501    0  0.00000000000E+00 -0.00000000000E+00 -0.76796203390E+03  0.76796203390E+03  0.00000000000E+00 0. -1.
         23    2    1    2    0    0 -0.17305140845E+03  0.58679714818E+03 -0.38121584862E+03  0.72681265164E+03  0.93023783364E+02 0.  0.
         11    1    3    3    0    0 -0.59510709404E+02  0.29109323746E+03 -0.13876887973E+03  0.32792316083E+03  0.00000000000E+00 0. -1.
        -11    1    3    3    0    0 -0.11354069904E+03  0.29570391071E+03 -0.24244696889E+03  0.39888949081E+03  0.00000000000E+00 0.  1.
         22    1    1    2    0    0  0.17305140845E+03 -0.58679714818E+03  0.22339921333E+03  0.65129478087E+03  0.00000000000E+00 0.  1.
<mgrwt>
<rscale>  0 0.13690413E+04</rscale>
<asrwt>0</asrwt>
<pdfrwt beam="1">  1        1 0.11814801E+00 0.13690413E+04</pdfrwt>
<pdfrwt beam="2">  1       -1 0.93868523E-01 0.13690413E+04</pdfrwt>
<totfact> 0.25381718E+01</totfact>
</mgrwt>
</event>
<event>
 6    1  0.1585031E-006  0.3873164E+04  0.7818608E-02  0.8030634E-01
          2   -1    0    0  501    0  0.00000000000E+00  0.00000000000E+00  0.28488904937E+04  0.28488904937E+04  0.00000000000E+00 0. -1.
         -2   -1    0    0    0  501 -0.00000000000E+00 -0.00000000000E+00 -0.13164250100E+04  0.13164250100E+04  0.00000000000E+00 0.  1.
         23    2    1    2    0    0  0.51076840622E+03 -0.16077539419E+04  0.17871237420E+04  0.24592651143E+04  0.91741651438E+02 0.  0.
         13    1    3    3    0    0  0.32924709814E+03 -0.10479112284E+04  0.12263060850E+04  0.16463135207E+04  0.00000000000E+00 0. -1.
        -13    1    3    3    0    0  0.18152130808E+03 -0.55984271352E+03  0.56081765700E+03  0.81295159362E+03  0.00000000000E+00 0.  1.
         22    1    1    2    0    0 -0.51076840622E+03  0.16077539419E+04 -0.25465825832E+03  0.17060503894E+04  0.00000000000E+00 0.  1.
<mgrwt>
<rscale>  0 0.38731644E+04</rscale>
<asrwt>0</asrwt>
<pdfrwt beam="1">  1        2 0.43829084E+00 0.38731644E+04</pdfrwt>
<pdfrwt beam="2">  1       -2 0.20252693E+00 0.38731644E+04</pdfrwt>
<totfact> 0.22025926E-01</totfact>
</mgrwt>
</event>
<event>
 6    1  0.1585031E-006  0.2515708E+04  0.7818608E-02  0.8397411E-01
         -2   -1    0    0    0  501 -0.00000000000E+00  0.00000000000E+00  0.33688256696E+03  0.33688256696E+03  0.00000000000E+00 0.  1.
          2   -1    0    0  501    0  0.00000000000E+00 -0.00000000000E+00 -0.46965839724E+04  0.46965839724E+04  0.00000000000E+00 0. -1.
         23    2    1    2    0    0  0.57306873312E+03  0.11110003584E+04 -0.19360895140E+04  0.23064490899E+04  0.92386302223E+02 0.  0.
         13    1    3    3    0    0  0.34584060600E+03  0.65999604741E+03 -0.10700209715E+04  0.13038962332E+04  0.00000000000E+00 0. -1.
        -13    1    3    3    0    0  0.22722812713E+03  0.45100431101E+03 -0.86606854252E+03  0.10025528568E+04  0.00000000000E+00 0.  1.
         22    1    1    2    0    0 -0.57306873312E+03 -0.11110003584E+04 -0.24236118914E+04  0.27270174494E+04  0.00000000000E+00 0.  1.
<mgrwt>
<rscale>  0 0.25157085E+04</rscale>
<asrwt>0</asrwt>
<pdfrwt beam="1">  1        2 0.72255134E+00 0.25157085E+04</pdfrwt>
<pdfrwt beam="2">  1       -2 0.51828090E-01 0.25157085E+04</pdfrwt>
<totfact> 0.24402847E-01</totfact>
</mgrwt>
</event>
<event>
 6    1  0.1585031E-006  0.2563168E+04  0.7818608E-02  0.8380821E-01
          2   -1    0    0  501    0  0.00000000000E+00  0.00000000000E+00  0.40642500538E+04  0.40642500538E+04  0.00000000000E+00 0. -1.
         -2   -1    0    0    0  501 -0.00000000000E+00 -0.00000000000E+00 -0.40412326182E+03  0.40412326182E+03  0.00000000000E+00 0.  1.
         23    2    1    2    0    0 -0.10287290254E+04  0.57467778859E+03  0.96134475524E+03  0.15235537201E+04  0.92164153641E+02 0.  0.
         11    1    3    3    0    0 -0.28329642164E+03  0.11363160683E+03  0.23507987246E+03  0.38526815469E+03  0.00000000000E+00 0. -1.
        -11    1    3    3    0    0 -0.74543260374E+03  0.46104618175E+03  0.72626488278E+03  0.11382855654E+04  0.00000000000E+00 0.  1.
         22    1    1    2    0    0  0.10287290254E+04 -0.57467778859E+03  0.26987820368E+04  0.29448195955E+04  0.00000000000E+00 0. -1.
<mgrwt>
<rscale>  0 0.25631683E+04</rscale>
<asrwt>0</asrwt>
<pdfrwt beam="1">  1        2 0.62526921E+00 0.25631683E+04</pdfrwt>
<pdfrwt beam="2">  1       -2 0.62172812E-01 0.25631683E+04</pdfrwt>
<totfact> 0.64772953E-01</totfact>
</mgrwt>
</event>
<event>
 6    1  0.1585031E-006  0.2591483E+04  0.7818608E-02  0.8371100E-01
          2   -1    0    0  501    0  0.00000000000E+00  0.00000000000E+00  0.11436555845E+04  0.11436555845E+04  0.00000000000E+00 0. -1.
         -2   -1    0    0    0  501 -0.00000000000E+00 -0.00000000000E+00 -0.14680516395E+04  0.14680516395E+04  0.00000000000E+00 0.  1.
         23    2    1    2    0    0  0.11072648803E+04  0.57555886439E+03 -0.50797314731E+03  0.13503571258E+04  0.90133940869E+02 0.  0.
         11    1    3    3    0    0  0.52744114672E+03  0.28474958969E+03 -0.19647688404E+03  0.63077702720E+03  0.00000000000E+00 0. -1.
        -11    1    3    3    0    0  0.57982373356E+03  0.29080927470E+03 -0.31149626327E+03  0.71958009859E+03  0.00000000000E+00 0.  1.
         22    1    1    2    0    0 -0.11072648803E+04 -0.57555886439E+03  0.18357709236E+03  0.12613500982E+04  0.00000000000E+00 0.  1.
<mgrwt>
<rscale>  0 0.25914826E+04</rscale>
<asrwt>0</asrwt>
<pdfrwt beam="1">  1        2 0.17594701E+00 0.25914826E+04</pdfrwt>
<pdfrwt beam="2">  1       -2 0.22585410E+00 0.25914826E+04</pdfrwt>
<totfact> 0.16457843E+00</totfact>
</mgrwt>
</event>
<event>
 6    1  0.1585031E-006  0.5513257E+04  0.7818608E-02  0.7753868E-01
          2   -1    0    0  501    0  0.00000000000E+00  0.00000000000E+00  0.36077211242E+04  0.36077211242E+04  0.00000000000E+00 0.  1.
         -2   -1    0    0    0  501 -0.00000000000E+00 -0.00000000000E+00 -0.21063159786E+04  0.21063159786E+04  0.00000000000E+00 0. -1.
         23    2    1    2    0    0 -0.16291376004E+04 -0.19943989461E+04 -0.26607274664E+03  0.25906263745E+04  0.93988449201E+02 0.  0.
         11    1    3    3    0    0 -0.11292250392E+04 -0.13913545472E+04 -0.22817379762E+03  0.18063997196E+04  0.00000000000E+00 0.  1.
        -11    1    3    3    0    0 -0.49991256119E+03 -0.60304439895E+03 -0.37898949026E+02  0.78422665492E+03  0.00000000000E+00 0. -1.
         22    1    1    2    0    0  0.16291376004E+04  0.19943989461E+04  0.17674778922E+04  0.31234107282E+04  0.00000000000E+00 0.  1.
<mgrwt>
<rscale>  0 0.55132570E+04</rscale>
<asrwt>0</asrwt>
<pdfrwt beam="1">  1        2 0.55503402E+00 0.55132570E+04</pdfrwt>
<pdfrwt beam="2">  1       -2 0.32404861E+00 0.55132570E+04</pdfrwt>
<totfact> 0.10742022E-02</totfact>
</mgrwt>
</event>
<event>
 6    1  0.1606046E-006  0.2681712E+04  0.7818608E-02  0.8340963E-01
         -2   -1    0    0    0  501 -0.00000000000E+00  0.00000000000E+00  0.72464238160E+03  0.72464238160E+03  0.00000000000E+00 0.  1.
          2   -1    0    0  501    0  0.00000000000E+00 -0.00000000000E+00 -0.24810792344E+04  0.24810792344E+04  0.00000000000E+00 0. -1.
         23    2    1    2    0    0  0.90055748763E+03 -0.50069323706E+03  0.14371305048E+03  0.10441788426E+04  0.89210472024E+02 0.  0.
         11    1    3    3    0    0  0.45592834603E+03 -0.26771621819E+03  0.11694110120E+03  0.54149593844E+03  0.00000000000E+00 0.  1.
        -11    1    3    3    0    0  0.44462914160E+03 -0.23297701888E+03  0.26771949281E+02  0.50268290418E+03  0.00000000000E+00 0. -1.
         22    1    1    2    0    0 -0.90055748763E+03  0.50069323706E+03 -0.19001499033E+04  0.21615427733E+04  0.00000000000E+00 0. -1.
<mgrwt>
<rscale>  0 0.26817123E+04</rscale>
<asrwt>0</asrwt>
<pdfrwt beam="1">  1        2 0.38170450E+00 0.26817123E+04</pdfrwt>
<pdfrwt beam="2">  1       -2 0.11148344E+00 0.26817123E+04</pdfrwt>
<totfact> 0.19945072E+00</totfact>
</mgrwt>
</event>
<event>
 6    1  0.1585031E-006  0.1964728E+04  0.7818608E-02  0.8623291E-01
          1   -1    0    0  501    0  0.00000000000E+00  0.00000000000E+00  0.21787456999E+04  0.21787456999E+04  0.00000000000E+00 0. -1.
         -1   -1    0    0    0  501 -0.00000000000E+00 -0.00000000000E+00 -0.44293337129E+03  0.44293337129E+03  0.00000000000E+00 0.  1.
         23    2    1    2    0    0  0.83626876125E+03 -0.21053231093E+03  0.24914725469E+03  0.90300448390E+03  0.98353690441E+02 0.  0.
         13    1    3    3    0    0  0.22648578100E+03 -0.10064387334E+03  0.57301253570E+02  0.25437852091E+03  0.00000000000E+00 0.  1.
        -13    1    3    3    0    0  0.60978298025E+03 -0.10988843759E+03  0.19184600112E+03  0.64862596299E+03  0.00000000000E+00 0. -1.
         22    1    1    2    0    0 -0.83626876125E+03  0.21053231093E+03  0.14866650739E+04  0.17186745873E+04  0.00000000000E+00 0. -1.
<mgrwt>
<rscale>  0 0.19647282E+04</rscale>
<asrwt>0</asrwt>
<pdfrwt beam="1">  1        1 0.33519164E+00 0.19647282E+04</pdfrwt>
<pdfrwt beam="2">  1       -1 0.68143597E-01 0.19647282E+04</pdfrwt>
<totfact> 0.45696300E+00</totfact>
</mgrwt>
</event>
<event>
 6    1  0.1585031E-006  0.6409923E+03  0.7818608E-02  0.9823830E-01
          2   -1    0    0  501    0  0.00000000000E+00  0.00000000000E+00  0.14634577243E+04  0.14634577243E+04  0.00000000000E+00 0.  1.
         -2   -1    0    0    0  501 -0.00000000000E+00 -0.00000000000E+00 -0.70188410393E+02  0.70188410393E+02  0.00000000000E+00 0. -1.
         23    2    1    2    0    0 -0.24895205368E+03  0.11608015067E+02  0.11653223461E+04  0.11959011256E+04  0.10045626323E+03 0.  0.
         11    1    3    3    0    0 -0.19223560462E+03 -0.23078711618E+02  0.71723376009E+03  0.74290741094E+03  0.00000000000E+00 0. -1.
        -11    1    3    3    0    0 -0.56716449065E+02  0.34686726684E+02  0.44808858602E+03  0.45299371466E+03  0.00000000000E+00 0.  1.
         22    1    1    2    0    0  0.24895205368E+03 -0.11608015067E+02  0.22794696783E+03  0.33774500912E+03  0.00000000000E+00 0. -1.
<mgrwt>
<rscale>  0 0.64099227E+03</rscale>
<asrwt>0</asrwt>
<pdfrwt beam="1">  1        2 0.22514732E+00 0.64099227E+03</pdfrwt>
<pdfrwt beam="2">  1       -2 0.10798218E-01 0.64099227E+03</pdfrwt>
<totfact> 0.81947271E+02</totfact>
</mgrwt>
</event>
<event>
 6    1  0.1585031E-006  0.1580353E+04  0.7818608E-02  0.8832710E-01
         -1   -1    0    0    0  501 -0.00000000000E+00  0.00000000000E+00  0.59177967037E+03  0.59177967037E+03  0.00000000000E+00 0.  1.
          1   -1    0    0  501    0  0.00000000000E+00 -0.00000000000E+00 -0.10550863157E+04  0.10550863157E+04  0.00000000000E+00 0. -1.
         23    2    1    2    0    0  0.17428010633E+03 -0.23300068141E+03 -0.99504423778E+03  0.10407243028E+04  0.91275222448E+02 0.  0.
         13    1    3    3    0    0  0.37046688253E+02 -0.71164855303E+02 -0.42417680331E+03  0.43169764211E+03  0.00000000000E+00 0.  1.
        -13    1    3    3    0    0  0.13723341808E+03 -0.16183582611E+03 -0.57086743447E+03  0.60902666065E+03  0.00000000000E+00 0. -1.
         22    1    1    2    0    0 -0.17428010633E+03  0.23300068141E+03  0.53173759245E+03  0.60614168329E+03  0.00000000000E+00 0.  1.
<mgrwt>
<rscale>  0 0.15803527E+04</rscale>
<asrwt>0</asrwt>
<pdfrwt beam="1">  1        1 0.16232097E+00 0.15803527E+04</pdfrwt>
<pdfrwt beam="2">  1       -1 0.91043027E-01 0.15803527E+04</pdfrwt>
<totfact> 0.15524622E+01</totfact>
</mgrwt>
</event>
<event>
 6    1  0.1585031E-006  0.5602045E+03  0.7818608E-02  0.9991592E-01
          2   -1    0    0  501    0  0.00000000000E+00  0.00000000000E+00  0.23877388569E+04  0.23877388569E+04  0.00000000000E+00 0. -1.
         -2   -1    0    0    0  501 -0.00000000000E+00 -0.00000000000E+00 -0.32858398073E+02  0.32858398073E+02  0.00000000000E+00 0.  1.
         23    2    1    2    0    0  0.15261540358E+03 -0.20703385627E+03  0.81404930186E+03  0.85844645132E+03  0.89997582666E+02 0.  0.
         13    1    3    3    0    0 -0.32213152531E+01 -0.53481329660E+02  0.17135603058E+03  0.17953695639E+03  0.00000000000E+00 0. -1.
        -13    1    3    3    0    0  0.15583671884E+03 -0.15355252661E+03  0.64269327127E+03  0.67890949493E+03  0.00000000000E+00 0.  1.
         22    1    1    2    0    0 -0.15261540358E+03  0.20703385627E+03  0.15408311570E+04  0.15621508037E+04  0.00000000000E+00 0. -1.
<mgrwt>
<rscale>  0 0.56020451E+03</rscale>
<asrwt>0</asrwt>
<pdfrwt beam="1">  1        2 0.36734430E+00 0.56020451E+03</pdfrwt>
<pdfrwt beam="2">  1       -2 0.50551401E-02 0.56020451E+03</pdfrwt>
<totfact> 0.86068304E+02</totfact>
</mgrwt>
</event>
<event>
 6    1  0.1585031E-006  0.2459889E+04  0.7818608E-02  0.8417416E-01
         -2   -1    0    0    0  501 -0.00000000000E+00  0.00000000000E+00  0.54274198087E+03  0.54274198087E+03  0.00000000000E+00 0.  1.
          2   -1    0    0  501    0  0.00000000000E+00 -0.00000000000E+00 -0.27872606913E+04  0.27872606913E+04  0.00000000000E+00 0. -1.
         23    2    1    2    0    0 -0.50940049337E+03 -0.24350137775E+01  0.38924597218E+03  0.64742719415E+03  0.90303670623E+02 0.  0.
         13    1    3    3    0    0 -0.47965350584E+03  0.89290021488E+01  0.38536427146E+03  0.61534773459E+03  0.00000000000E+00 0. -1.
        -13    1    3    3    0    0 -0.29746987532E+02 -0.11364015926E+02  0.38817007135E+01  0.32079459559E+02  0.00000000000E+00 0.  1.
         22    1    1    2    0    0  0.50940049337E+03  0.24350137775E+01 -0.26337646826E+04  0.26825754780E+04  0.00000000000E+00 0. -1.
<mgrwt>
<rscale>  0 0.24598889E+04</rscale>
<asrwt>0</asrwt>
<pdfrwt beam="1">  1        2 0.42880934E+00 0.24598889E+04</pdfrwt>
<pdfrwt beam="2">  1       -2 0.83498766E-01 0.24598889E+04</pdfrwt>
<totfact> 0.26428637E+00</totfact>
</mgrwt>
</event>
<event>
 6    1  0.1585031E-006  0.1611514E+04  0.7818608E-02  0.8813506E-01
          1   -1    0    0  501    0  0.00000000000E+00  0.00000000000E+00  0.31277181465E+04  0.31277181465E+04  0.00000000000E+00 0. -1.
         -1   -1    0    0    0  501 -0.00000000000E+00 -0.00000000000E+00 -0.20757753964E+03  0.20757753964E+03  0.00000000000E+00 0.  1.
         23    2    1    2    0    0 -0.40245602949E+03 -0.19356721272E+03  0.28463519159E+04  0.28826546668E+04  0.92409832710E+02 0.  0.
         11    1    3    3    0    0 -0.21978128231E+03 -0.10754134027E+03  0.18444492981E+04  0.18606080096E+04  0.00000000000E+00 0. -1.
        -11    1    3    3    0    0 -0.18267474717E+03 -0.86025872448E+02  0.10019026178E+04  0.10220466572E+04  0.00000000000E+00 0.  1.
         22    1    1    2    0    0  0.40245602949E+03  0.19356721272E+03  0.73788690972E+02  0.45264101938E+03  0.00000000000E+00 0.  1.
<mgrwt>
<rscale>  0 0.16115136E+04</rscale>
<asrwt>0</asrwt>
<pdfrwt beam="1">  1        1 0.48118737E+00 0.16115136E+04</pdfrwt>
<pdfrwt beam="2">  1       -1 0.31935008E-01 0.16115136E+04</pdfrwt>
<totfact> 0.42412544E+00</totfact>
</mgrwt>
</event>
<event>
 6    1  0.1585031E-006  0.8329794E+03  0.7818608E-02  0.9513470E-01
         -2   -1    0    0    0  501 -0.00000000000E+00  0.00000000000E+00  0.14834875901E+04  0.14834875901E+04  0.00000000000E+00 0.  1.
          2   -1    0    0  501    0  0.00000000000E+00 -0.00000000000E+00 -0.11692965052E+03  0.11692965052E+03  0.00000000000E+00 0. -1.
         23    2    1    2    0    0 -0.70557541541E+02 -0.34287332301E+03  0.11064622085E+04  0.11643091444E+04  0.93897191112E+02 0.  0.
         13    1    3    3    0    0 -0.23454641066E+02 -0.29219280504E+03  0.88368393206E+03  0.93103385937E+03  0.00000000000E+00 0.  1.
        -13    1    3    3    0    0 -0.47102900475E+02 -0.50680517967E+02  0.22277827644E+03  0.23327528499E+03  0.00000000000E+00 0. -1.
         22    1    1    2    0    0  0.70557541541E+02  0.34287332301E+03  0.26009573107E+03  0.43610809626E+03  0.00000000000E+00 0. -1.
<mgrwt>
<rscale>  0 0.83297944E+03</rscale>
<asrwt>0</asrwt>
<pdfrwt beam="1">  1        2 0.17989178E-01 0.83297944E+03</pdfrwt>
<pdfrwt beam="2">  1       -2 0.22822885E+00 0.83297944E+03</pdfrwt>
<totfact> 0.28718559E+01</totfact>
</mgrwt>
</event>
<event>
 6    1  0.1585031E-006  0.4975543E+04  0.7818608E-02  0.7832291E-01
         -1   -1    0    0    0  501 -0.00000000000E+00  0.00000000000E+00  0.21054569097E+04  0.21054569097E+04  0.00000000000E+00 0.  1.
          1   -1    0    0  501    0  0.00000000000E+00 -0.00000000000E+00 -0.29395076792E+04  0.29395076792E+04  0.00000000000E+00 0. -1.
         23    2    1    2    0    0 -0.18309428472E+04 -0.11097095988E+04 -0.17000871780E+04  0.27354568136E+04  0.92846447292E+02 0.  0.
         13    1    3    3    0    0 -0.60627402111E+03 -0.41398843448E+03 -0.55845733547E+03  0.92240403734E+03  0.00000000000E+00 0.  1.
        -13    1    3    3    0    0 -0.12246688261E+04 -0.69572116428E+03 -0.11416298425E+04  0.18130527762E+04  0.00000000000E+00 0. -1.
         22    1    1    2    0    0  0.18309428472E+04  0.11097095988E+04  0.86603640853E+03  0.23095077753E+04  0.00000000000E+00 0.  1.
<mgrwt>
<rscale>  0 0.49755429E+04</rscale>
<asrwt>0</asrwt>
<pdfrwt beam="1">  1        1 0.45223195E+00 0.49755429E+04</pdfrwt>
<pdfrwt beam="2">  1       -1 0.32391645E+00 0.49755429E+04</pdfrwt>
<totfact> 0.11040705E-02</totfact>
</mgrwt>
</event>
<event>
 6    1  0.1585031E-006  0.3171175E+04  0.7818608E-02  0.8196471E-01
          2   -1    0    0  501    0  0.00000000000E+00  0.00000000000E+00  0.19320615149E+04  0.19320615149E+04  0.00000000000E+00 0. -1.
         -2   -1    0    0    0  501 -0.00000000000E+00 -0.00000000000E+00 -0.13012465807E+04  0.13012465807E+04  0.00000000000E+00 0.  1.
         23    2    1    2    0    0 -0.72902937173E+03 -0.45806048841E+03  0.16716588016E+04  0.18825086315E+04  0.89957561098E+02 0.  0.
         13    1    3    3    0    0 -0.12245086072E+03 -0.11407943212E+03  0.28903735450E+03  0.33399239875E+03  0.00000000000E+00 0. -1.
        -13    1    3    3    0    0 -0.60657851101E+03 -0.34398105630E+03  0.13826214471E+04  0.15485162328E+04  0.00000000000E+00 0.  1.
         22    1    1    2    0    0  0.72902937173E+03  0.45806048841E+03 -0.10408438675E+04  0.13507994641E+04  0.00000000000E+00 0.  1.
<mgrwt>
<rscale>  0 0.31711755E+04</rscale>
<asrwt>0</asrwt>
<pdfrwt beam="1">  1        2 0.29724023E+00 0.31711755E+04</pdfrwt>
<pdfrwt beam="2">  1       -2 0.20019178E+00 0.31711755E+04</pdfrwt>
<totfact> 0.81589942E-01</totfact>
</mgrwt>
</event>
<event>
 6    1  0.1585031E-006  0.2500637E+04  0.7818608E-02  0.8402759E-01
          1   -1    0    0  501    0  0.00000000000E+00  0.00000000000E+00  0.24987694483E+04  0.24987694483E+04  0.00000000000E+00 0. -1.
         -1   -1    0    0    0  501 -0.00000000000E+00 -0.00000000000E+00 -0.62562665875E+03  0.62562665875E+03  0.00000000000E+00 0.  1.
         23    2    1    2    0    0 -0.57866898907E+02  0.55154541767E+03 -0.46001121001E+03  0.72623879124E+03  0.90893029573E+02 0.  0.
         11    1    3    3    0    0  0.13546189677E+02  0.20878619261E+03 -0.20656015772E+03  0.29401066687E+03  0.00000000000E+00 0.  1.
        -11    1    3    3    0    0 -0.71413088584E+02  0.34275922506E+03 -0.25345105229E+03  0.43222812437E+03  0.00000000000E+00 0. -1.
         22    1    1    2    0    0  0.57866898907E+02 -0.55154541767E+03  0.23331539996E+04  0.23981573158E+04  0.00000000000E+00 0. -1.
<mgrwt>
<rscale>  0 0.25006373E+04</rscale>
<asrwt>0</asrwt>
<pdfrwt beam="1">  1        1 0.38442606E+00 0.25006373E+04</pdfrwt>
<pdfrwt beam="2">  1       -1 0.96250256E-01 0.25006373E+04</pdfrwt>
<totfact> 0.12532897E+00</totfact>
</mgrwt>
</event>
<event>
 6    1  0.1585031E-006  0.1663696E+04  0.7818608E-02  0.8782345E-01
          1   -1    0    0  501    0  0.00000000000E+00  0.00000000000E+00  0.92808823479E+03  0.92808823479E+03  0.00000000000E+00 0. -1.
         -1   -1    0    0    0  501 -0.00000000000E+00 -0.00000000000E+00 -0.74558717398E+03  0.74558717398E+03  0.00000000000E+00 0.  1.
         23    2    1    2    0    0  0.56904076993E+03  0.13739803142E+03  0.68265514571E+03  0.90371454903E+03  0.89422152152E+02 0.  0.
         11    1    3    3    0    0  0.15722885420E+03  0.62610756496E+02  0.24856419909E+03  0.30070779919E+03  0.00000000000E+00 0.  1.
        -11    1    3    3    0    0  0.41181191573E+03  0.74787274921E+02  0.43409094662E+03  0.60300674985E+03  0.00000000000E+00 0. -1.
         22    1    1    2    0    0 -0.56904076993E+03 -0.13739803142E+03 -0.50015408490E+03  0.76996085973E+03  0.00000000000E+00 0.  1.
<mgrwt>
<rscale>  0 0.16636955E+04</rscale>
<asrwt>0</asrwt>
<pdfrwt beam="1">  1        1 0.14278281E+00 0.16636955E+04</pdfrwt>
<pdfrwt beam="2">  1       -1 0.11470572E+00 0.16636955E+04</pdfrwt>
<totfact> 0.11381948E+01</totfact>
</mgrwt>
</event>
<event>
 6    1  0.1585031E-006  0.1224048E+04  0.7818608E-02  0.9092064E-01
         -1   -1    0    0    0  501 -0.00000000000E+00  0.00000000000E+00  0.16593206718E+04  0.16593206718E+04  0.00000000000E+00 0.  1.
          1   -1    0    0  501    0  0.00000000000E+00 -0.00000000000E+00 -0.22573907932E+03  0.22573907932E+03  0.00000000000E+00 0. -1.
         23    2    1    2    0    0 -0.55082544664E+03 -0.58734538951E+02  0.11089595788E+04  0.12430022222E+04  0.91677468179E+02 0.  0.
         11    1    3    3    0    0 -0.18728084900E+03 -0.62639471704E+02  0.36712606977E+03  0.41686852954E+03  0.00000000000E+00 0. -1.
        -11    1    3    3    0    0 -0.36354459764E+03  0.39049327533E+01  0.74183350906E+03  0.82613369265E+03  0.00000000000E+00 0.  1.
         22    1    1    2    0    0  0.55082544664E+03  0.58734538951E+02  0.32462201369E+03  0.64205752897E+03  0.00000000000E+00 0. -1.
<mgrwt>
<rscale>  0 0.12240482E+04</rscale>
<asrwt>0</asrwt>
<pdfrwt beam="1">  1        1 0.34729090E-01 0.12240482E+04</pdfrwt>
<pdfrwt beam="2">  1       -1 0.25528010E+00 0.12240482E+04</pdfrwt>
<totfact> 0.81038169E+00</totfact>
</mgrwt>
</event>
<event>
 6    1  0.1585031E-006  0.2085367E+04  0.7818608E-02  0.8567717E-01
          1   -1    0    0  501    0  0.00000000000E+00  0.00000000000E+00  0.25562380264E+04  0.25562380264E+04  0.00000000000E+00 0. -1.
         -1   -1    0    0    0  501 -0.00000000000E+00 -0.00000000000E+00 -0.42530830439E+03  0.42530830439E+03  0.00000000000E+00 0.  1.
         23    2    1    2    0    0  0.98920357738E+03  0.29315806340E+03  0.87269601957E+03  0.13543962401E+04  0.91243986122E+02 0.  0.
         11    1    3    3    0    0  0.36548851864E+03  0.11301916001E+03  0.38179109273E+03  0.54048092129E+03  0.00000000000E+00 0. -1.
        -11    1    3    3    0    0  0.62371505874E+03  0.18013890339E+03  0.49090492684E+03  0.81391531882E+03  0.00000000000E+00 0.  1.
         22    1    1    2    0    0 -0.98920357738E+03 -0.29315806340E+03  0.12582337024E+04  0.16271500907E+04  0.00000000000E+00 0. -1.
<mgrwt>
<rscale>  0 0.20853674E+04</rscale>
<asrwt>0</asrwt>
<pdfrwt beam="1">  1        1 0.39326738E+00 0.20853674E+04</pdfrwt>
<pdfrwt beam="2">  1       -1 0.65432049E-01 0.20853674E+04</pdfrwt>
<totfact> 0.27002622E+00</totfact>
</mgrwt>
</event>
<event>
 6    1  0.1585031E-006  0.7060692E+03  0.7818608E-02  0.9706909E-01
         -1   -1    0    0    0  501 -0.00000000000E+00  0.00000000000E+00  0.67120858559E+02  0.67120858559E+02  0.00000000000E+00 0.  1.
          1   -1    0    0  501    0  0.00000000000E+00 -0.00000000000E+00 -0.18568507717E+04  0.18568507717E+04  0.00000000000E+00 0. -1.
         23    2    1    2    0    0  0.28464225369E+03  0.13355919932E+03 -0.50502498868E+03  0.60135074155E+03  0.87824841979E+02 0.  0.
         13    1    3    3    0    0  0.14155282500E+03  0.10552875077E+03 -0.22879424923E+03  0.28899883734E+03  0.00000000000E+00 0. -1.
        -13    1    3    3    0    0  0.14308942868E+03  0.28030448558E+02 -0.27623073945E+03  0.31235190421E+03  0.00000000000E+00 0.  1.
         22    1    1    2    0    0 -0.28464225369E+03 -0.13355919932E+03 -0.12847049245E+04  0.13226208887E+04  0.00000000000E+00 0. -1.
<mgrwt>
<rscale>  0 0.70606917E+03</rscale>
<asrwt>0</asrwt>
<pdfrwt beam="1">  1        1 0.28566934E+00 0.70606917E+03</pdfrwt>
<pdfrwt beam="2">  1       -1 0.10326286E-01 0.70606917E+03</pdfrwt>
<totfact> 0.23008124E+02</totfact>
</mgrwt>
</event>
<event>
 6    1  0.1585031E-006  0.1955339E+04  0.7818608E-02  0.8627791E-01
         -1   -1    0    0    0  501 -0.00000000000E+00  0.00000000000E+00  0.70045323082E+03  0.70045323082E+03  0.00000000000E+00 0.  1.
          1   -1    0    0  501    0  0.00000000000E+00 -0.00000000000E+00 -0.13645983576E+04  0.13645983576E+04  0.00000000000E+00 0. -1.
         23    2    1    2    0    0 -0.90027337081E+02  0.64660468292E+03  0.43277012124E+03  0.78856202766E+03  0.91310219750E+02 0.  0.
         13    1    3    3    0    0 -0.27646761052E+02  0.27577873684E+03  0.23669663707E+03  0.36447709543E+03  0.00000000000E+00 0.  1.
        -13    1    3    3    0    0 -0.62380576029E+02  0.37082594608E+03  0.19607348417E+03  0.42408493223E+03  0.00000000000E+00 0. -1.
         22    1    1    2    0    0  0.90027337081E+02 -0.64660468292E+03 -0.10969152480E+04  0.12764895607E+04  0.00000000000E+00 0. -1.
<mgrwt>
<rscale>  0 0.19553387E+04</rscale>
<asrwt>0</asrwt>
<pdfrwt beam="1">  1        1 0.20993821E+00 0.19553387E+04</pdfrwt>
<pdfrwt beam="2">  1       -1 0.10776204E+00 0.19553387E+04</pdfrwt>
<totfact> 0.60707532E+00</totfact>
</mgrwt>
</event>
<event>
 6    1  0.1585031E-006  0.1679587E+04  0.7818608E-02  0.8773093E-01
          2   -1    0    0  501    0  0.00000000000E+00  0.00000000000E+00  0.24598150221E+04  0.24598150221E+04  0.00000000000E+00 0. -1.
         -2   -1    0    0    0  501 -0.00000000000E+00 -0.00000000000E+00 -0.28670982702E+03  0.28670982702E+03  0.00000000000E+00 0.  1.
         23    2    1    2    0    0  0.23874589949E+03  0.46741088866E+03  0.23178345765E+02  0.53345955392E+03  0.92570603300E+02 0.  0.
         13    1    3    3    0    0  0.12235433441E+03  0.24039765604E+03 -0.34407444052E+02  0.27192919737E+03  0.00000000000E+00 0. -1.
        -13    1    3    3    0    0  0.11639156508E+03  0.22701323262E+03  0.57585789817E+02  0.26153035655E+03  0.00000000000E+00 0.  1.
         22    1    1    2    0    0 -0.23874589949E+03 -0.46741088866E+03  0.21499268493E+04  0.22130652952E+04  0.00000000000E+00 0. -1.
<mgrwt>
<rscale>  0 0.16795870E+04</rscale>
<asrwt>0</asrwt>
<pdfrwt beam="1">  1        2 0.37843307E+00 0.16795870E+04</pdfrwt>
<pdfrwt beam="2">  1       -2 0.44109206E-01 0.16795870E+04</pdfrwt>
<totfact> 0.17087082E+01</totfact>
</mgrwt>
</event>
<event>
 6    1  0.1585031E-006  0.9245611E+03  0.7818608E-02  0.9395389E-01
         -2   -1    0    0    0  501 -0.00000000000E+00  0.00000000000E+00  0.19867154304E+03  0.19867154304E+03  0.00000000000E+00 0.  1.
          2   -1    0    0  501    0  0.00000000000E+00 -0.00000000000E+00 -0.10756613532E+04  0.10756613532E+04  0.00000000000E+00 0. -1.
         23    2    1    2    0    0  0.14515772051E+03 -0.43434097682E+03 -0.47050810870E+03  0.66200110581E+03  0.84526538823E+02 0.  0.
         13    1    3    3    0    0  0.12232308896E+03 -0.27560109179E+03 -0.26582548399E+03  0.40197274513E+03  0.00000000000E+00 0. -1.
        -13    1    3    3    0    0  0.22834631552E+02 -0.15873988503E+03 -0.20468262471E+03  0.26002836067E+03  0.00000000000E+00 0.  1.
         22    1    1    2    0    0 -0.14515772051E+03  0.43434097682E+03 -0.40648170146E+03  0.61233179044E+03  0.00000000000E+00 0.  1.
<mgrwt>
<rscale>  0 0.92456109E+03</rscale>
<asrwt>0</asrwt>
<pdfrwt beam="1">  1        2 0.16548636E+00 0.92456109E+03</pdfrwt>
<pdfrwt beam="2">  1       -2 0.30564853E-01 0.92456109E+03</pdfrwt>
<totfact> 0.22342517E+02</totfact>
</mgrwt>
</event>
<event>
 6    1  0.1585031E-006  0.1253656E+04  0.7818608E-02  0.9067146E-01
          2   -1    0    0  501    0  0.00000000000E+00  0.00000000000E+00  0.17390778381E+04  0.17390778381E+04  0.00000000000E+00 0.  1.
         -2   -1    0    0    0  501 -0.00000000000E+00 -0.00000000000E+00 -0.22593204029E+03  0.22593204029E+03  0.00000000000E+00 0. -1.
         23    2    1    2    0    0  0.20461190283E+03  0.28897621042E+03 -0.43952783918E+02  0.36816008138E+03  0.90756362517E+02 0.  0.
         13    1    3    3    0    0  0.59265194153E+02  0.11676165068E+03 -0.56162376863E+02  0.14247757326E+03  0.00000000000E+00 0. -1.
        -13    1    3    3    0    0  0.14534670868E+03  0.17221455974E+03  0.12209592945E+02  0.22568250812E+03  0.00000000000E+00 0.  1.
         22    1    1    2    0    0 -0.20461190283E+03 -0.28897621042E+03  0.15570985818E+04  0.15968497970E+04  0.00000000000E+00 0.  1.
<mgrwt>
<rscale>  0 0.12536561E+04</rscale>
<asrwt>0</asrwt>
<pdfrwt beam="1">  1        2 0.26755043E+00 0.12536561E+04</pdfrwt>
<pdfrwt beam="2">  1       -2 0.34758777E-01 0.12536561E+04</pdfrwt>
<totfact> 0.71196449E+01</totfact>
</mgrwt>
</event>
<event>
 6    1  0.1585031E-006  0.2459954E+04  0.7818608E-02  0.8417392E-01
          2   -1    0    0  501    0  0.00000000000E+00  0.00000000000E+00  0.17752697454E+04  0.17752697454E+04  0.00000000000E+00 0. -1.
         -2   -1    0    0    0  501 -0.00000000000E+00 -0.00000000000E+00 -0.85217698596E+03  0.85217698596E+03  0.00000000000E+00 0.  1.
         23    2    1    2    0    0 -0.81978082278E+03  0.27493560060E+01 -0.51563115267E+03  0.97155583772E+03  0.77440970091E+02 0.  0.
         13    1    3    3    0    0 -0.28110917964E+03  0.17100929513E+02 -0.13858106408E+03  0.31387819929E+03  0.00000000000E+00 0. -1.
        -13    1    3    3    0    0 -0.53867164313E+03 -0.14351573507E+02 -0.37705008859E+03  0.65767763842E+03  0.00000000000E+00 0.  1.
         22    1    1    2    0    0  0.81978082278E+03 -0.27493560060E+01  0.14387239121E+04  0.16558908936E+04  0.00000000000E+00 0. -1.
<mgrwt>
<rscale>  0 0.24599545E+04</rscale>
<asrwt>0</asrwt>
<pdfrwt beam="1">  1        2 0.27311842E+00 0.24599545E+04</pdfrwt>
<pdfrwt beam="2">  1       -2 0.13110415E+00 0.24599545E+04</pdfrwt>
<totfact> 0.33879858E+00</totfact>
</mgrwt>
</event>
<event>
 6    1  0.1585031E-006  0.4145724E+04  0.7818608E-02  0.7975778E-01
          1   -1    0    0  501    0  0.00000000000E+00  0.00000000000E+00  0.18802754084E+04  0.18802754084E+04  0.00000000000E+00 0. -1.
         -1   -1    0    0    0  501 -0.00000000000E+00 -0.00000000000E+00 -0.22851738434E+04  0.22851738434E+04  0.00000000000E+00 0.  1.
         23    2    1    2    0    0 -0.15548177897E+04  0.42097223346E+03  0.11050923470E+04  0.19575660706E+04  0.12712137813E+03 0.  0.
         11    1    3    3    0    0 -0.11267318626E+04  0.26297187273E+03  0.84065750380E+03  0.14301691980E+04  0.00000000000E+00 0.  1.
        -11    1    3    3    0    0 -0.42808592706E+03  0.15800036073E+03  0.26443484319E+03  0.52739687260E+03  0.00000000000E+00 0. -1.
         22    1    1    2    0    0  0.15548177897E+04 -0.42097223346E+03 -0.15099907819E+04  0.22078831812E+04  0.00000000000E+00 0. -1.
<mgrwt>
<rscale>  0 0.41457237E+04</rscale>
<asrwt>0</asrwt>
<pdfrwt beam="1">  1        1 0.28927314E+00 0.41457237E+04</pdfrwt>
<pdfrwt beam="2">  1       -1 0.35156521E+00 0.41457237E+04</pdfrwt>
<totfact> 0.42146054E-02</totfact>
</mgrwt>
</event>
<event>
 6    1  0.1585031E-006  0.1955973E+04  0.7818608E-02  0.8627486E-01
         -1   -1    0    0    0  501 -0.00000000000E+00  0.00000000000E+00  0.17240046486E+04  0.17240046486E+04  0.00000000000E+00 0.  1.
          1   -1    0    0  501    0  0.00000000000E+00 -0.00000000000E+00 -0.55478816439E+03  0.55478816439E+03  0.00000000000E+00 0. -1.
         23    2    1    2    0    0  0.22026463072E+03 -0.51780650291E+03 -0.34292178978E+03  0.66534859590E+03  0.91941928157E+02 0.  0.
         13    1    3    3    0    0  0.96643522153E+02 -0.34055809854E+03 -0.20807732320E+03  0.41062873899E+03  0.00000000000E+00 0. -1.
        -13    1    3    3    0    0  0.12362110856E+03 -0.17724840437E+03 -0.13484446659E+03  0.25471985691E+03  0.00000000000E+00 0.  1.
         22    1    1    2    0    0 -0.22026463072E+03  0.51780650291E+03  0.15121382739E+04  0.16134442170E+04  0.00000000000E+00 0.  1.
<mgrwt>
<rscale>  0 0.19559728E+04</rscale>
<asrwt>0</asrwt>
<pdfrwt beam="1">  1        1 0.85352026E-01 0.19559728E+04</pdfrwt>
<pdfrwt beam="2">  1       -1 0.26523148E+00 0.19559728E+04</pdfrwt>
<totfact> 0.19800967E+00</totfact>
</mgrwt>
</event>
<event>
 6    1  0.1585031E-006  0.2056467E+04  0.7818608E-02  0.8580666E-01
         -2   -1    0    0    0  501 -0.00000000000E+00  0.00000000000E+00  0.14256871377E+04  0.14256871377E+04  0.00000000000E+00 0.  1.
          2   -1    0    0  501    0  0.00000000000E+00 -0.00000000000E+00 -0.74158185339E+03  0.74158185339E+03  0.00000000000E+00 0. -1.
         23    2    1    2    0    0 -0.99112034654E+03  0.26234955172E+03  0.29563356918E+03  0.10708853438E+04  0.90826118354E+02 0.  0.
         11    1    3    3    0    0 -0.50032753635E+03  0.15101155675E+03  0.10719795134E+03  0.53350120400E+03  0.00000000000E+00 0.  1.
        -11    1    3    3    0    0 -0.49079281019E+03  0.11133799497E+03  0.18843561784E+03  0.53738413982E+03  0.00000000000E+00 0. -1.
         22    1    1    2    0    0  0.99112034654E+03 -0.26234955172E+03  0.38847171517E+03  0.10963836473E+04  0.00000000000E+00 0.  1.
<mgrwt>
<rscale>  0 0.20564666E+04</rscale>
<asrwt>0</asrwt>
<pdfrwt beam="1">  1        2 0.11408952E+00 0.20564666E+04</pdfrwt>
<pdfrwt beam="2">  1       -2 0.21933648E+00 0.20564666E+04</pdfrwt>
<totfact> 0.35103780E+00</totfact>
</mgrwt>
</event>
<event>
 6    1  0.1585031E-006  0.2960773E+04  0.7818608E-02  0.8255022E-01
         -2   -1    0    0    0  501 -0.00000000000E+00  0.00000000000E+00  0.77574553228E+03  0.77574553228E+03  0.00000000000E+00 0.  1.
          2   -1    0    0  501    0  0.00000000000E+00 -0.00000000000E+00 -0.28250818965E+04  0.28250818965E+04  0.00000000000E+00 0. -1.
         23    2    1    2    0    0 -0.69438707029E+03 -0.10752814089E+04 -0.12457896962E+03  0.12893139549E+04  0.91689928442E+02 0.  0.
         11    1    3    3    0    0 -0.62014966996E+03 -0.96711350827E+03 -0.83750385930E+02  0.11519150482E+04  0.00000000000E+00 0.  1.
        -11    1    3    3    0    0 -0.74237400327E+02 -0.10816790063E+03 -0.40828583686E+02  0.13739890676E+03  0.00000000000E+00 0. -1.
         22    1    1    2    0    0  0.69438707029E+03  0.10752814089E+04 -0.19247573946E+04  0.23115134738E+04  0.00000000000E+00 0. -1.
<mgrwt>
<rscale>  0 0.29607733E+04</rscale>
<asrwt>0</asrwt>
<pdfrwt beam="1">  1        2 0.43462797E+00 0.29607733E+04</pdfrwt>
<pdfrwt beam="2">  1       -2 0.11934547E+00 0.29607733E+04</pdfrwt>
<totfact> 0.10316447E+00</totfact>
</mgrwt>
</event>
<event>
 6    1  0.1585031E-006  0.1399628E+04  0.7818608E-02  0.8954088E-01
          2   -1    0    0  501    0  0.00000000000E+00  0.00000000000E+00  0.18412371409E+04  0.18412371409E+04  0.00000000000E+00 0.  1.
         -2   -1    0    0    0  501 -0.00000000000E+00 -0.00000000000E+00 -0.26598398979E+03  0.26598398979E+03  0.00000000000E+00 0. -1.
         23    2    1    2    0    0 -0.20426254369E+03  0.66461716804E+03  0.72378569502E+03  0.10079322717E+04  0.92857768328E+02 0.  0.
         13    1    3    3    0    0 -0.82826009537E+02  0.21768949179E+03  0.30313372905E+03  0.38228120589E+03  0.00000000000E+00 0.  1.
        -13    1    3    3    0    0 -0.12143653415E+03  0.44692767625E+03  0.42065196597E+03  0.62565106577E+03  0.00000000000E+00 0. -1.
         22    1    1    2    0    0  0.20426254369E+03 -0.66461716804E+03  0.85146745607E+03  0.10992888590E+04  0.00000000000E+00 0.  1.
<mgrwt>
<rscale>  0 0.13996280E+04</rscale>
<asrwt>0</asrwt>
<pdfrwt beam="1">  1        2 0.28326724E+00 0.13996280E+04</pdfrwt>
<pdfrwt beam="2">  1       -2 0.40920615E-01 0.13996280E+04</pdfrwt>
<totfact> 0.45067271E+01</totfact>
</mgrwt>
</event>
<event>
 6    1  0.1585031E-006  0.3382544E+04  0.7818608E-02  0.8142204E-01
         -1   -1    0    0    0  501 -0.00000000000E+00  0.00000000000E+00  0.14155251208E+04  0.14155251208E+04  0.00000000000E+00 0.  1.
          1   -1    0    0  501    0  0.00000000000E+00 -0.00000000000E+00 -0.20207347680E+04  0.20207347680E+04  0.00000000000E+00 0. -1.
         23    2    1    2    0    0  0.78559511833E+03  0.69835000655E+03  0.10415205175E+04  0.14826548476E+04  0.92994554306E+02 0.  0.
         13    1    3    3    0    0  0.69137366331E+03  0.57353552943E+03  0.86982716046E+03  0.12504158648E+04  0.00000000000E+00 0. -1.
        -13    1    3    3    0    0  0.94221455024E+02  0.12481447712E+03  0.17169335701E+03  0.23223898279E+03  0.00000000000E+00 0.  1.
         22    1    1    2    0    0 -0.78559511833E+03 -0.69835000655E+03 -0.16467301647E+04  0.19536050412E+04  0.00000000000E+00 0. -1.
<mgrwt>
<rscale>  0 0.33825439E+04</rscale>
<asrwt>0</asrwt>
<pdfrwt beam="1">  1        1 0.31088227E+00 0.33825439E+04</pdfrwt>
<pdfrwt beam="2">  1       -1 0.21777310E+00 0.33825439E+04</pdfrwt>
<totfact> 0.27076197E-01</totfact>
</mgrwt>
</event>
<event>
 6    1  0.1585031E-006  0.9792871E+03  0.7818608E-02  0.9331559E-01
          1   -1    0    0  501    0  0.00000000000E+00  0.00000000000E+00  0.65774798388E+03  0.65774798388E+03  0.00000000000E+00 0. -1.
         -1   -1    0    0    0  501 -0.00000000000E+00 -0.00000000000E+00 -0.36450256395E+03  0.36450256395E+03  0.00000000000E+00 0.  1.
         23    2    1    2    0    0 -0.96937711896E+02  0.96779901272E+02  0.63420942611E+03  0.65480024808E+03  0.88195801674E+02 0.  0.
         11    1    3    3    0    0 -0.31105666569E+02 -0.85987675738E+00  0.27559133132E+03  0.27734253871E+03  0.00000000000E+00 0.  1.
        -11    1    3    3    0    0 -0.65832045327E+02  0.97639778029E+02  0.35861809479E+03  0.37745770936E+03  0.00000000000E+00 0. -1.
         22    1    1    2    0    0  0.96937711896E+02 -0.96779901272E+02 -0.34096400618E+03  0.36745029975E+03  0.00000000000E+00 0.  1.
<mgrwt>
<rscale>  0 0.97928714E+03</rscale>
<asrwt>0</asrwt>
<pdfrwt beam="1">  1        1 0.10119200E+00 0.97928714E+03</pdfrwt>
<pdfrwt beam="2">  1       -1 0.56077318E-01 0.97928714E+03</pdfrwt>
<totfact> 0.96636223E+01</totfact>
</mgrwt>
</event>
<event>
 6    1  0.1585031E-006  0.1968318E+04  0.7818608E-02  0.8621578E-01
          1   -1    0    0  501    0  0.00000000000E+00  0.00000000000E+00  0.95857779248E+03  0.95857779248E+03  0.00000000000E+00 0. -1.
         -1   -1    0    0    0  501 -0.00000000000E+00 -0.00000000000E+00 -0.10104224257E+04  0.10104224257E+04  0.00000000000E+00 0.  1.
         23    2    1    2    0    0  0.23564240166E+03  0.11381078209E+03 -0.97287732470E+03  0.10115131664E+04  0.90489564620E+02 0.  0.
         13    1    3    3    0    0  0.54377444301E+02 -0.45291231364E+01 -0.12411494267E+03  0.13558000737E+03  0.00000000000E+00 0. -1.
        -13    1    3    3    0    0  0.18126495736E+03  0.11833990522E+03 -0.84876238203E+03  0.87593315903E+03  0.00000000000E+00 0.  1.
         22    1    1    2    0    0 -0.23564240166E+03 -0.11381078209E+03  0.92103269147E+03  0.95748705179E+03  0.00000000000E+00 0. -1.
<mgrwt>
<rscale>  0 0.19683176E+04</rscale>
<asrwt>0</asrwt>
<pdfrwt beam="1">  1        1 0.14747351E+00 0.19683176E+04</pdfrwt>
<pdfrwt beam="2">  1       -1 0.15544960E+00 0.19683176E+04</pdfrwt>
<totfact> 0.48049272E+00</totfact>
</mgrwt>
</event>
<event>
 6    1  0.1585031E-006  0.3780608E+04  0.7818608E-02  0.8050329E-01
          2   -1    0    0  501    0  0.00000000000E+00  0.00000000000E+00  0.38851606395E+04  0.38851606395E+04  0.00000000000E+00 0. -1.
         -2   -1    0    0    0  501 -0.00000000000E+00 -0.00000000000E+00 -0.91971733230E+03  0.91971733230E+03  0.00000000000E+00 0.  1.
         23    2    1    2    0    0 -0.34119442279E+03 -0.10130378618E+04 -0.49620348521E+03  0.11819429932E+04  0.90066625292E+02 0.  0.
         13    1    3    3    0    0 -0.19740875514E+03 -0.71243795469E+03 -0.33043886459E+03  0.80977027552E+03  0.00000000000E+00 0. -1.
        -13    1    3    3    0    0 -0.14378566765E+03 -0.30059990709E+03 -0.16576462062E+03  0.37217271771E+03  0.00000000000E+00 0.  1.
         22    1    1    2    0    0  0.34119442279E+03  0.10130378618E+04  0.34616467924E+04  0.36229349786E+04  0.00000000000E+00 0. -1.
<mgrwt>
<rscale>  0 0.37806082E+04</rscale>
<asrwt>0</asrwt>
<pdfrwt beam="1">  1        2 0.59771701E+00 0.37806082E+04</pdfrwt>
<pdfrwt beam="2">  1       -2 0.14149498E+00 0.37806082E+04</pdfrwt>
<totfact> 0.11811468E-01</totfact>
</mgrwt>
</event>
<event>
 6    1  0.1585031E-006  0.3188205E+04  0.7818608E-02  0.8191939E-01
          2   -1    0    0  501    0  0.00000000000E+00  0.00000000000E+00  0.92421229368E+03  0.92421229368E+03  0.00000000000E+00 0. -1.
         -2   -1    0    0    0  501 -0.00000000000E+00 -0.00000000000E+00 -0.27495444605E+04  0.27495444605E+04  0.00000000000E+00 0.  1.
         23    2    1    2    0    0 -0.13144556777E+04 -0.87246695560E+03 -0.66084536384E+03  0.17128840322E+04  0.90899921328E+02 0.  0.
         13    1    3    3    0    0 -0.40788002756E+03 -0.28566741464E+03 -0.25269532822E+03  0.55841464663E+03  0.00000000000E+00 0.  1.
        -13    1    3    3    0    0 -0.90657565017E+03 -0.58679954096E+03 -0.40815003562E+03  0.11544693856E+04  0.00000000000E+00 0. -1.
         22    1    1    2    0    0  0.13144556777E+04  0.87246695560E+03 -0.11644868030E+04  0.19608727219E+04  0.00000000000E+00 0. -1.
<mgrwt>
<rscale>  0 0.31882050E+04</rscale>
<asrwt>0</asrwt>
<pdfrwt beam="1">  1        2 0.14218651E+00 0.31882050E+04</pdfrwt>
<pdfrwt beam="2">  1       -2 0.42300684E+00 0.31882050E+04</pdfrwt>
<totfact> 0.12453983E-01</totfact>
</mgrwt>
</event>
<event>
 6    1  0.1585031E-006  0.5079742E+03  0.7818608E-02  0.1011718E+00
         -1   -1    0    0    0  501 -0.00000000000E+00  0.00000000000E+00  0.53098312125E+03  0.53098312125E+03  0.00000000000E+00 0.  1.
          1   -1    0    0  501    0  0.00000000000E+00 -0.00000000000E+00 -0.12149058911E+03  0.12149058911E+03  0.00000000000E+00 0. -1.
         23    2    1    2    0    0 -0.20723356524E+03  0.13235753977E+03  0.22166167903E+03  0.34304730832E+03  0.89907101490E+02 0.  0.
         11    1    3    3    0    0 -0.24240581660E+02  0.19216680157E+02 -0.40822932070E+01  0.31201790226E+02  0.00000000000E+00 0.  1.
        -11    1    3    3    0    0 -0.18299298358E+03  0.11314085962E+03  0.22574397224E+03  0.31184551809E+03  0.00000000000E+00 0. -1.
         22    1    1    2    0    0  0.20723356524E+03 -0.13235753977E+03  0.18783085311E+03  0.30942640204E+03  0.00000000000E+00 0.  1.
<mgrwt>
<rscale>  0 0.50797422E+03</rscale>
<asrwt>0</asrwt>
<pdfrwt beam="1">  1        1 0.18690860E-01 0.50797422E+03</pdfrwt>
<pdfrwt beam="2">  1       -1 0.81689710E-01 0.50797422E+03</pdfrwt>
<totfact> 0.43430978E+02</totfact>
</mgrwt>
</event>
<event>
 6    1  0.1585031E-006  0.1712044E+04  0.7818608E-02  0.8754525E-01
         -1   -1    0    0    0  501 -0.00000000000E+00  0.00000000000E+00  0.51815755469E+03  0.51815755469E+03  0.00000000000E+00 0.  1.
          1   -1    0    0  501    0  0.00000000000E+00 -0.00000000000E+00 -0.14141906697E+04  0.14141906697E+04  0.00000000000E+00 0. -1.
         23    2    1    2    0    0  0.13505154459E+03  0.69811305072E+03 -0.98230797791E+03  0.12160772539E+04  0.91182085066E+02 0.  0.
         11    1    3    3    0    0  0.13657280711E+03  0.52103454206E+03 -0.70864266085E+03  0.89011434459E+03  0.00000000000E+00 0. -1.
        -11    1    3    3    0    0 -0.15212625167E+01  0.17707850866E+03 -0.27366531705E+03  0.32596290928E+03  0.00000000000E+00 0.  1.
         22    1    1    2    0    0 -0.13505154459E+03 -0.69811305072E+03  0.86274862878E+02  0.71627097055E+03  0.00000000000E+00 0.  1.
<mgrwt>
<rscale>  0 0.17120439E+04</rscale>
<asrwt>0</asrwt>
<pdfrwt beam="1">  1        1 0.21756779E+00 0.17120439E+04</pdfrwt>
<pdfrwt beam="2">  1       -1 0.79716547E-01 0.17120439E+04</pdfrwt>
<totfact> 0.11218984E+01</totfact>
</mgrwt>
</event>
<event>
 6    1  0.1585031E-006  0.1060227E+04  0.7818608E-02  0.9244848E-01
         -1   -1    0    0    0  501 -0.00000000000E+00  0.00000000000E+00  0.42709890621E+03  0.42709890621E+03  0.00000000000E+00 0.  1.
          1   -1    0    0  501    0  0.00000000000E+00 -0.00000000000E+00 -0.65797518086E+03  0.65797518086E+03  0.00000000000E+00 0. -1.
         23    2    1    2    0    0  0.35376311385E+03  0.10543055748E+03  0.26729198647E+03  0.46504541067E+03  0.92510998186E+02 0.  0.
         11    1    3    3    0    0  0.13981243845E+03  0.63245139791E+02  0.16112241952E+03  0.22250370722E+03  0.00000000000E+00 0.  1.
        -11    1    3    3    0    0  0.21395067540E+03  0.42185417690E+02  0.10616956695E+03  0.24254170346E+03  0.00000000000E+00 0. -1.
         22    1    1    2    0    0 -0.35376311385E+03 -0.10543055748E+03 -0.49816826112E+03  0.62002867640E+03  0.00000000000E+00 0. -1.
<mgrwt>
<rscale>  0 0.10602273E+04</rscale>
<asrwt>0</asrwt>
<pdfrwt beam="1">  1        1 0.10122695E+00 0.10602273E+04</pdfrwt>
<pdfrwt beam="2">  1       -1 0.65707524E-01 0.10602273E+04</pdfrwt>
<totfact> 0.70168876E+01</totfact>
</mgrwt>
</event>
<event>
 6    1  0.1585031E-006  0.3104229E+04  0.7818608E-02  0.8214578E-01
          2   -1    0    0  501    0  0.00000000000E+00  0.00000000000E+00  0.21800104355E+04  0.21800104355E+04  0.00000000000E+00 0. -1.
         -2   -1    0    0    0  501 -0.00000000000E+00 -0.00000000000E+00 -0.11050679425E+04  0.11050679425E+04  0.00000000000E+00 0.  1.
         23    2    1    2    0    0 -0.11687089834E+04 -0.10085113488E+04  0.38063346161E+03  0.15924352203E+04  0.89399497338E+02 0.  0.
         13    1    3    3    0    0 -0.90750421203E+03 -0.76246314721E+03  0.32731126846E+03  0.12296530454E+04  0.00000000000E+00 0. -1.
        -13    1    3    3    0    0 -0.26120477140E+03 -0.24604820154E+03  0.53322193143E+02  0.36278217482E+03  0.00000000000E+00 0.  1.
         22    1    1    2    0    0  0.11687089834E+04  0.10085113488E+04  0.69430903139E+03  0.16926431578E+04  0.00000000000E+00 0. -1.
<mgrwt>
<rscale>  0 0.31042291E+04</rscale>
<asrwt>0</asrwt>
<pdfrwt beam="1">  1        2 0.33538622E+00 0.31042291E+04</pdfrwt>
<pdfrwt beam="2">  1       -2 0.17001045E+00 0.31042291E+04</pdfrwt>
<totfact> 0.95842981E-01</totfact>
</mgrwt>
</event>
<event>
 6    1  0.1848385E-006  0.2399904E+04  0.7818608E-02  0.8439539E-01
         -2   -1    0    0    0  501 -0.00000000000E+00  0.00000000000E+00  0.64670587754E+03  0.64670587754E+03  0.00000000000E+00 0.  1.
          2   -1    0    0  501    0  0.00000000000E+00 -0.00000000000E+00 -0.22264910503E+04  0.22264910503E+04  0.00000000000E+00 0. -1.
         23    2    1    2    0    0  0.61877007619E+03  0.15303038041E+03 -0.20057522995E+04  0.21065531399E+04  0.90714606264E+02 0.  0.
         13    1    3    3    0    0  0.31664619500E+03  0.11933323054E+03 -0.98572975854E+03  0.10421940268E+04  0.00000000000E+00 0. -1.
        -13    1    3    3    0    0  0.30212388119E+03  0.33697149876E+02 -0.10200225410E+04  0.10643591131E+04  0.00000000000E+00 0.  1.
         22    1    1    2    0    0 -0.61877007619E+03 -0.15303038041E+03  0.42596712674E+03  0.76664378794E+03  0.00000000000E+00 0.  1.
<mgrwt>
<rscale>  0 0.23999040E+04</rscale>
<asrwt>0</asrwt>
<pdfrwt beam="1">  1        2 0.34253709E+00 0.23999040E+04</pdfrwt>
<pdfrwt beam="2">  1       -2 0.99493212E-01 0.23999040E+04</pdfrwt>
<totfact> 0.37503457E+00</totfact>
</mgrwt>
</event>
<event>
 6    1  0.1585031E-006  0.1158538E+04  0.7818608E-02  0.9149943E-01
          2   -1    0    0  501    0  0.00000000000E+00  0.00000000000E+00  0.26528462674E+04  0.26528462674E+04  0.00000000000E+00 0. -1.
         -2   -1    0    0    0  501 -0.00000000000E+00 -0.00000000000E+00 -0.12648779659E+03  0.12648779659E+03  0.00000000000E+00 0.  1.
         23    2    1    2    0    0 -0.79667334338E+02  0.55699055487E+03  0.97866878739E+03  0.11325405983E+04  0.90940909911E+02 0.  0.
         11    1    3    3    0    0  0.64507661943E+01  0.75894153587E+02  0.19015261057E+03  0.20484030424E+03  0.00000000000E+00 0. -1.
        -11    1    3    3    0    0 -0.86118100532E+02  0.48109640129E+03  0.78851617682E+03  0.92770029410E+03  0.00000000000E+00 0.  1.
         22    1    1    2    0    0  0.79667334338E+02 -0.55699055487E+03  0.15476896834E+04  0.16467934657E+04  0.00000000000E+00 0. -1.
<mgrwt>
<rscale>  0 0.11585382E+04</rscale>
<asrwt>0</asrwt>
<pdfrwt beam="1">  1        2 0.40813016E+00 0.11585382E+04</pdfrwt>
<pdfrwt beam="2">  1       -2 0.19459663E-01 0.11585382E+04</pdfrwt>
<totfact> 0.63460451E+01</totfact>
</mgrwt>
</event>
<event>
 6    1  0.1585031E-006  0.1354488E+04  0.7818608E-02  0.8987438E-01
         -1   -1    0    0    0  501 -0.00000000000E+00  0.00000000000E+00  0.29296030028E+03  0.29296030028E+03  0.00000000000E+00 0.  1.
          1   -1    0    0  501    0  0.00000000000E+00 -0.00000000000E+00 -0.15656031435E+04  0.15656031435E+04  0.00000000000E+00 0. -1.
         23    2    1    2    0    0 -0.38610134341E+01 -0.66589685359E+03 -0.78340550969E+03  0.10322543639E+04  0.91604323281E+02 0.  0.
         11    1    3    3    0    0  0.27181435163E+02 -0.77047751119E+02 -0.79454810758E+02  0.11396601828E+03  0.00000000000E+00 0. -1.
        -11    1    3    3    0    0 -0.31042448597E+02 -0.58884910247E+03 -0.70395069893E+03  0.91828834558E+03  0.00000000000E+00 0.  1.
         22    1    1    2    0    0  0.38610134341E+01  0.66589685359E+03 -0.48923733356E+03  0.82630907995E+03  0.00000000000E+00 0.  1.
<mgrwt>
<rscale>  0 0.13544882E+04</rscale>
<asrwt>0</asrwt>
<pdfrwt beam="1">  1        1 0.24086202E+00 0.13544882E+04</pdfrwt>
<pdfrwt beam="2">  1       -1 0.45070816E-01 0.13544882E+04</pdfrwt>
<totfact> 0.28154516E+01</totfact>
</mgrwt>
</event>
<event>
 6    1  0.1585031E-006  0.1318041E+04  0.7818608E-02  0.9015380E-01
          1   -1    0    0  501    0  0.00000000000E+00  0.00000000000E+00  0.96754668389E+03  0.96754668389E+03  0.00000000000E+00 0. -1.
         -1   -1    0    0    0  501 -0.00000000000E+00 -0.00000000000E+00 -0.44887522714E+03  0.44887522714E+03  0.00000000000E+00 0.  1.
         23    2    1    2    0    0 -0.26061518960E+03 -0.58575247576E+03  0.40884048052E+03  0.76596892792E+03  0.92366769551E+02 0.  0.
         11    1    3    3    0    0 -0.10306688217E+02 -0.32438247547E+02  0.29108126254E+00  0.34037515395E+02  0.00000000000E+00 0.  1.
        -11    1    3    3    0    0 -0.25030850138E+03 -0.55331422821E+03  0.40854939925E+03  0.73193141252E+03  0.00000000000E+00 0. -1.
         22    1    1    2    0    0  0.26061518960E+03  0.58575247576E+03  0.10983097623E+03  0.65045298312E+03  0.00000000000E+00 0.  1.
<mgrwt>
<rscale>  0 0.13180406E+04</rscale>
<asrwt>0</asrwt>
<pdfrwt beam="1">  1        1 0.14885334E+00 0.13180406E+04</pdfrwt>
<pdfrwt beam="2">  1       -1 0.69057728E-01 0.13180406E+04</pdfrwt>
<totfact> 0.33413900E+01</totfact>
</mgrwt>
</event>
<event>
 6    1  0.1585031E-006  0.2882094E+04  0.7818608E-02  0.8278225E-01
         -1   -1    0    0    0  501 -0.00000000000E+00  0.00000000000E+00  0.85802972488E+03  0.85802972488E+03  0.00000000000E+00 0. -1.
          1   -1    0    0  501    0  0.00000000000E+00 -0.00000000000E+00 -0.24202142163E+04  0.24202142163E+04  0.00000000000E+00 0.  1.
         23    2    1    2    0    0 -0.49850508255E+03 -0.12396689552E+04 -0.17238456458E+03  0.13503356777E+04  0.91670980560E+02 0.  0.
         13    1    3    3    0    0 -0.21341233543E+03 -0.41862189844E+03 -0.73438503127E+02  0.47558630395E+03  0.00000000000E+00 0.  1.
        -13    1    3    3    0    0 -0.28509274711E+03 -0.82104705672E+03 -0.98946061453E+02  0.87474937375E+03  0.00000000000E+00 0. -1.
         22    1    1    2    0    0  0.49850508255E+03  0.12396689552E+04 -0.13897999268E+04  0.19279082634E+04  0.00000000000E+00 0. -1.
<mgrwt>
<rscale>  0 0.28820935E+04</rscale>
<asrwt>0</asrwt>
<pdfrwt beam="1">  1        1 0.37234065E+00 0.28820935E+04</pdfrwt>
<pdfrwt beam="2">  1       -1 0.13200457E+00 0.28820935E+04</pdfrwt>
<totfact> 0.64496994E-01</totfact>
</mgrwt>
</event>
<event>
 6    1  0.1585031E-006  0.1176432E+04  0.7818608E-02  0.9133740E-01
         -1   -1    0    0    0  501 -0.00000000000E+00  0.00000000000E+00  0.28743387017E+03  0.28743387017E+03  0.00000000000E+00 0. -1.
          1   -1    0    0  501    0  0.00000000000E+00 -0.00000000000E+00 -0.12037476556E+04  0.12037476556E+04  0.00000000000E+00 0.  1.
         23    2    1    2    0    0  0.34096015052E+03  0.53163732796E+02  0.13838674947E+03  0.38146380263E+03  0.85343620513E+02 0.  0.
         13    1    3    3    0    0  0.20919196491E+03  0.14985352002E+02  0.12370488854E+03  0.24349278923E+03  0.00000000000E+00 0.  1.
        -13    1    3    3    0    0  0.13176818561E+03  0.38178380793E+02  0.14681860927E+02  0.13797101341E+03  0.00000000000E+00 0. -1.
         22    1    1    2    0    0 -0.34096015052E+03 -0.53163732796E+02 -0.10547005349E+04  0.11097177232E+04  0.00000000000E+00 0.  1.
<mgrwt>
<rscale>  0 0.11764316E+04</rscale>
<asrwt>0</asrwt>
<pdfrwt beam="1">  1        1 0.18519194E+00 0.11764316E+04</pdfrwt>
<pdfrwt beam="2">  1       -1 0.44220596E-01 0.11764316E+04</pdfrwt>
<totfact> 0.53239029E+01</totfact>
</mgrwt>
</event>
<event>
 6    1  0.1585031E-006  0.2986151E+04  0.7818608E-02  0.8247697E-01
         -1   -1    0    0    0  501 -0.00000000000E+00  0.00000000000E+00  0.11348711083E+04  0.11348711083E+04  0.00000000000E+00 0.  1.
          1   -1    0    0  501    0  0.00000000000E+00 -0.00000000000E+00 -0.19643412824E+04  0.19643412824E+04  0.00000000000E+00 0. -1.
         23    2    1    2    0    0  0.84301186371E+03  0.81061196498E+03  0.54595934451E+03  0.12937852610E+04  0.89710286475E+02 0.  0.
         13    1    3    3    0    0  0.66824343257E+03  0.66971657999E+03  0.47303380579E+03  0.10577478736E+04  0.00000000000E+00 0. -1.
        -13    1    3    3    0    0  0.17476843113E+03  0.14089538498E+03  0.72925538715E+02  0.23603738735E+03  0.00000000000E+00 0.  1.
         22    1    1    2    0    0 -0.84301186371E+03 -0.81061196498E+03 -0.13754295187E+04  0.18054271298E+04  0.00000000000E+00 0. -1.
<mgrwt>
<rscale>  0 0.29861508E+04</rscale>
<asrwt>0</asrwt>
<pdfrwt beam="1">  1        1 0.30220635E+00 0.29861508E+04</pdfrwt>
<pdfrwt beam="2">  1       -1 0.17459556E+00 0.29861508E+04</pdfrwt>
<totfact> 0.61137295E-01</totfact>
</mgrwt>
</event>
<event>
 6    1  0.1585031E-006  0.1580877E+04  0.7818608E-02  0.8832383E-01
         -2   -1    0    0    0  501 -0.00000000000E+00  0.00000000000E+00  0.27301002255E+03  0.27301002255E+03  0.00000000000E+00 0. -1.
          2   -1    0    0  501    0  0.00000000000E+00 -0.00000000000E+00 -0.22885349076E+04  0.22885349076E+04  0.00000000000E+00 0.  1.
         23    2    1    2    0    0  0.30824483102E+03 -0.42238579002E+02 -0.21838886376E+04  0.22077860764E+04  0.90281804580E+02 0.  0.
         13    1    3    3    0    0  0.10876953637E+03  0.28264540145E+02 -0.74960525086E+03  0.75798267024E+03  0.00000000000E+00 0. -1.
        -13    1    3    3    0    0  0.19947529465E+03 -0.70503119147E+02 -0.14342833868E+04  0.14498034062E+04  0.00000000000E+00 0.  1.
         22    1    1    2    0    0 -0.30824483102E+03  0.42238579002E+02  0.16836375258E+03  0.35375885373E+03  0.00000000000E+00 0. -1.
<mgrwt>
<rscale>  0 0.15808769E+04</rscale>
<asrwt>0</asrwt>
<pdfrwt beam="1">  1        2 0.35208227E+00 0.15808769E+04</pdfrwt>
<pdfrwt beam="2">  1       -2 0.42001544E-01 0.15808769E+04</pdfrwt>
<totfact> 0.23769722E+01</totfact>
</mgrwt>
</event>
<event>
 6    1  0.1585031E-006  0.2855549E+04  0.7818608E-02  0.8286227E-01
         -2   -1    0    0    0  501 -0.00000000000E+00  0.00000000000E+00  0.12049721443E+04  0.12049721443E+04  0.00000000000E+00 0.  1.
          2   -1    0    0  501    0  0.00000000000E+00 -0.00000000000E+00 -0.16917741513E+04  0.16917741513E+04  0.00000000000E+00 0. -1.
         23    2    1    2    0    0 -0.89817648932E+03  0.55839596784E+02  0.87895714833E+03  0.12611616487E+04  0.90133063427E+02 0.  0.
         11    1    3    3    0    0 -0.14039801476E+03  0.40032262826E+02  0.15733426260E+03  0.21463516675E+03  0.00000000000E+00 0.  1.
        -11    1    3    3    0    0 -0.75777847457E+03  0.15807333958E+02  0.72162288572E+03  0.10465264820E+04  0.00000000000E+00 0. -1.
         22    1    1    2    0    0  0.89817648932E+03 -0.55839596784E+02 -0.13657591553E+04  0.16355846468E+04  0.00000000000E+00 0. -1.
<mgrwt>
<rscale>  0 0.28555495E+04</rscale>
<asrwt>0</asrwt>
<pdfrwt beam="1">  1        2 0.26027295E+00 0.28555495E+04</pdfrwt>
<pdfrwt beam="2">  1       -2 0.18538033E+00 0.28555495E+04</pdfrwt>
<totfact> 0.14300690E+00</totfact>
</mgrwt>
</event>
<event>
 6    1  0.1585031E-006  0.2052829E+04  0.7818608E-02  0.8582312E-01
         -2   -1    0    0    0  501 -0.00000000000E+00  0.00000000000E+00  0.47733687876E+03  0.47733687876E+03  0.00000000000E+00 0.  1.
          2   -1    0    0  501    0  0.00000000000E+00 -0.00000000000E+00 -0.22070917755E+04  0.22070917755E+04  0.00000000000E+00 0. -1.
         23    2    1    2    0    0  0.44851094546E+03  0.76068981392E+03 -0.18772876232E+03  0.90744929017E+03  0.91711857562E+02 0.  0.
         11    1    3    3    0    0  0.32164850864E+03  0.53466246678E+03 -0.89869203217E+02  0.63039526504E+03  0.00000000000E+00 0. -1.
        -11    1    3    3    0    0  0.12686243682E+03  0.22602734714E+03 -0.97859559107E+02  0.27705402513E+03  0.00000000000E+00 0.  1.
         22    1    1    2    0    0 -0.44851094546E+03 -0.76068981392E+03 -0.15420261344E+04  0.17769793641E+04  0.00000000000E+00 0. -1.
<mgrwt>
<rscale>  0 0.20528286E+04</rscale>
<asrwt>0</asrwt>
<pdfrwt beam="1">  1        2 0.33955258E+00 0.20528286E+04</pdfrwt>
<pdfrwt beam="2">  1       -2 0.73436443E-01 0.20528286E+04</pdfrwt>
<totfact> 0.79189895E+00</totfact>
</mgrwt>
</event>
<event>
 6    1  0.1585031E-006  0.1278322E+04  0.7818608E-02  0.9046934E-01
         -2   -1    0    0    0  501 -0.00000000000E+00  0.00000000000E+00  0.24013019688E+03  0.24013019688E+03  0.00000000000E+00 0.  1.
          2   -1    0    0  501    0  0.00000000000E+00 -0.00000000000E+00 -0.17012732116E+04  0.17012732116E+04  0.00000000000E+00 0. -1.
         23    2    1    2    0    0 -0.96350786506E+02 -0.61575153961E+03 -0.54346722160E+03  0.83209628515E+03  0.92704769108E+02 0.  0.
         13    1    3    3    0    0 -0.25803345687E+01 -0.18931613455E+03 -0.12197450675E+03  0.22522219523E+03  0.00000000000E+00 0. -1.
        -13    1    3    3    0    0 -0.93770451937E+02 -0.42643540506E+03 -0.42149271485E+03  0.60687408992E+03  0.00000000000E+00 0.  1.
         22    1    1    2    0    0  0.96350786506E+02  0.61575153961E+03 -0.91767579315E+03  0.11093071234E+04  0.00000000000E+00 0. -1.
<mgrwt>
<rscale>  0 0.12783224E+04</rscale>
<asrwt>0</asrwt>
<pdfrwt beam="1">  1        2 0.26173434E+00 0.12783224E+04</pdfrwt>
<pdfrwt beam="2">  1       -2 0.36943107E-01 0.12783224E+04</pdfrwt>
<totfact> 0.66345816E+01</totfact>
</mgrwt>
</event>
<event>
 6    1  0.1585031E-006  0.2033577E+04  0.7818608E-02  0.8591081E-01
         -2   -1    0    0    0  501 -0.00000000000E+00  0.00000000000E+00  0.40892844514E+03  0.40892844514E+03  0.00000000000E+00 0.  1.
          2   -1    0    0  501    0  0.00000000000E+00 -0.00000000000E+00 -0.25282135505E+04  0.25282135505E+04  0.00000000000E+00 0. -1.
         23    2    1    2    0    0 -0.41438556538E+03 -0.34657800617E+03  0.17915329570E+03  0.57607215453E+03  0.89059040624E+02 0.  0.
         13    1    3    3    0    0 -0.11049099580E+03 -0.12472671860E+03  0.90064099185E+02  0.18941107794E+03  0.00000000000E+00 0. -1.
        -13    1    3    3    0    0 -0.30389456958E+03 -0.22185128757E+03  0.89089196511E+02  0.38666107659E+03  0.00000000000E+00 0.  1.
         22    1    1    2    0    0  0.41438556538E+03  0.34657800617E+03 -0.22984384011E+04  0.23610698411E+04  0.00000000000E+00 0. -1.
<mgrwt>
<rscale>  0 0.20335766E+04</rscale>
<asrwt>0</asrwt>
<pdfrwt beam="1">  1        2 0.38895593E+00 0.20335766E+04</pdfrwt>
<pdfrwt beam="2">  1       -2 0.62912069E-01 0.20335766E+04</pdfrwt>
<totfact> 0.72764111E+00</totfact>
</mgrwt>
</event>
<event>
 6    1  0.1585031E-006  0.1514934E+04  0.7818608E-02  0.8874582E-01
         -2   -1    0    0    0  501 -0.00000000000E+00  0.00000000000E+00  0.21489734013E+03  0.21489734013E+03  0.00000000000E+00 0.  1.
          2   -1    0    0  501    0  0.00000000000E+00 -0.00000000000E+00 -0.26699088455E+04  0.26699088455E+04  0.00000000000E+00 0. -1.
         23    2    1    2    0    0 -0.73303410746E+03 -0.17694820162E+03 -0.12927577626E+04  0.14993519527E+04  0.90465334607E+02 0.  0.
         11    1    3    3    0    0 -0.27107236390E+03 -0.74247869446E+02 -0.39922233036E+03  0.48823297886E+03  0.00000000000E+00 0. -1.
        -11    1    3    3    0    0 -0.46196174356E+03 -0.10270033218E+03 -0.89353543220E+03  0.10111189739E+04  0.00000000000E+00 0.  1.
         22    1    1    2    0    0  0.73303410746E+03  0.17694820162E+03 -0.11622537428E+04  0.13854542329E+04  0.00000000000E+00 0. -1.
<mgrwt>
<rscale>  0 0.15149341E+04</rscale>
<asrwt>0</asrwt>
<pdfrwt beam="1">  1        2 0.41075520E+00 0.15149341E+04</pdfrwt>
<pdfrwt beam="2">  1       -2 0.33061130E-01 0.15149341E+04</pdfrwt>
<totfact> 0.22898288E+01</totfact>
</mgrwt>
</event>
<event>
 6    1  0.1585031E-006  0.1930399E+04  0.7818608E-02  0.8639871E-01
         -2   -1    0    0    0  501 -0.00000000000E+00  0.00000000000E+00  0.24257796226E+03  0.24257796226E+03  0.00000000000E+00 0. -1.
          2   -1    0    0  501    0  0.00000000000E+00 -0.00000000000E+00 -0.38404554481E+04  0.38404554481E+04  0.00000000000E+00 0.  1.
         23    2    1    2    0    0 -0.29439111609E+03 -0.92418986495E+02 -0.37325364251E+04  0.37463727084E+04  0.90955524467E+02 0.  0.
         13    1    3    3    0    0 -0.95876686517E+02 -0.75289969657E+02 -0.13143220018E+04  0.13199633491E+04  0.00000000000E+00 0. -1.
        -13    1    3    3    0    0 -0.19851442958E+03 -0.17129016838E+02 -0.24182144233E+04  0.24264093594E+04  0.00000000000E+00 0.  1.
         22    1    1    2    0    0  0.29439111609E+03  0.92418986495E+02  0.13465893926E+03  0.33666070193E+03  0.00000000000E+00 0. -1.
<mgrwt>
<rscale>  0 0.19303988E+04</rscale>
<asrwt>0</asrwt>
<pdfrwt beam="1">  1        2 0.59083927E+00 0.19303988E+04</pdfrwt>
<pdfrwt beam="2">  1       -2 0.37319688E-01 0.19303988E+04</pdfrwt>
<totfact> 0.29214692E+00</totfact>
</mgrwt>
</event>
<event>
 6    1  0.1823480E-006  0.2692604E+04  0.7818608E-02  0.8337409E-01
         -2   -1    0    0    0  501 -0.00000000000E+00  0.00000000000E+00  0.88885926964E+03  0.88885926964E+03  0.00000000000E+00 0.  1.
          2   -1    0    0  501    0  0.00000000000E+00 -0.00000000000E+00 -0.20391633456E+04  0.20391633456E+04  0.00000000000E+00 0. -1.
         23    2    1    2    0    0 -0.75582918685E+03  0.52772787067E+03  0.48937760579E+03  0.10469775646E+04  0.83048868190E+02 0.  0.
         11    1    3    3    0    0 -0.32733980612E+03  0.27339921162E+03  0.20421267700E+03  0.47286498605E+03  0.00000000000E+00 0. -1.
        -11    1    3    3    0    0 -0.42848938073E+03  0.25432865905E+03  0.28516492879E+03  0.57411257853E+03  0.00000000000E+00 0.  1.
         22    1    1    2    0    0  0.75582918685E+03 -0.52772787067E+03 -0.16396816818E+04  0.18810450507E+04  0.00000000000E+00 0. -1.
<mgrwt>
<rscale>  0 0.26926041E+04</rscale>
<asrwt>0</asrwt>
<pdfrwt beam="1">  1        2 0.31371744E+00 0.26926041E+04</pdfrwt>
<pdfrwt beam="2">  1       -2 0.13674758E+00 0.26926041E+04</pdfrwt>
<totfact> 0.21291829E+00</totfact>
</mgrwt>
</event>
<event>
 6    1  0.1585031E-006  0.1202926E+04  0.7818608E-02  0.9110299E-01
          2   -1    0    0  501    0  0.00000000000E+00  0.00000000000E+00  0.58027367492E+03  0.58027367492E+03  0.00000000000E+00 0.  1.
         -2   -1    0    0    0  501 -0.00000000000E+00 -0.00000000000E+00 -0.62342586159E+03  0.62342586159E+03  0.00000000000E+00 0. -1.
         23    2    1    2    0    0 -0.30245585521E+03  0.44082805671E+03 -0.28947330541E+03  0.61507145913E+03  0.93323016202E+02 0.  0.
         13    1    3    3    0    0 -0.23133427046E+03  0.27273863777E+03 -0.21937749799E+03  0.41955738087E+03  0.00000000000E+00 0. -1.
        -13    1    3    3    0    0 -0.71121584753E+02  0.16808941894E+03 -0.70095807426E+02  0.19551407826E+03  0.00000000000E+00 0.  1.
         22    1    1    2    0    0  0.30245585521E+03 -0.44082805671E+03  0.24632111874E+03  0.58862807737E+03  0.00000000000E+00 0.  1.
<mgrwt>
<rscale>  0 0.12029258E+04</rscale>
<asrwt>0</asrwt>
<pdfrwt beam="1">  1        2 0.89272873E-01 0.12029258E+04</pdfrwt>
<pdfrwt beam="2">  1       -2 0.95911671E-01 0.12029258E+04</pdfrwt>
<totfact> 0.46445598E+01</totfact>
</mgrwt>
</event>
<event>
 6    1  0.1585031E-006  0.3979710E+04  0.7818608E-02  0.8008652E-01
          2   -1    0    0  501    0  0.00000000000E+00  0.00000000000E+00  0.13753450885E+04  0.13753450885E+04  0.00000000000E+00 0. -1.
         -2   -1    0    0    0  501 -0.00000000000E+00 -0.00000000000E+00 -0.28789308929E+04  0.28789308929E+04  0.00000000000E+00 0.  1.
         23    2    1    2    0    0  0.63442842292E+03 -0.14065174632E+04 -0.20935470459E+04  0.26023543535E+04  0.92293821372E+02 0.  0.
         11    1    3    3    0    0  0.24302974374E+03 -0.63912661373E+03 -0.96014407363E+03  0.11787378533E+04  0.00000000000E+00 0.  1.
        -11    1    3    3    0    0  0.39139867918E+03 -0.76739084952E+03 -0.11334029723E+04  0.14236165002E+04  0.00000000000E+00 0. -1.
         22    1    1    2    0    0 -0.63442842292E+03  0.14065174632E+04  0.58996124146E+03  0.16519216279E+04  0.00000000000E+00 0. -1.
<mgrwt>
<rscale>  0 0.39797103E+04</rscale>
<asrwt>0</asrwt>
<pdfrwt beam="1">  1        2 0.21159155E+00 0.39797103E+04</pdfrwt>
<pdfrwt beam="2">  1       -2 0.44291245E+00 0.39797103E+04</pdfrwt>
<totfact> 0.45668867E-02</totfact>
</mgrwt>
</event>
<event>
 6    1  0.1585031E-006  0.1625848E+04  0.7818608E-02  0.8804824E-01
         -2   -1    0    0    0  501 -0.00000000000E+00  0.00000000000E+00  0.99201207237E+03  0.99201207237E+03  0.00000000000E+00 0.  1.
          2   -1    0    0  501    0  0.00000000000E+00 -0.00000000000E+00 -0.66616684952E+03  0.66616684952E+03  0.00000000000E+00 0. -1.
         23    2    1    2    0    0 -0.14502755603E+03 -0.47655850920E+02  0.97514626416E+03  0.99117373872E+03  0.90614963950E+02 0.  0.
         13    1    3    3    0    0 -0.15726717695E+03 -0.45237232495E+02  0.93209357460E+03  0.94634972604E+03  0.00000000000E+00 0. -1.
        -13    1    3    3    0    0  0.12239620918E+02 -0.24186184242E+01  0.43052689555E+02  0.44824012686E+02  0.00000000000E+00 0.  1.
         22    1    1    2    0    0  0.14502755603E+03  0.47655850920E+02 -0.64930104131E+03  0.66700518317E+03  0.00000000000E+00 0. -1.
<mgrwt>
<rscale>  0 0.16258482E+04</rscale>
<asrwt>0</asrwt>
<pdfrwt beam="1">  1        2 0.10248721E+00 0.16258482E+04</pdfrwt>
<pdfrwt beam="2">  1       -2 0.15261724E+00 0.16258482E+04</pdfrwt>
<totfact> 0.11934432E+01</totfact>
</mgrwt>
</event>
<event>
 6    1  0.1585031E-006  0.2163840E+04  0.7818608E-02  0.8533631E-01
         -2   -1    0    0    0  501 -0.00000000000E+00  0.00000000000E+00  0.71136584462E+03  0.71136584462E+03  0.00000000000E+00 0.  1.
          2   -1    0    0  501    0  0.00000000000E+00 -0.00000000000E+00 -0.16454974072E+04  0.16454974072E+04  0.00000000000E+00 0. -1.
         23    2    1    2    0    0 -0.33707417525E+03 -0.71238523976E+03  0.33632929944E+03  0.86181056666E+03  0.92132110049E+02 0.  0.
         11    1    3    3    0    0 -0.11838383269E+03 -0.31558722083E+03  0.18275622489E+03  0.38341865308E+03  0.00000000000E+00 0.  1.
        -11    1    3    3    0    0 -0.21869034256E+03 -0.39679801893E+03  0.15357307455E+03  0.47839191358E+03  0.00000000000E+00 0. -1.
         22    1    1    2    0    0  0.33707417525E+03  0.71238523976E+03 -0.12704608620E+04  0.14950526851E+04  0.00000000000E+00 0.  1.
<mgrwt>
<rscale>  0 0.21638398E+04</rscale>
<asrwt>0</asrwt>
<pdfrwt beam="1">  1        2 0.25315344E+00 0.21638398E+04</pdfrwt>
<pdfrwt beam="2">  1       -2 0.10944090E+00 0.21638398E+04</pdfrwt>
<totfact> 0.64142877E+00</totfact>
</mgrwt>
</event>
<event>
 6    1  0.1585031E-006  0.3094870E+04  0.7818608E-02  0.8217147E-01
         -1   -1    0    0    0  501 -0.00000000000E+00  0.00000000000E+00  0.16946484856E+04  0.16946484856E+04  0.00000000000E+00 0.  1.
          1   -1    0    0  501    0  0.00000000000E+00 -0.00000000000E+00 -0.14130096848E+04  0.14130096848E+04  0.00000000000E+00 0. -1.
         23    2    1    2    0    0 -0.87763686127E+03  0.33280930132E+03  0.13746910456E+04  0.16669043048E+04  0.88238309268E+02 0.  0.
         13    1    3    3    0    0 -0.34953829002E+03  0.93488607667E+02  0.56846745136E+03  0.67384892908E+03  0.00000000000E+00 0.  1.
        -13    1    3    3    0    0 -0.52809857124E+03  0.23932069366E+03  0.80622359422E+03  0.99305537572E+03  0.00000000000E+00 0. -1.
         22    1    1    2    0    0  0.87763686127E+03 -0.33280930132E+03 -0.10930522448E+04  0.14407538656E+04  0.00000000000E+00 0. -1.
<mgrwt>
<rscale>  0 0.30948698E+04</rscale>
<asrwt>0</asrwt>
<pdfrwt beam="1">  1        1 0.21738611E+00 0.30948698E+04</pdfrwt>
<pdfrwt beam="2">  1       -1 0.26071515E+00 0.30948698E+04</pdfrwt>
<totfact> 0.37698506E-01</totfact>
</mgrwt>
</event>
<event>
 6    1  0.1585031E-006  0.1712896E+04  0.7818608E-02  0.8754043E-01
          2   -1    0    0  501    0  0.00000000000E+00  0.00000000000E+00  0.10318654463E+04  0.10318654463E+04  0.00000000000E+00 0. -1.
         -2   -1    0    0    0  501 -0.00000000000E+00 -0.00000000000E+00 -0.71085160364E+03  0.71085160364E+03  0.00000000000E+00 0.  1.
         23    2    1    2    0    0 -0.41216567988E+03 -0.34536842065E+03 -0.51398362191E+03  0.74955006525E+03  0.92120806944E+02 0.  0.
         11    1    3    3    0    0 -0.25908078424E+03 -0.20209454397E+03 -0.37195618213E+03  0.49630278952E+03  0.00000000000E+00 0.  1.
        -11    1    3    3    0    0 -0.15308489565E+03 -0.14327387668E+03 -0.14202743978E+03  0.25324727573E+03  0.00000000000E+00 0. -1.
         22    1    1    2    0    0  0.41216567988E+03  0.34536842065E+03  0.83499746462E+03  0.99316698474E+03  0.00000000000E+00 0. -1.
<mgrwt>
<rscale>  0 0.17128960E+04</rscale>
<asrwt>0</asrwt>
<pdfrwt beam="1">  1        2 0.15874853E+00 0.17128960E+04</pdfrwt>
<pdfrwt beam="2">  1       -2 0.10936178E+00 0.17128960E+04</pdfrwt>
<totfact> 0.15226260E+01</totfact>
</mgrwt>
</event>
<event>
 6    1  0.1585031E-006  0.2101324E+04  0.7818608E-02  0.8560660E-01
          2   -1    0    0  501    0  0.00000000000E+00  0.00000000000E+00  0.40726612222E+04  0.40726612222E+04  0.00000000000E+00 0. -1.
         -2   -1    0    0    0  501 -0.00000000000E+00 -0.00000000000E+00 -0.27104892808E+03  0.27104892808E+03  0.00000000000E+00 0.  1.
         23    2    1    2    0    0  0.53265974059E+03 -0.59365064002E+02  0.37677342222E+04  0.38066828383E+04  0.88104778932E+02 0.  0.
         13    1    3    3    0    0  0.88497661274E+02 -0.28431668509E+02  0.86850193080E+03  0.87346196232E+03  0.00000000000E+00 0. -1.
        -13    1    3    3    0    0  0.44416207932E+03 -0.30933395493E+02  0.28992322914E+04  0.29332208760E+04  0.00000000000E+00 0.  1.
         22    1    1    2    0    0 -0.53265974059E+03  0.59365064002E+02  0.33878071919E+02  0.53702731200E+03  0.00000000000E+00 0.  1.
<mgrwt>
<rscale>  0 0.21013238E+04</rscale>
<asrwt>0</asrwt>
<pdfrwt beam="1">  1        2 0.62656322E+00 0.21013238E+04</pdfrwt>
<pdfrwt beam="2">  1       -2 0.41699838E-01 0.21013238E+04</pdfrwt>
<totfact> 0.15118665E+00</totfact>
</mgrwt>
</event>
<event>
 6    1  0.1585031E-006  0.3004257E+04  0.7818608E-02  0.8242516E-01
         -2   -1    0    0    0  501 -0.00000000000E+00  0.00000000000E+00  0.98358654168E+03  0.98358654168E+03  0.00000000000E+00 0.  1.
          2   -1    0    0  501    0  0.00000000000E+00 -0.00000000000E+00 -0.22940426954E+04  0.22940426954E+04  0.00000000000E+00 0. -1.
         23    2    1    2    0    0  0.60872717000E+03 -0.24701520987E+03 -0.21279670718E+04  0.22288731250E+04  0.89812401112E+02 0.  0.
         13    1    3    3    0    0  0.68383508032E+02 -0.56185286377E+02 -0.33918372333E+03  0.35054056648E+03  0.00000000000E+00 0. -1.
        -13    1    3    3    0    0  0.54034366197E+03 -0.19082992349E+03 -0.17887833484E+04  0.18783325585E+04  0.00000000000E+00 0.  1.
         22    1    1    2    0    0 -0.60872717000E+03  0.24701520987E+03  0.81751091808E+03  0.10487561121E+04  0.00000000000E+00 0.  1.
<mgrwt>
<rscale>  0 0.30042567E+04</rscale>
<asrwt>0</asrwt>
<pdfrwt beam="1">  1        2 0.35292964E+00 0.30042567E+04</pdfrwt>
<pdfrwt beam="2">  1       -2 0.15132101E+00 0.30042567E+04</pdfrwt>
<totfact> 0.11443849E+00</totfact>
</mgrwt>
</event>
<event>
 6    1  0.1585031E-006  0.3127523E+04  0.7818608E-02  0.8208225E-01
          2   -1    0    0  501    0  0.00000000000E+00  0.00000000000E+00  0.19468370737E+04  0.19468370737E+04  0.00000000000E+00 0. -1.
         -2   -1    0    0    0  501 -0.00000000000E+00 -0.00000000000E+00 -0.12560633943E+04  0.12560633943E+04  0.00000000000E+00 0.  1.
         23    2    1    2    0    0 -0.10709092713E+04  0.10870905582E+04  0.14518287738E+01  0.15284521520E+04  0.86898354333E+02 0.  0.
         11    1    3    3    0    0 -0.40517766790E+03  0.40291941001E+03 -0.41104000373E+02  0.57288963367E+03  0.00000000000E+00 0. -1.
        -11    1    3    3    0    0 -0.66573160339E+03  0.68417114824E+03  0.42555829147E+02  0.95556251833E+03  0.00000000000E+00 0.  1.
         22    1    1    2    0    0  0.10709092713E+04 -0.10870905582E+04  0.68932185058E+03  0.16744483160E+04  0.00000000000E+00 0.  1.
<mgrwt>
<rscale>  0 0.31275235E+04</rscale>
<asrwt>0</asrwt>
<pdfrwt beam="1">  1        2 0.29951339E+00 0.31275235E+04</pdfrwt>
<pdfrwt beam="2">  1       -2 0.19324052E+00 0.31275235E+04</pdfrwt>
<totfact> 0.89336750E-01</totfact>
</mgrwt>
</event>
<event>
 6    1  0.1585031E-006  0.1379753E+04  0.7818608E-02  0.8968606E-01
          2   -1    0    0  501    0  0.00000000000E+00  0.00000000000E+00  0.32584141045E+04  0.32584141045E+04  0.00000000000E+00 0. -1.
         -2   -1    0    0    0  501 -0.00000000000E+00 -0.00000000000E+00 -0.14606180695E+03  0.14606180695E+03  0.00000000000E+00 0.  1.
         23    2    1    2    0    0  0.56744940509E+03 -0.74394971677E+02  0.25001414572E+04  0.25664212878E+04  0.90980664865E+02 0.  0.
         11    1    3    3    0    0  0.19638103160E+03 -0.67228853275E+02  0.83366587342E+03  0.85911816230E+03  0.00000000000E+00 0. -1.
        -11    1    3    3    0    0  0.37106837349E+03 -0.71661184022E+01  0.16664755837E+04  0.17073031255E+04  0.00000000000E+00 0.  1.
         22    1    1    2    0    0 -0.56744940509E+03  0.74394971677E+02  0.61221084036E+03  0.83805462365E+03  0.00000000000E+00 0.  1.
<mgrwt>
<rscale>  0 0.13797534E+04</rscale>
<asrwt>0</asrwt>
<pdfrwt beam="1">  1        2 0.50129442E+00 0.13797534E+04</pdfrwt>
<pdfrwt beam="2">  1       -2 0.22471050E-01 0.13797534E+04</pdfrwt>
<totfact> 0.20389629E+01</totfact>
</mgrwt>
</event>
<event>
 6    1  0.1585031E-006  0.2688715E+04  0.7818608E-02  0.8338676E-01
         -1   -1    0    0    0  501 -0.00000000000E+00  0.00000000000E+00  0.30818413746E+04  0.30818413746E+04  0.00000000000E+00 0.  1.
          1   -1    0    0  501    0  0.00000000000E+00 -0.00000000000E+00 -0.58643425641E+03  0.58643425641E+03  0.00000000000E+00 0. -1.
         23    2    1    2    0    0  0.54231520967E+03  0.24207641642E+03  0.28922562013E+04  0.29539955929E+04  0.90759302138E+02 0.  0.
         13    1    3    3    0    0  0.23344681386E+03  0.96128249570E+02  0.14515873284E+04  0.14733783721E+04  0.00000000000E+00 0. -1.
        -13    1    3    3    0    0  0.30886839581E+03  0.14594816685E+03  0.14406688728E+04  0.14806172208E+04  0.00000000000E+00 0.  1.
         22    1    1    2    0    0 -0.54231520967E+03 -0.24207641642E+03 -0.39684908312E+03  0.71428003808E+03  0.00000000000E+00 0. -1.
<mgrwt>
<rscale>  0 0.26887152E+04</rscale>
<asrwt>0</asrwt>
<pdfrwt beam="1">  1        1 0.90220657E-01 0.26887152E+04</pdfrwt>
<pdfrwt beam="2">  1       -1 0.47412943E+00 0.26887152E+04</pdfrwt>
<totfact> 0.68306746E-02</totfact>
</mgrwt>
</event>
<event>
 6    1  0.1585031E-006  0.1749687E+04  0.7818608E-02  0.8733522E-01
         -2   -1    0    0    0  501 -0.00000000000E+00  0.00000000000E+00  0.85422691185E+03  0.85422691185E+03  0.00000000000E+00 0.  1.
          2   -1    0    0  501    0  0.00000000000E+00 -0.00000000000E+00 -0.89595806242E+03  0.89595806242E+03  0.00000000000E+00 0. -1.
         23    2    1    2    0    0  0.54039928276E+03  0.66486226672E+02  0.66136215644E+03  0.86092010850E+03  0.85625510762E+02 0.  0.
         11    1    3    3    0    0  0.46746834634E+03  0.29858143079E+02  0.54262845457E+03  0.71684294183E+03  0.00000000000E+00 0.  1.
        -11    1    3    3    0    0  0.72930936418E+02  0.36628083593E+02  0.11873370188E+03  0.14407716667E+03  0.00000000000E+00 0. -1.
         22    1    1    2    0    0 -0.54039928276E+03 -0.66486226672E+02 -0.70309330701E+03  0.88926486578E+03  0.00000000000E+00 0. -1.
<mgrwt>
<rscale>  0 0.17496874E+04</rscale>
<asrwt>0</asrwt>
<pdfrwt beam="1">  1        2 0.13783970E+00 0.17496874E+04</pdfrwt>
<pdfrwt beam="2">  1       -2 0.13141953E+00 0.17496874E+04</pdfrwt>
<totfact> 0.11815253E+01</totfact>
</mgrwt>
</event>
<event>
 6    1  0.1585031E-006  0.2131229E+04  0.7818608E-02  0.8547610E-01
          1   -1    0    0  501    0  0.00000000000E+00  0.00000000000E+00  0.10070976920E+04  0.10070976920E+04  0.00000000000E+00 0. -1.
         -1   -1    0    0    0  501 -0.00000000000E+00 -0.00000000000E+00 -0.11275315496E+04  0.11275315496E+04  0.00000000000E+00 0.  1.
         23    2    1    2    0    0  0.66817664187E+03 -0.27270631907E+02 -0.88900296498E+03  0.11158543965E+04  0.87184002195E+02 0.  0.
         13    1    3    3    0    0  0.45002590594E+03  0.59905238655E+01 -0.54033285146E+03  0.70322030172E+03  0.00000000000E+00 0. -1.
        -13    1    3    3    0    0  0.21815073593E+03 -0.33261155772E+02 -0.34867011352E+03  0.41263409473E+03  0.00000000000E+00 0.  1.
         22    1    1    2    0    0 -0.66817664187E+03  0.27270631907E+02  0.76856910741E+03  0.10187748451E+04  0.00000000000E+00 0. -1.
<mgrwt>
<rscale>  0 0.21312291E+04</rscale>
<asrwt>0</asrwt>
<pdfrwt beam="1">  1        1 0.15493811E+00 0.21312291E+04</pdfrwt>
<pdfrwt beam="2">  1       -1 0.17346639E+00 0.21312291E+04</pdfrwt>
<totfact> 0.31801529E+00</totfact>
</mgrwt>
</event>
<event>
 6    1  0.1585031E-006  0.3329056E+04  0.7818608E-02  0.8155541E-01
         -1   -1    0    0    0  501 -0.00000000000E+00  0.00000000000E+00  0.10635585402E+04  0.10635585402E+04  0.00000000000E+00 0.  1.
          1   -1    0    0  501    0  0.00000000000E+00 -0.00000000000E+00 -0.26050777438E+04  0.26050777438E+04  0.00000000000E+00 0. -1.
         23    2    1    2    0    0 -0.38993872837E+03 -0.69463826088E+02 -0.25514949934E+04  0.25837729142E+04  0.94224920596E+02 0.  0.
         13    1    3    3    0    0 -0.36867670311E+03 -0.85093651224E+02 -0.23022557741E+04  0.23331406066E+04  0.00000000000E+00 0.  1.
        -13    1    3    3    0    0 -0.21262025264E+02  0.15629825136E+02 -0.24923921928E+03  0.25063230754E+03  0.00000000000E+00 0. -1.
         22    1    1    2    0    0  0.38993872837E+03  0.69463826088E+02  0.10099757898E+04  0.10848633697E+04  0.00000000000E+00 0.  1.
<mgrwt>
<rscale>  0 0.33290555E+04</rscale>
<asrwt>0</asrwt>
<pdfrwt beam="1">  1        1 0.40078119E+00 0.33290555E+04</pdfrwt>
<pdfrwt beam="2">  1       -1 0.16362439E+00 0.33290555E+04</pdfrwt>
<totfact> 0.25981358E-01</totfact>
</mgrwt>
</event>
<event>
 6    1  0.1585031E-006  0.3058968E+04  0.7818608E-02  0.8227090E-01
          2   -1    0    0  501    0  0.00000000000E+00  0.00000000000E+00  0.15217158447E+04  0.15217158447E+04  0.00000000000E+00 0. -1.
         -2   -1    0    0    0  501 -0.00000000000E+00 -0.00000000000E+00 -0.15372919380E+04  0.15372919380E+04  0.00000000000E+00 0.  1.
         23    2    1    2    0    0  0.15934759029E+03  0.73067760070E+03 -0.13404232489E+04  0.15376592373E+04  0.91542521473E+02 0.  0.
         13    1    3    3    0    0  0.13715010102E+03  0.41732174495E+03 -0.78567162339E+03  0.90013748328E+03  0.00000000000E+00 0. -1.
        -13    1    3    3    0    0  0.22197489268E+02  0.31335585576E+03 -0.55475162552E+03  0.63752175405E+03  0.00000000000E+00 0.  1.
         22    1    1    2    0    0 -0.15934759029E+03 -0.73067760070E+03  0.13248471556E+04  0.15213485454E+04  0.00000000000E+00 0. -1.
<mgrwt>
<rscale>  0 0.30589681E+04</rscale>
<asrwt>0</asrwt>
<pdfrwt beam="1">  1        2 0.23411013E+00 0.30589681E+04</pdfrwt>
<pdfrwt beam="2">  1       -2 0.23650645E+00 0.30589681E+04</pdfrwt>
<totfact> 0.81863667E-01</totfact>
</mgrwt>
</event>
<event>
 6    1  0.1585031E-006  0.1401027E+04  0.7818608E-02  0.8953076E-01
          2   -1    0    0  501    0  0.00000000000E+00  0.00000000000E+00  0.67064791967E+03  0.67064791967E+03  0.00000000000E+00 0. -1.
         -2   -1    0    0    0  501 -0.00000000000E+00 -0.00000000000E+00 -0.73170879286E+03  0.73170879286E+03  0.00000000000E+00 0.  1.
         23    2    1    2    0    0 -0.56977224202E+03  0.24552941606E+03  0.28859186274E+03  0.69018950065E+03  0.90283894662E+02 0.  0.
         13    1    3    3    0    0 -0.95067510838E+02  0.17639334741E+02  0.18706673865E+02  0.98483081766E+02  0.00000000000E+00 0.  1.
        -13    1    3    3    0    0 -0.47470473118E+03  0.22789008132E+03  0.26988518887E+03  0.59170641888E+03  0.00000000000E+00 0. -1.
         22    1    1    2    0    0  0.56977224202E+03 -0.24552941606E+03 -0.34965273594E+03  0.71216721188E+03  0.00000000000E+00 0.  1.
<mgrwt>
<rscale>  0 0.14010267E+04</rscale>
<asrwt>0</asrwt>
<pdfrwt beam="1">  1        2 0.10317660E+00 0.14010267E+04</pdfrwt>
<pdfrwt beam="2">  1       -2 0.11257058E+00 0.14010267E+04</pdfrwt>
<totfact> 0.26143502E+01</totfact>
</mgrwt>
</event>
<event>
 6    1  0.1585031E-006  0.1242897E+04  0.7818608E-02  0.9076116E-01
          2   -1    0    0  501    0  0.00000000000E+00  0.00000000000E+00  0.99121960416E+03  0.99121960416E+03  0.00000000000E+00 0. -1.
         -2   -1    0    0    0  501 -0.00000000000E+00 -0.00000000000E+00 -0.38961942924E+03  0.38961942924E+03  0.00000000000E+00 0.  1.
         23    2    1    2    0    0  0.40210520135E+03 -0.33258956824E+03 -0.65742820047E+02  0.53369613709E+03  0.90581645492E+02 0.  0.
         13    1    3    3    0    0  0.31848273698E+03 -0.29723822863E+03 -0.31901115870E+02  0.43680602046E+03  0.00000000000E+00 0. -1.
        -13    1    3    3    0    0  0.83622464362E+02 -0.35351339612E+02 -0.33841704177E+02  0.96890116627E+02  0.00000000000E+00 0.  1.
         22    1    1    2    0    0 -0.40210520135E+03  0.33258956824E+03  0.66734299496E+03  0.84714289632E+03  0.00000000000E+00 0. -1.
<mgrwt>
<rscale>  0 0.12428973E+04</rscale>
<asrwt>0</asrwt>
<pdfrwt beam="1">  1        2 0.15249532E+00 0.12428973E+04</pdfrwt>
<pdfrwt beam="2">  1       -2 0.59941451E-01 0.12428973E+04</pdfrwt>
<totfact> 0.65175990E+01</totfact>
</mgrwt>
</event>
<event>
 6    1  0.1585031E-006  0.2945237E+04  0.7818608E-02  0.8259544E-01
         -2   -1    0    0    0  501 -0.00000000000E+00  0.00000000000E+00  0.17951720516E+04  0.17951720516E+04  0.00000000000E+00 0.  1.
          2   -1    0    0  501    0  0.00000000000E+00 -0.00000000000E+00 -0.12080206958E+04  0.12080206958E+04  0.00000000000E+00 0. -1.
         23    2    1    2    0    0 -0.41487145137E+03  0.14108672811E+04  0.25144297944E+03  0.14947614695E+04  0.91779480348E+02 0.  0.
         11    1    3    3    0    0 -0.14460057296E+02  0.11361279204E+03  0.36516981291E+02  0.12021002327E+03  0.00000000000E+00 0.  1.
        -11    1    3    3    0    0 -0.40041139408E+03  0.12972544890E+04  0.21492599815E+03  0.13745514463E+04  0.00000000000E+00 0. -1.
         22    1    1    2    0    0  0.41487145137E+03 -0.14108672811E+04  0.33570837641E+03  0.15084312778E+04  0.00000000000E+00 0. -1.
<mgrwt>
<rscale>  0 0.29452368E+04</rscale>
<asrwt>0</asrwt>
<pdfrwt beam="1">  1        2 0.18584934E+00 0.29452368E+04</pdfrwt>
<pdfrwt beam="2">  1       -2 0.27618032E+00 0.29452368E+04</pdfrwt>
<totfact> 0.71571181E-01</totfact>
</mgrwt>
</event>
<event>
 6    1  0.1585031E-006  0.2583578E+04  0.7818608E-02  0.8373801E-01
         -1   -1    0    0    0  501 -0.00000000000E+00  0.00000000000E+00  0.70679790583E+03  0.70679790583E+03  0.00000000000E+00 0.  1.
          1   -1    0    0  501    0  0.00000000000E+00 -0.00000000000E+00 -0.23609566020E+04  0.23609566020E+04  0.00000000000E+00 0. -1.
         23    2    1    2    0    0 -0.13571706978E+03 -0.49100785476E+03  0.57909796937E+03  0.77713381234E+03  0.95261050239E+02 0.  0.
         13    1    3    3    0    0 -0.10944015564E+03 -0.25984082868E+03  0.27109162413E+03  0.39113306252E+03  0.00000000000E+00 0. -1.
        -13    1    3    3    0    0 -0.26276914142E+02 -0.23116702607E+03  0.30800634523E+03  0.38600074982E+03  0.00000000000E+00 0.  1.
         22    1    1    2    0    0  0.13571706978E+03  0.49100785476E+03 -0.22332566655E+04  0.22906206955E+04  0.00000000000E+00 0. -1.
<mgrwt>
<rscale>  0 0.25835783E+04</rscale>
<asrwt>0</asrwt>
<pdfrwt beam="1">  1        1 0.36322410E+00 0.25835783E+04</pdfrwt>
<pdfrwt beam="2">  1       -1 0.10873814E+00 0.25835783E+04</pdfrwt>
<totfact> 0.11687293E+00</totfact>
</mgrwt>
</event>
<event>
 6    1  0.1585031E-006  0.3616519E+04  0.7818608E-02  0.8086718E-01
         -2   -1    0    0    0  501 -0.00000000000E+00  0.00000000000E+00  0.19261236612E+04  0.19261236612E+04  0.00000000000E+00 0.  1.
          2   -1    0    0  501    0  0.00000000000E+00 -0.00000000000E+00 -0.16976078818E+04  0.16976078818E+04  0.00000000000E+00 0. -1.
         23    2    1    2    0    0 -0.12079337515E+03 -0.14842034445E+04 -0.91150541950E+03  0.17483384541E+04  0.91620499563E+02 0.  0.
         13    1    3    3    0    0 -0.10370461933E+03 -0.72126532549E+03 -0.43439819882E+03  0.84833962124E+03  0.00000000000E+00 0. -1.
        -13    1    3    3    0    0 -0.17088755821E+02 -0.76293811906E+03 -0.47710722067E+03  0.89999883284E+03  0.00000000000E+00 0.  1.
         22    1    1    2    0    0  0.12079337515E+03  0.14842034445E+04  0.11400211989E+04  0.18753930890E+04  0.00000000000E+00 0.  1.
<mgrwt>
<rscale>  0 0.36165192E+04</rscale>
<asrwt>0</asrwt>
<pdfrwt beam="1">  1        2 0.26117044E+00 0.36165192E+04</pdfrwt>
<pdfrwt beam="2">  1       -2 0.29632672E+00 0.36165192E+04</pdfrwt>
<totfact> 0.26798633E-01</totfact>
</mgrwt>
</event>
<event>
 6    1  0.1585031E-006  0.2371876E+04  0.7818608E-02  0.8450108E-01
          1   -1    0    0  501    0  0.00000000000E+00  0.00000000000E+00  0.12835270123E+04  0.12835270123E+04  0.00000000000E+00 0. -1.
         -1   -1    0    0    0  501 -0.00000000000E+00 -0.00000000000E+00 -0.10957690317E+04  0.10957690317E+04  0.00000000000E+00 0.  1.
         23    2    1    2    0    0 -0.58377726499E+03 -0.33924402121E+03  0.10699727619E+04  0.12683571072E+04  0.89474237600E+02 0.  0.
         13    1    3    3    0    0 -0.24559496753E+03 -0.15779528281E+03  0.38449848033E+03  0.48275803539E+03  0.00000000000E+00 0. -1.
        -13    1    3    3    0    0 -0.33818229746E+03 -0.18144873840E+03  0.68547428154E+03  0.78559907181E+03  0.00000000000E+00 0.  1.
         22    1    1    2    0    0  0.58377726499E+03  0.33924402121E+03 -0.88221478123E+03  0.11109389368E+04  0.00000000000E+00 0.  1.
<mgrwt>
<rscale>  0 0.23718762E+04</rscale>
<asrwt>0</asrwt>
<pdfrwt beam="1">  1        1 0.19746569E+00 0.23718762E+04</pdfrwt>
<pdfrwt beam="2">  1       -1 0.16857985E+00 0.23718762E+04</pdfrwt>
<totfact> 0.21048389E+00</totfact>
</mgrwt>
</event>
<event>
 6    1  0.1585031E-006  0.1830160E+04  0.7818608E-02  0.8690423E-01
         -1   -1    0    0    0  501 -0.00000000000E+00  0.00000000000E+00  0.22833716722E+03  0.22833716722E+03  0.00000000000E+00 0.  1.
          1   -1    0    0  501    0  0.00000000000E+00 -0.00000000000E+00 -0.36672587459E+04  0.36672587459E+04  0.00000000000E+00 0. -1.
         23    2    1    2    0    0  0.44499208992E+03  0.61353211913E+03 -0.28063889684E+04  0.29084094442E+04  0.92665160942E+02 0.  0.
         13    1    3    3    0    0  0.24896802959E+03  0.27251396078E+03 -0.12807725747E+04  0.13329018444E+04  0.00000000000E+00 0. -1.
        -13    1    3    3    0    0  0.19602406033E+03  0.34101815835E+03 -0.15256163937E+04  0.15755075998E+04  0.00000000000E+00 0.  1.
         22    1    1    2    0    0 -0.44499208992E+03 -0.61353211913E+03 -0.63253261030E+03  0.98718646890E+03  0.00000000000E+00 0.  1.
<mgrwt>
<rscale>  0 0.18301601E+04</rscale>
<asrwt>0</asrwt>
<pdfrwt beam="1">  1        1 0.56419366E+00 0.18301601E+04</pdfrwt>
<pdfrwt beam="2">  1       -1 0.35128795E-01 0.18301601E+04</pdfrwt>
<totfact> 0.13415557E+00</totfact>
</mgrwt>
</event>
<event>
 6    1  0.1585031E-006  0.1204685E+04  0.7818608E-02  0.9108765E-01
         -2   -1    0    0    0  501 -0.00000000000E+00  0.00000000000E+00  0.49325842136E+03  0.49325842136E+03  0.00000000000E+00 0.  1.
          2   -1    0    0  501    0  0.00000000000E+00 -0.00000000000E+00 -0.73555083026E+03  0.73555083026E+03  0.00000000000E+00 0. -1.
         23    2    1    2    0    0 -0.22362301495E+03 -0.50095924675E+03  0.12346834132E+03  0.56945475963E+03  0.89815768337E+02 0.  0.
         11    1    3    3    0    0 -0.10991621365E+03 -0.35036049982E+03  0.82900133973E+02  0.37643921962E+03  0.00000000000E+00 0. -1.
        -11    1    3    3    0    0 -0.11370680130E+03 -0.15059874693E+03  0.40568207344E+02  0.19301554001E+03  0.00000000000E+00 0.  1.
         22    1    1    2    0    0  0.22362301495E+03  0.50095924675E+03 -0.36576075021E+03  0.65935449199E+03  0.00000000000E+00 0. -1.
<mgrwt>
<rscale>  0 0.12046853E+04</rscale>
<asrwt>0</asrwt>
<pdfrwt beam="1">  1        2 0.11316166E+00 0.12046853E+04</pdfrwt>
<pdfrwt beam="2">  1       -2 0.75885912E-01 0.12046853E+04</pdfrwt>
<totfact> 0.59044950E+01</totfact>
</mgrwt>
</event>
<event>
 6    1  0.1585031E-006  0.5406408E+03  0.7818608E-02  0.1003684E+00
         -2   -1    0    0    0  501 -0.00000000000E+00  0.00000000000E+00  0.79973735166E+02  0.79973735166E+02  0.00000000000E+00 0. -1.
          2   -1    0    0  501    0  0.00000000000E+00 -0.00000000000E+00 -0.91371393809E+03  0.91371393809E+03  0.00000000000E+00 0.  1.
         23    2    1    2    0    0  0.15220753465E+03  0.12836831250E+03 -0.11346984427E+03  0.24640262268E+03  0.90516792081E+02 0.  0.
         11    1    3    3    0    0  0.75616522082E+02  0.11865127810E+03 -0.62957635635E+02  0.15414164943E+03  0.00000000000E+00 0. -1.
        -11    1    3    3    0    0  0.76591012565E+02  0.97170344012E+01 -0.50512208633E+02  0.92260973246E+02  0.00000000000E+00 0.  1.
         22    1    1    2    0    0 -0.15220753465E+03 -0.12836831250E+03 -0.72027035866E+03  0.74728505058E+03  0.00000000000E+00 0.  1.
<mgrwt>
<rscale>  0 0.54064079E+03</rscale>
<asrwt>0</asrwt>
<pdfrwt beam="1">  1        2 0.14057137E+00 0.54064079E+03</pdfrwt>
<pdfrwt beam="2">  1       -2 0.12303652E-01 0.54064079E+03</pdfrwt>
<totfact> 0.14097931E+03</totfact>
</mgrwt>
</event>
<event>
 6    1  0.1585031E-006  0.2638311E+04  0.7818608E-02  0.8355303E-01
         -1   -1    0    0    0  501 -0.00000000000E+00  0.00000000000E+00  0.68076141590E+03  0.68076141590E+03  0.00000000000E+00 0.  1.
          1   -1    0    0  501    0  0.00000000000E+00 -0.00000000000E+00 -0.25562129431E+04  0.25562129431E+04  0.00000000000E+00 0. -1.
         23    2    1    2    0    0 -0.23307596877E+03  0.10545977899E+04 -0.13017933253E+02  0.10840322331E+04  0.91953847373E+02 0.  0.
         11    1    3    3    0    0 -0.17328199923E+02  0.20304766165E+03  0.21372830024E+02  0.20490343403E+03  0.00000000000E+00 0.  1.
        -11    1    3    3    0    0 -0.21574776885E+03  0.85155012826E+03 -0.34390763277E+02  0.87912879904E+03  0.00000000000E+00 0. -1.
         22    1    1    2    0    0  0.23307596877E+03 -0.10545977899E+04 -0.18624335939E+04  0.21529421259E+04  0.00000000000E+00 0. -1.
<mgrwt>
<rscale>  0 0.26383109E+04</rscale>
<asrwt>0</asrwt>
<pdfrwt beam="1">  1        1 0.39326352E+00 0.26383109E+04</pdfrwt>
<pdfrwt beam="2">  1       -1 0.10473253E+00 0.26383109E+04</pdfrwt>
<totfact> 0.93037103E-01</totfact>
</mgrwt>
</event>
<event>
 6    1  0.1585031E-006  0.2302866E+04  0.7818608E-02  0.8476792E-01
         -2   -1    0    0    0  501 -0.00000000000E+00  0.00000000000E+00  0.53337217079E+03  0.53337217079E+03  0.00000000000E+00 0.  1.
          2   -1    0    0  501    0  0.00000000000E+00 -0.00000000000E+00 -0.24856911233E+04  0.24856911233E+04  0.00000000000E+00 0. -1.
         23    2    1    2    0    0  0.32377484464E+03  0.66798926265E+03 -0.21285488864E+04  0.22561106123E+04  0.90966632959E+02 0.  0.
         13    1    3    3    0    0  0.12717890068E+03  0.27399081637E+03 -0.73499355486E+03  0.79464518241E+03  0.00000000000E+00 0. -1.
        -13    1    3    3    0    0  0.19659594396E+03  0.39399844628E+03 -0.13935553315E+04  0.14614654299E+04  0.00000000000E+00 0.  1.
         22    1    1    2    0    0 -0.32377484464E+03 -0.66798926265E+03  0.17622993386E+03  0.76295268177E+03  0.00000000000E+00 0.  1.
<mgrwt>
<rscale>  0 0.23028664E+04</rscale>
<asrwt>0</asrwt>
<pdfrwt beam="1">  1        2 0.38241402E+00 0.23028664E+04</pdfrwt>
<pdfrwt beam="2">  1       -2 0.82057257E-01 0.23028664E+04</pdfrwt>
<totfact> 0.41978316E+00</totfact>
</mgrwt>
</event>
<event>
 6    1  0.1585031E-006  0.1427017E+04  0.7818608E-02  0.8934491E-01
          2   -1    0    0  501    0  0.00000000000E+00  0.00000000000E+00  0.38875991888E+03  0.38875991888E+03  0.00000000000E+00 0. -1.
         -2   -1    0    0    0  501 -0.00000000000E+00 -0.00000000000E+00 -0.13095334913E+04  0.13095334913E+04  0.00000000000E+00 0.  1.
         23    2    1    2    0    0 -0.15261243909E+03  0.16391817754E+03 -0.12648227376E+04  0.12877698985E+04  0.91733463616E+02 0.  0.
         11    1    3    3    0    0 -0.12861402258E+03  0.15328249913E+03 -0.89861660068E+03  0.92062418302E+03  0.00000000000E+00 0. -1.
        -11    1    3    3    0    0 -0.23998416510E+02  0.10635678408E+02 -0.36620613696E+03  0.36714571548E+03  0.00000000000E+00 0.  1.
         22    1    1    2    0    0  0.15261243909E+03 -0.16391817754E+03  0.34404916526E+03  0.41052351164E+03  0.00000000000E+00 0. -1.
<mgrwt>
<rscale>  0 0.14270167E+04</rscale>
<asrwt>0</asrwt>
<pdfrwt beam="1">  1        2 0.59809218E-01 0.14270167E+04</pdfrwt>
<pdfrwt beam="2">  1       -2 0.20146669E+00 0.14270167E+04</pdfrwt>
<totfact> 0.10367120E+01</totfact>
</mgrwt>
</event>
<event>
 6    1  0.1585031E-006  0.1067287E+04  0.7818608E-02  0.9237676E-01
          2   -1    0    0  501    0  0.00000000000E+00  0.00000000000E+00  0.73427557429E+03  0.73427557429E+03  0.00000000000E+00 0. -1.
         -2   -1    0    0    0  501 -0.00000000000E+00 -0.00000000000E+00 -0.38783181642E+03  0.38783181642E+03  0.00000000000E+00 0.  1.
         23    2    1    2    0    0 -0.10424421178E+03 -0.19438069565E+03  0.68111797191E+03  0.72128630833E+03  0.87644374651E+02 0.  0.
         11    1    3    3    0    0 -0.87558092911E+02 -0.71008669013E+02  0.33495851878E+03  0.35342023147E+03  0.00000000000E+00 0.  1.
        -11    1    3    3    0    0 -0.16686118866E+02 -0.12337202664E+03  0.34615945312E+03  0.36786607686E+03  0.00000000000E+00 0. -1.
         22    1    1    2    0    0  0.10424421178E+03  0.19438069565E+03 -0.33467421404E+03  0.40082108237E+03  0.00000000000E+00 0.  1.
<mgrwt>
<rscale>  0 0.10672871E+04</rscale>
<asrwt>0</asrwt>
<pdfrwt beam="1">  1        2 0.11296547E+00 0.10672871E+04</pdfrwt>
<pdfrwt beam="2">  1       -2 0.59666433E-01 0.10672871E+04</pdfrwt>
<totfact> 0.10052071E+02</totfact>
</mgrwt>
</event>
<event>
 6    1  0.1585031E-006  0.2134950E+04  0.7818608E-02  0.8546002E-01
         -1   -1    0    0    0  501 -0.00000000000E+00  0.00000000000E+00  0.17336340432E+04  0.17336340432E+04  0.00000000000E+00 0.  1.
          1   -1    0    0  501    0  0.00000000000E+00 -0.00000000000E+00 -0.65729157379E+03  0.65729157379E+03  0.00000000000E+00 0. -1.
         23    2    1    2    0    0 -0.38960706064E+03  0.85515512587E+03 -0.23724069571E+02  0.94412558203E+03  0.87899557324E+02 0.  0.
         11    1    3    3    0    0 -0.23200844999E+03  0.58064618959E+03  0.13386941787E+02  0.62542555798E+03  0.00000000000E+00 0. -1.
        -11    1    3    3    0    0 -0.15759861064E+03  0.27450893627E+03 -0.37111011358E+02  0.31870002406E+03  0.00000000000E+00 0.  1.
         22    1    1    2    0    0  0.38960706064E+03 -0.85515512587E+03  0.11000665390E+04  0.14468000350E+04  0.00000000000E+00 0.  1.
<mgrwt>
<rscale>  0 0.21349502E+04</rscale>
<asrwt>0</asrwt>
<pdfrwt beam="1">  1        1 0.10112178E+00 0.21349502E+04</pdfrwt>
<pdfrwt beam="2">  1       -1 0.26671293E+00 0.21349502E+04</pdfrwt>
<totfact> 0.14906981E+00</totfact>
</mgrwt>
</event>
<event>
 6    1  0.1585031E-006  0.2831728E+04  0.7818608E-02  0.8293485E-01
         -2   -1    0    0    0  501 -0.00000000000E+00  0.00000000000E+00  0.12058575445E+04  0.12058575445E+04  0.00000000000E+00 0.  1.
          2   -1    0    0  501    0  0.00000000000E+00 -0.00000000000E+00 -0.16624443208E+04  0.16624443208E+04  0.00000000000E+00 0. -1.
         23    2    1    2    0    0 -0.48113804772E+03 -0.11739118660E+04 -0.86189098179E+03  0.15364481237E+04  0.90850878253E+02 0.  0.
         11    1    3    3    0    0 -0.14450941551E+03 -0.32083058484E+03 -0.19293567016E+03  0.40129715693E+03  0.00000000000E+00 0. -1.
        -11    1    3    3    0    0 -0.33662863221E+03 -0.85308128117E+03 -0.66895531163E+03  0.11351509667E+04  0.00000000000E+00 0.  1.
         22    1    1    2    0    0  0.48113804772E+03  0.11739118660E+04  0.40530420553E+03  0.13318537417E+04  0.00000000000E+00 0.  1.
<mgrwt>
<rscale>  0 0.28317281E+04</rscale>
<asrwt>0</asrwt>
<pdfrwt beam="1">  1        2 0.25576066E+00 0.28317281E+04</pdfrwt>
<pdfrwt beam="2">  1       -2 0.18551655E+00 0.28317281E+04</pdfrwt>
<totfact> 0.14846468E+00</totfact>
</mgrwt>
</event>
<event>
 6    1  0.2564920E-006  0.3264376E+04  0.7818608E-02  0.8172019E-01
         -2   -1    0    0    0  501 -0.00000000000E+00  0.00000000000E+00  0.11482416733E+04  0.11482416733E+04  0.00000000000E+00 0.  1.
          2   -1    0    0  501    0  0.00000000000E+00 -0.00000000000E+00 -0.23201025770E+04  0.23201025770E+04  0.00000000000E+00 0. -1.
         23    2    1    2    0    0 -0.14552130114E+04  0.18396994123E+03 -0.13439874786E+04  0.19914835915E+04  0.90635008826E+02 0.  0.
         13    1    3    3    0    0 -0.32547404610E+03  0.34691640202E+02 -0.25083460537E+03  0.41237708937E+03  0.00000000000E+00 0. -1.
        -13    1    3    3    0    0 -0.11297389653E+04  0.14927830103E+03 -0.10931528733E+04  0.15791065022E+04  0.00000000000E+00 0.  1.
         22    1    1    2    0    0  0.14552130114E+04 -0.18396994123E+03  0.17212657491E+03  0.14768606588E+04  0.00000000000E+00 0. -1.
<mgrwt>
<rscale>  0 0.32643765E+04</rscale>
<asrwt>0</asrwt>
<pdfrwt beam="1">  1        2 0.35693885E+00 0.32643765E+04</pdfrwt>
<pdfrwt beam="2">  1       -2 0.17665257E+00 0.32643765E+04</pdfrwt>
<totfact> 0.70759567E-01</totfact>
</mgrwt>
</event>
<event>
 6    1  0.1585031E-006  0.3356054E+04  0.7818608E-02  0.8148777E-01
          2   -1    0    0  501    0  0.00000000000E+00  0.00000000000E+00  0.26316549652E+04  0.26316549652E+04  0.00000000000E+00 0. -1.
         -2   -1    0    0    0  501 -0.00000000000E+00 -0.00000000000E+00 -0.10699636836E+04  0.10699636836E+04  0.00000000000E+00 0.  1.
         23    2    1    2    0    0  0.62341103059E+03 -0.12834252569E+04 -0.18990405074E+03  0.14424356302E+04  0.93462804044E+02 0.  0.
         11    1    3    3    0    0  0.18216703784E+02 -0.78024180444E+02  0.14335906001E+01  0.80135361812E+02  0.00000000000E+00 0. -1.
        -11    1    3    3    0    0  0.60519432680E+03 -0.12054010764E+04 -0.19133764134E+03  0.13623002684E+04  0.00000000000E+00 0.  1.
         22    1    1    2    0    0 -0.62341103059E+03  0.12834252569E+04  0.17515953324E+04  0.22591830186E+04  0.00000000000E+00 0. -1.
<mgrwt>
<rscale>  0 0.33560544E+04</rscale>
<asrwt>0</asrwt>
<pdfrwt beam="1">  1        2 0.40486999E+00 0.33560544E+04</pdfrwt>
<pdfrwt beam="2">  1       -2 0.16460980E+00 0.33560544E+04</pdfrwt>
<totfact> 0.56468010E-01</totfact>
</mgrwt>
</event>
<event>
 6    1  0.1585031E-006  0.2660309E+04  0.7818608E-02  0.8347999E-01
         -2   -1    0    0    0  501 -0.00000000000E+00  0.00000000000E+00  0.63828637961E+03  0.63828637961E+03  0.00000000000E+00 0.  1.
          2   -1    0    0  501    0  0.00000000000E+00 -0.00000000000E+00 -0.27719707459E+04  0.27719707459E+04  0.00000000000E+00 0. -1.
         23    2    1    2    0    0 -0.87370503702E+03 -0.96290007955E+03 -0.71738456709E+03  0.14876437540E+04  0.88917191526E+02 0.  0.
         11    1    3    3    0    0 -0.55200805359E+03 -0.67066464976E+03 -0.48030124904E+03  0.99256901699E+03  0.00000000000E+00 0.  1.
        -11    1    3    3    0    0 -0.32169698343E+03 -0.29223542979E+03 -0.23708331805E+03  0.49507473705E+03  0.00000000000E+00 0. -1.
         22    1    1    2    0    0  0.87370503702E+03  0.96290007955E+03 -0.14162997992E+04  0.19226133714E+04  0.00000000000E+00 0.  1.
<mgrwt>
<rscale>  0 0.26603091E+04</rscale>
<asrwt>0</asrwt>
<pdfrwt beam="1">  1        2 0.42645703E+00 0.26603091E+04</pdfrwt>
<pdfrwt beam="2">  1       -2 0.98197906E-01 0.26603091E+04</pdfrwt>
<totfact> 0.18243081E+00</totfact>
</mgrwt>
</event>
<event>
 6    1  0.1585031E-006  0.2613018E+04  0.7818608E-02  0.8363793E-01
          3   -1    0    0  501    0  0.00000000000E+00  0.00000000000E+00  0.75919772364E+03  0.75919772364E+03  0.00000000000E+00 0. -1.
         -3   -1    0    0    0  501 -0.00000000000E+00 -0.00000000000E+00 -0.22483815651E+04  0.22483815651E+04  0.00000000000E+00 0.  1.
         23    2    1    2    0    0  0.65150315916E+03  0.53589069704E+03 -0.18914083428E+04  0.20730100002E+04  0.91157755534E+02 0.  0.
         13    1    3    3    0    0  0.50188529634E+03  0.45967413221E+03 -0.15195058105E+04  0.16649585780E+04  0.00000000000E+00 0. -1.
        -13    1    3    3    0    0  0.14961786282E+03  0.76216564826E+02 -0.37190253229E+03  0.40805142219E+03  0.00000000000E+00 0.  1.
         22    1    1    2    0    0 -0.65150315916E+03 -0.53589069704E+03  0.40222450131E+03  0.93456928851E+03  0.00000000000E+00 0. -1.
<mgrwt>
<rscale>  0 0.26130183E+04</rscale>
<asrwt>0</asrwt>
<pdfrwt beam="1">  1        3 0.11679965E+00 0.26130183E+04</pdfrwt>
<pdfrwt beam="2">  1       -3 0.34590485E+00 0.26130183E+04</pdfrwt>
<totfact> 0.29333954E-02</totfact>
</mgrwt>
</event>
<event>
 6    1  0.1585031E-006  0.3480758E+04  0.7818608E-02  0.8118365E-01
         -1   -1    0    0    0  501 -0.00000000000E+00  0.00000000000E+00  0.81922375087E+03  0.81922375087E+03  0.00000000000E+00 0.  1.
          1   -1    0    0  501    0  0.00000000000E+00 -0.00000000000E+00 -0.36973044348E+04  0.36973044348E+04  0.00000000000E+00 0. -1.
         23    2    1    2    0    0 -0.56742997385E+03 -0.10495477875E+04  0.20206556722E+03  0.12133738959E+04  0.88985303861E+02 0.  0.
         13    1    3    3    0    0 -0.34792872028E+03 -0.67186468518E+03  0.16924807262E+03  0.77530733240E+03  0.00000000000E+00 0. -1.
        -13    1    3    3    0    0 -0.21950125357E+03 -0.37768310234E+03  0.32817494601E+02  0.43806656351E+03  0.00000000000E+00 0.  1.
         22    1    1    2    0    0  0.56742997385E+03  0.10495477875E+04 -0.30801462512E+04  0.33031542898E+04  0.00000000000E+00 0. -1.
<mgrwt>
<rscale>  0 0.34807583E+04</rscale>
<asrwt>0</asrwt>
<pdfrwt beam="1">  1        1 0.56881606E+00 0.34807583E+04</pdfrwt>
<pdfrwt beam="2">  1       -1 0.12603442E+00 0.34807583E+04</pdfrwt>
<totfact> 0.77542374E-02</totfact>
</mgrwt>
</event>
<event>
 6    1  0.1585031E-006  0.7870136E+03  0.7818608E-02  0.9579007E-01
          1   -1    0    0  501    0  0.00000000000E+00  0.00000000000E+00  0.17934729910E+03  0.17934729910E+03  0.00000000000E+00 0. -1.
         -1   -1    0    0    0  501 -0.00000000000E+00 -0.00000000000E+00 -0.86339521659E+03  0.86339521659E+03  0.00000000000E+00 0.  1.
         23    2    1    2    0    0  0.26214968650E+03  0.26079435945E+03 -0.50452688964E+03  0.63169026172E+03  0.88028679001E+02 0.  0.
         11    1    3    3    0    0  0.38818352431E+02  0.76713661287E+02 -0.77016275654E+02  0.11542684709E+03  0.00000000000E+00 0.  1.
        -11    1    3    3    0    0  0.22333133407E+03  0.18408069817E+03 -0.42751061399E+03  0.51626341463E+03  0.00000000000E+00 0. -1.
         22    1    1    2    0    0 -0.26214968650E+03 -0.26079435945E+03 -0.17952102785E+03  0.41105225397E+03  0.00000000000E+00 0. -1.
<mgrwt>
<rscale>  0 0.78701360E+03</rscale>
<asrwt>0</asrwt>
<pdfrwt beam="1">  1        1 0.27591893E-01 0.78701360E+03</pdfrwt>
<pdfrwt beam="2">  1       -1 0.13283003E+00 0.78701360E+03</pdfrwt>
<totfact> 0.83546587E+01</totfact>
</mgrwt>
</event>
<event>
 6    1  0.1585031E-006  0.1681307E+04  0.7818608E-02  0.8772098E-01
          1   -1    0    0  501    0  0.00000000000E+00  0.00000000000E+00  0.36198025403E+03  0.36198025403E+03  0.00000000000E+00 0. -1.
         -1   -1    0    0    0  501 -0.00000000000E+00 -0.00000000000E+00 -0.19523122134E+04  0.19523122134E+04  0.00000000000E+00 0.  1.
         23    2    1    2    0    0  0.23788297815E+03  0.64777886859E+03 -0.14253563342E+03  0.71044709604E+03  0.90625027418E+02 0.  0.
         11    1    3    3    0    0  0.12429131597E+03  0.25844739631E+03 -0.95001710043E+02  0.30210712139E+03  0.00000000000E+00 0. -1.
        -11    1    3    3    0    0  0.11359166218E+03  0.38933147228E+03 -0.47533923379E+02  0.40833997465E+03  0.00000000000E+00 0.  1.
         22    1    1    2    0    0 -0.23788297815E+03 -0.64777886859E+03 -0.14477963259E+04  0.16038453714E+04  0.00000000000E+00 0.  1.
<mgrwt>
<rscale>  0 0.16813072E+04</rscale>
<asrwt>0</asrwt>
<pdfrwt beam="1">  1        1 0.55689269E-01 0.16813072E+04</pdfrwt>
<pdfrwt beam="2">  1       -1 0.30035573E+00 0.16813072E+04</pdfrwt>
<totfact> 0.21483699E+00</totfact>
</mgrwt>
</event>
<event>
 6    1  0.1585031E-006  0.3376013E+04  0.7818608E-02  0.8143819E-01
         -2   -1    0    0    0  501 -0.00000000000E+00  0.00000000000E+00  0.98207314370E+03  0.98207314370E+03  0.00000000000E+00 0.  1.
          2   -1    0    0  501    0  0.00000000000E+00 -0.00000000000E+00 -0.29013778079E+04  0.29013778079E+04  0.00000000000E+00 0. -1.
         23    2    1    2    0    0  0.90826694201E+03 -0.13241733692E+04 -0.15544145843E+04  0.22367789381E+04  0.92689636123E+02 0.  0.
         11    1    3    3    0    0  0.63247180191E+03 -0.84447876223E+03 -0.10242691975E+04  0.14704735119E+04  0.00000000000E+00 0. -1.
        -11    1    3    3    0    0  0.27579514009E+03 -0.47969460695E+03 -0.53014538674E+03  0.76630542626E+03  0.00000000000E+00 0.  1.
         22    1    1    2    0    0 -0.90826694201E+03  0.13241733692E+04 -0.36489007995E+03  0.16466720135E+04  0.00000000000E+00 0.  1.
<mgrwt>
<rscale>  0 0.33760126E+04</rscale>
<asrwt>0</asrwt>
<pdfrwt beam="1">  1        2 0.44636581E+00 0.33760126E+04</pdfrwt>
<pdfrwt beam="2">  1       -2 0.15108818E+00 0.33760126E+04</pdfrwt>
<totfact> 0.48890496E-01</totfact>
</mgrwt>
</event>
<event>
 6    1  0.1585031E-006  0.3319813E+04  0.7818608E-02  0.8157872E-01
         -2   -1    0    0    0  501 -0.00000000000E+00  0.00000000000E+00  0.92361313693E+03  0.92361313693E+03  0.00000000000E+00 0.  1.
          2   -1    0    0  501    0  0.00000000000E+00 -0.00000000000E+00 -0.29831642860E+04  0.29831642860E+04  0.00000000000E+00 0. -1.
         23    2    1    2    0    0 -0.96626983953E+03 -0.12910858461E+04 -0.57397659915E+03  0.17141735353E+04  0.91442373810E+02 0.  0.
         13    1    3    3    0    0 -0.59528814617E+03 -0.86057257028E+03 -0.35117353345E+03  0.11037553969E+04  0.00000000000E+00 0. -1.
        -13    1    3    3    0    0 -0.37098169336E+03 -0.43051327586E+03 -0.22280306570E+03  0.61041813832E+03  0.00000000000E+00 0.  1.
         22    1    1    2    0    0  0.96626983953E+03  0.12910858461E+04 -0.14855745499E+04  0.21926038877E+04  0.00000000000E+00 0. -1.
<mgrwt>
<rscale>  0 0.33198131E+04</rscale>
<asrwt>0</asrwt>
<pdfrwt beam="1">  1        2 0.45894835E+00 0.33198131E+04</pdfrwt>
<pdfrwt beam="2">  1       -2 0.14209433E+00 0.33198131E+04</pdfrwt>
<totfact> 0.51362806E-01</totfact>
</mgrwt>
</event>
<event>
 6    1  0.1649468E-006  0.1311000E+04  0.7818608E-02  0.9020887E-01
         -2   -1    0    0    0  501 -0.00000000000E+00  0.00000000000E+00  0.28355804903E+03  0.28355804903E+03  0.00000000000E+00 0. -1.
          2   -1    0    0  501    0  0.00000000000E+00 -0.00000000000E+00 -0.15153174405E+04  0.15153174405E+04  0.00000000000E+00 0.  1.
         23    2    1    2    0    0  0.36981872671E+03  0.53375766677E+03 -0.70361870624E+03  0.96185952739E+03  0.91822269562E+02 0.  0.
         13    1    3    3    0    0  0.19003748739E+03  0.28539184300E+03 -0.30448836807E+03  0.45855852075E+03  0.00000000000E+00 0. -1.
        -13    1    3    3    0    0  0.17978123932E+03  0.24836582377E+03 -0.39913033818E+03  0.50330100664E+03  0.00000000000E+00 0.  1.
         22    1    1    2    0    0 -0.36981872671E+03 -0.53375766677E+03 -0.52814068521E+03  0.83701596212E+03  0.00000000000E+00 0.  1.
<mgrwt>
<rscale>  0 0.13110003E+04</rscale>
<asrwt>0</asrwt>
<pdfrwt beam="1">  1        2 0.23312576E+00 0.13110003E+04</pdfrwt>
<pdfrwt beam="2">  1       -2 0.43624315E-01 0.13110003E+04</pdfrwt>
<totfact> 0.60706454E+01</totfact>
</mgrwt>
</event>
<event>
 6    1  0.1585031E-006  0.1308937E+04  0.7818608E-02  0.9022508E-01
          1   -1    0    0  501    0  0.00000000000E+00  0.00000000000E+00  0.14664048193E+04  0.14664048193E+04  0.00000000000E+00 0. -1.
         -1   -1    0    0    0  501 -0.00000000000E+00 -0.00000000000E+00 -0.29209475794E+03  0.29209475794E+03  0.00000000000E+00 0.  1.
         23    2    1    2    0    0  0.39886285574E+03 -0.17407468867E+03  0.12414735719E+04  0.13181536767E+04  0.82939199237E+02 0.  0.
         11    1    3    3    0    0  0.27154512674E+03 -0.15809125933E+03  0.90923063125E+03  0.96199269381E+03  0.00000000000E+00 0.  1.
        -11    1    3    3    0    0  0.12731772900E+03 -0.15983429346E+02  0.33224294069E+03  0.35616098294E+03  0.00000000000E+00 0. -1.
         22    1    1    2    0    0 -0.39886285574E+03  0.17407468867E+03 -0.67163510591E+02  0.44034590049E+03  0.00000000000E+00 0.  1.
<mgrwt>
<rscale>  0 0.13089372E+04</rscale>
<asrwt>0</asrwt>
<pdfrwt beam="1">  1        1 0.22560074E+00 0.13089372E+04</pdfrwt>
<pdfrwt beam="2">  1       -1 0.44937656E-01 0.13089372E+04</pdfrwt>
<totfact> 0.33275443E+01</totfact>
</mgrwt>
</event>
<event>
 6    1  0.1585031E-006  0.1249463E+04  0.7818608E-02  0.9070631E-01
          2   -1    0    0  501    0  0.00000000000E+00  0.00000000000E+00  0.72172595364E+03  0.72172595364E+03  0.00000000000E+00 0. -1.
         -2   -1    0    0    0  501 -0.00000000000E+00 -0.00000000000E+00 -0.54077207104E+03  0.54077207104E+03  0.00000000000E+00 0.  1.
         23    2    1    2    0    0 -0.15482082635E+03 -0.15783187082E+03 -0.49597084563E+03  0.55038323379E+03  0.89745398827E+02 0.  0.
         13    1    3    3    0    0 -0.89353122746E+02 -0.98070037048E+02 -0.39152440857E+03  0.41339215670E+03  0.00000000000E+00 0. -1.
        -13    1    3    3    0    0 -0.65467703599E+02 -0.59761833771E+02 -0.10444643706E+03  0.13699107710E+03  0.00000000000E+00 0.  1.
         22    1    1    2    0    0  0.15482082635E+03  0.15783187082E+03  0.67692472823E+03  0.71211479089E+03  0.00000000000E+00 0. -1.
<mgrwt>
<rscale>  0 0.12494627E+04</rscale>
<asrwt>0</asrwt>
<pdfrwt beam="1">  1        2 0.11103476E+00 0.12494627E+04</pdfrwt>
<pdfrwt beam="2">  1       -2 0.83195703E-01 0.12494627E+04</pdfrwt>
<totfact> 0.49057439E+01</totfact>
</mgrwt>
</event>
<event>
 6    1  0.1585031E-006  0.3070624E+04  0.7818608E-02  0.8223846E-01
         -1   -1    0    0    0  501 -0.00000000000E+00  0.00000000000E+00  0.10502186053E+04  0.10502186053E+04  0.00000000000E+00 0.  1.
          1   -1    0    0  501    0  0.00000000000E+00 -0.00000000000E+00 -0.22444688051E+04  0.22444688051E+04  0.00000000000E+00 0. -1.
         23    2    1    2    0    0  0.11299720578E+04 -0.87111483657E+03 -0.12022491288E+04  0.18678931391E+04  0.89128566789E+02 0.  0.
         11    1    3    3    0    0  0.57594655269E+03 -0.50005398421E+03 -0.64484775128E+03  0.99879779786E+03  0.00000000000E+00 0. -1.
        -11    1    3    3    0    0  0.55402550513E+03 -0.37106085236E+03 -0.55740137748E+03  0.86909534121E+03  0.00000000000E+00 0.  1.
         22    1    1    2    0    0 -0.11299720578E+04  0.87111483657E+03  0.79989289760E+01  0.14267942714E+04  0.00000000000E+00 0. -1.
<mgrwt>
<rscale>  0 0.30706240E+04</rscale>
<asrwt>0</asrwt>
<pdfrwt beam="1">  1        1 0.34530289E+00 0.30706240E+04</pdfrwt>
<pdfrwt beam="2">  1       -1 0.16157209E+00 0.30706240E+04</pdfrwt>
<totfact> 0.48855596E-01</totfact>
</mgrwt>
</event>
<event>
 6    1  0.1585031E-006  0.1148106E+04  0.7818608E-02  0.9159533E-01
          1   -1    0    0  501    0  0.00000000000E+00  0.00000000000E+00  0.28307271038E+04  0.28307271038E+04  0.00000000000E+00 0.  1.
         -1   -1    0    0    0  501 -0.00000000000E+00 -0.00000000000E+00 -0.11641421943E+03  0.11641421943E+03  0.00000000000E+00 0. -1.
         23    2    1    2    0    0 -0.33019922274E+03 -0.43694515525E+03  0.17752239530E+04  0.18600163919E+04  0.91040097030E+02 0.  0.
         11    1    3    3    0    0 -0.15992071220E+03 -0.28250368843E+03  0.99347433343E+03  0.10451670772E+04  0.00000000000E+00 0. -1.
        -11    1    3    3    0    0 -0.17027851054E+03 -0.15444146682E+03  0.78174961959E+03  0.81484931463E+03  0.00000000000E+00 0.  1.
         22    1    1    2    0    0  0.33019922274E+03  0.43694515525E+03  0.93908893138E+03  0.10871249314E+04  0.00000000000E+00 0.  1.
<mgrwt>
<rscale>  0 0.11481061E+04</rscale>
<asrwt>0</asrwt>
<pdfrwt beam="1">  1        1 0.43549643E+00 0.11481061E+04</pdfrwt>
<pdfrwt beam="2">  1       -1 0.17909882E-01 0.11481061E+04</pdfrwt>
<totfact> 0.19589209E+01</totfact>
</mgrwt>
</event>
<event>
 6    1  0.1585031E-006  0.4863047E+04  0.7818608E-02  0.7849988E-01
          2   -1    0    0  501    0  0.00000000000E+00  0.00000000000E+00  0.23649892320E+04  0.23649892320E+04  0.00000000000E+00 0. -1.
         -2   -1    0    0    0  501 -0.00000000000E+00 -0.00000000000E+00 -0.24999297346E+04  0.24999297346E+04  0.00000000000E+00 0.  1.
         23    2    1    2    0    0  0.18159817391E+04  0.27823043304E+03  0.15246120311E+04  0.23891733289E+04  0.92225264210E+02 0.  0.
         11    1    3    3    0    0  0.44306649754E+03  0.38563909624E+02  0.33443614200E+03  0.55645541551E+03  0.00000000000E+00 0.  1.
        -11    1    3    3    0    0  0.13729152416E+04  0.23966652341E+03  0.11901758891E+04  0.18327179134E+04  0.00000000000E+00 0. -1.
         22    1    1    2    0    0 -0.18159817391E+04 -0.27823043304E+03 -0.16595525337E+04  0.24757456378E+04  0.00000000000E+00 0. -1.
<mgrwt>
<rscale>  0 0.48630472E+04</rscale>
<asrwt>0</asrwt>
<pdfrwt beam="1">  1        2 0.36384450E+00 0.48630472E+04</pdfrwt>
<pdfrwt beam="2">  1       -2 0.38460457E+00 0.48630472E+04</pdfrwt>
<totfact> 0.28654968E-02</totfact>
</mgrwt>
</event>
<event>
 6    1  0.1585031E-006  0.3551253E+04  0.7818608E-02  0.8101750E-01
         -1   -1    0    0    0  501 -0.00000000000E+00  0.00000000000E+00  0.14274221450E+04  0.14274221450E+04  0.00000000000E+00 0.  1.
          1   -1    0    0  501    0  0.00000000000E+00 -0.00000000000E+00 -0.22087721953E+04  0.22087721953E+04  0.00000000000E+00 0. -1.
         23    2    1    2    0    0 -0.86478233656E+03  0.35965950608E+02  0.11949853453E+04  0.14786393271E+04  0.96136594962E+02 0.  0.
         11    1    3    3    0    0 -0.40015705152E+03  0.35061193362E+02  0.62970356566E+03  0.74691467637E+03  0.00000000000E+00 0.  1.
        -11    1    3    3    0    0 -0.46462528503E+03  0.90475724635E+00  0.56528177968E+03  0.73172465075E+03  0.00000000000E+00 0. -1.
         22    1    1    2    0    0  0.86478233656E+03 -0.35965950608E+02 -0.19763353956E+04  0.21575550133E+04  0.00000000000E+00 0. -1.
<mgrwt>
<rscale>  0 0.35512535E+04</rscale>
<asrwt>0</asrwt>
<pdfrwt beam="1">  1        1 0.33981111E+00 0.35512535E+04</pdfrwt>
<pdfrwt beam="2">  1       -1 0.21960341E+00 0.35512535E+04</pdfrwt>
<totfact> 0.19328414E-01</totfact>
</mgrwt>
</event>
<event>
 6    1  0.1585031E-006  0.2488206E+04  0.7818608E-02  0.8407199E-01
          2   -1    0    0  501    0  0.00000000000E+00  0.00000000000E+00  0.15853576679E+04  0.15853576679E+04  0.00000000000E+00 0.  1.
         -2   -1    0    0    0  501 -0.00000000000E+00 -0.00000000000E+00 -0.97630449823E+03  0.97630449823E+03  0.00000000000E+00 0. -1.
         23    2    1    2    0    0  0.15114726217E+03 -0.12330506318E+04  0.32195977504E+03  0.12866398242E+04  0.92328679225E+02 0.  0.
         11    1    3    3    0    0  0.99183820155E+02 -0.57694390914E+03  0.11398668374E+03  0.59640143238E+03  0.00000000000E+00 0. -1.
        -11    1    3    3    0    0  0.51963442018E+02 -0.65610672262E+03  0.20797309130E+03  0.69023839178E+03  0.00000000000E+00 0.  1.
         22    1    1    2    0    0 -0.15114726217E+03  0.12330506318E+04  0.28709339467E+03  0.12750223420E+04  0.00000000000E+00 0.  1.
<mgrwt>
<rscale>  0 0.24882056E+04</rscale>
<asrwt>0</asrwt>
<pdfrwt beam="1">  1        2 0.24390118E+00 0.24882056E+04</pdfrwt>
<pdfrwt beam="2">  1       -2 0.15020069E+00 0.24882056E+04</pdfrwt>
<totfact> 0.30295658E+00</totfact>
</mgrwt>
</event>
<event>
 6    1  0.1585031E-006  0.2839104E+04  0.7818608E-02  0.8291230E-01
          2   -1    0    0  501    0  0.00000000000E+00  0.00000000000E+00  0.12474567108E+04  0.12474567108E+04  0.00000000000E+00 0. -1.
         -2   -1    0    0    0  501 -0.00000000000E+00 -0.00000000000E+00 -0.16153895784E+04  0.16153895784E+04  0.00000000000E+00 0.  1.
         23    2    1    2    0    0  0.81940870147E+03  0.44044205719E+03  0.89486502263E+03  0.12943826023E+04  0.96036902015E+02 0.  0.
         11    1    3    3    0    0  0.35897587567E+03  0.14608933108E+03  0.33949521735E+03  0.51523079739E+03  0.00000000000E+00 0.  1.
        -11    1    3    3    0    0  0.46043282580E+03  0.29435272611E+03  0.55536980527E+03  0.77915180488E+03  0.00000000000E+00 0. -1.
         22    1    1    2    0    0 -0.81940870147E+03 -0.44044205719E+03 -0.12627978902E+04  0.15684636869E+04  0.00000000000E+00 0.  1.
<mgrwt>
<rscale>  0 0.28391045E+04</rscale>
<asrwt>0</asrwt>
<pdfrwt beam="1">  1        2 0.19191642E+00 0.28391045E+04</pdfrwt>
<pdfrwt beam="2">  1       -2 0.24852147E+00 0.28391045E+04</pdfrwt>
<totfact> 0.10102692E+00</totfact>
</mgrwt>
</event>
<event>
 6    1  0.1585031E-006  0.2058600E+04  0.7818608E-02  0.8579703E-01
          1   -1    0    0  501    0  0.00000000000E+00  0.00000000000E+00  0.74789683313E+03  0.74789683313E+03  0.00000000000E+00 0. -1.
         -1   -1    0    0    0  501 -0.00000000000E+00 -0.00000000000E+00 -0.14165832352E+04  0.14165832352E+04  0.00000000000E+00 0.  1.
         23    2    1    2    0    0 -0.71352033488E+03 -0.16830772576E+03  0.42159754013E+03  0.85064680893E+03  0.91742840990E+02 0.  0.
         11    1    3    3    0    0 -0.37439468135E+03 -0.96838985656E+02  0.17030225833E+03  0.42255416902E+03  0.00000000000E+00 0. -1.
        -11    1    3    3    0    0 -0.33912565353E+03 -0.71468740102E+02  0.25129528180E+03  0.42809263991E+03  0.00000000000E+00 0.  1.
         22    1    1    2    0    0  0.71352033488E+03  0.16830772576E+03 -0.10902839422E+04  0.13138332593E+04  0.00000000000E+00 0.  1.
<mgrwt>
<rscale>  0 0.20585996E+04</rscale>
<asrwt>0</asrwt>
<pdfrwt beam="1">  1        1 0.11506105E+00 0.20585996E+04</pdfrwt>
<pdfrwt beam="2">  1       -1 0.21793588E+00 0.20585996E+04</pdfrwt>
<totfact> 0.25794514E+00</totfact>
</mgrwt>
</event>
<event>
 6    1  0.1585031E-006  0.1444898E+04  0.7818608E-02  0.8921945E-01
         -2   -1    0    0    0  501 -0.00000000000E+00  0.00000000000E+00  0.21877077727E+03  0.21877077727E+03  0.00000000000E+00 0.  1.
          2   -1    0    0  501    0  0.00000000000E+00 -0.00000000000E+00 -0.23857518098E+04  0.23857518098E+04  0.00000000000E+00 0. -1.
         23    2    1    2    0    0 -0.13528352594E+03 -0.24212878331E+03 -0.22845781248E+04  0.23032634691E+04  0.93794560024E+02 0.  0.
         13    1    3    3    0    0 -0.64557124417E+02 -0.79757657035E+02 -0.11937002090E+04  0.11981022890E+04  0.00000000000E+00 0.  1.
        -13    1    3    3    0    0 -0.70726401526E+02 -0.16237112627E+03 -0.10908779158E+04  0.11051611800E+04  0.00000000000E+00 0. -1.
         22    1    1    2    0    0  0.13528352594E+03  0.24212878331E+03  0.11759709224E+03  0.30125911804E+03  0.00000000000E+00 0.  1.
<mgrwt>
<rscale>  0 0.14448983E+04</rscale>
<asrwt>0</asrwt>
<pdfrwt beam="1">  1        2 0.36703876E+00 0.14448983E+04</pdfrwt>
<pdfrwt beam="2">  1       -2 0.33657041E-01 0.14448983E+04</pdfrwt>
<totfact> 0.32521064E+01</totfact>
</mgrwt>
</event>
<event>
 6    1  0.1585031E-006  0.2016630E+04  0.7818608E-02  0.8598885E-01
          1   -1    0    0  501    0  0.00000000000E+00  0.00000000000E+00  0.17784952184E+04  0.17784952184E+04  0.00000000000E+00 0. -1.
         -1   -1    0    0    0  501 -0.00000000000E+00 -0.00000000000E+00 -0.57166232529E+03  0.57166232529E+03  0.00000000000E+00 0.  1.
         23    2    1    2    0    0  0.55877307552E+03 -0.70932988766E+03  0.87189844414E+02  0.91176371863E+03  0.91294962478E+02 0.  0.
         13    1    3    3    0    0  0.51475210086E+03 -0.68277868044E+03  0.92577582078E+02  0.86007386922E+03  0.00000000000E+00 0.  1.
        -13    1    3    3    0    0  0.44020974657E+02 -0.26551207225E+02 -0.53877376639E+01  0.51689849410E+02  0.00000000000E+00 0. -1.
         22    1    1    2    0    0 -0.55877307552E+03  0.70932988766E+03  0.11196430487E+04  0.14383938250E+04  0.00000000000E+00 0. -1.
<mgrwt>
<rscale>  0 0.20166296E+04</rscale>
<asrwt>0</asrwt>
<pdfrwt beam="1">  1        1 0.27361465E+00 0.20166296E+04</pdfrwt>
<pdfrwt beam="2">  1       -1 0.87948051E-01 0.20166296E+04</pdfrwt>
<totfact> 0.49599026E+00</totfact>
</mgrwt>
</event>
<event>
 6    1  0.1585031E-006  0.1510862E+04  0.7818608E-02  0.8877262E-01
          1   -1    0    0  501    0  0.00000000000E+00  0.00000000000E+00  0.82287609978E+03  0.82287609978E+03  0.00000000000E+00 0. -1.
         -1   -1    0    0    0  501 -0.00000000000E+00 -0.00000000000E+00 -0.69351427440E+03  0.69351427440E+03  0.00000000000E+00 0.  1.
         23    2    1    2    0    0  0.80298484565E+02  0.29403045335E+03  0.75563046410E+03  0.81988900162E+03  0.91317153853E+02 0.  0.
         13    1    3    3    0    0  0.57181987465E+02  0.66831381263E+02  0.17238567743E+03  0.19352786620E+03  0.00000000000E+00 0. -1.
        -13    1    3    3    0    0  0.23116497100E+02  0.22719907209E+03  0.58324478667E+03  0.62636113543E+03  0.00000000000E+00 0.  1.
         22    1    1    2    0    0 -0.80298484565E+02 -0.29403045335E+03 -0.62626863872E+03  0.69650137255E+03  0.00000000000E+00 0.  1.
<mgrwt>
<rscale>  0 0.15108624E+04</rscale>
<asrwt>0</asrwt>
<pdfrwt beam="1">  1        1 0.12659632E+00 0.15108624E+04</pdfrwt>
<pdfrwt beam="2">  1       -1 0.10669450E+00 0.15108624E+04</pdfrwt>
<totfact> 0.16747832E+01</totfact>
</mgrwt>
</event>
<event>
 6    1  0.1585031E-006  0.1149132E+04  0.7818608E-02  0.9158585E-01
         -1   -1    0    0    0  501 -0.00000000000E+00  0.00000000000E+00  0.26941814515E+03  0.26941814515E+03  0.00000000000E+00 0.  1.
          1   -1    0    0  501    0  0.00000000000E+00 -0.00000000000E+00 -0.12253291095E+04  0.12253291095E+04  0.00000000000E+00 0. -1.
         23    2    1    2    0    0  0.16683987260E+03 -0.22245253739E+03 -0.11298857418E+04  0.11667413132E+04  0.85573523054E+02 0.  0.
         11    1    3    3    0    0  0.10949933752E+03 -0.14418219412E+03 -0.55666789700E+03  0.58536976141E+03  0.00000000000E+00 0.  1.
        -11    1    3    3    0    0  0.57340535071E+02 -0.78270343271E+02 -0.57321784481E+03  0.58137155177E+03  0.00000000000E+00 0. -1.
         22    1    1    2    0    0 -0.16683987260E+03  0.22245253739E+03  0.17397477743E+03  0.32800594150E+03  0.00000000000E+00 0.  1.
<mgrwt>
<rscale>  0 0.11491317E+04</rscale>
<asrwt>0</asrwt>
<pdfrwt beam="1">  1        1 0.18851217E+00 0.11491317E+04</pdfrwt>
<pdfrwt beam="2">  1       -1 0.41448946E-01 0.11491317E+04</pdfrwt>
<totfact> 0.57994454E+01</totfact>
</mgrwt>
</event>
<event>
 6    1  0.1585031E-006  0.5259824E+04  0.7818608E-02  0.7789631E-01
          2   -1    0    0  501    0  0.00000000000E+00  0.00000000000E+00  0.31365784486E+04  0.31365784486E+04  0.00000000000E+00 0. -1.
         -2   -1    0    0    0  501 -0.00000000000E+00 -0.00000000000E+00 -0.22050894575E+04  0.22050894575E+04  0.00000000000E+00 0.  1.
         23    2    1    2    0    0  0.93677469961E+03 -0.11510084571E+04  0.26699091042E+04  0.30559575579E+04  0.89970355101E+02 0.  0.
         13    1    3    3    0    0  0.50689564442E+03 -0.62698013548E+03  0.13581299160E+04  0.15794189290E+04  0.00000000000E+00 0. -1.
        -13    1    3    3    0    0  0.42987905518E+03 -0.52402832166E+03  0.13117791882E+04  0.14765386289E+04  0.00000000000E+00 0.  1.
         22    1    1    2    0    0 -0.93677469961E+03  0.11510084571E+04 -0.17384201131E+04  0.22857103482E+04  0.00000000000E+00 0.  1.
<mgrwt>
<rscale>  0 0.52598236E+04</rscale>
<asrwt>0</asrwt>
<pdfrwt beam="1">  1        2 0.48255053E+00 0.52598236E+04</pdfrwt>
<pdfrwt beam="2">  1       -2 0.33924453E+00 0.52598236E+04</pdfrwt>
<totfact> 0.18469167E-02</totfact>
</mgrwt>
</event>
<event>
 6    1  0.1585031E-006  0.4190207E+03  0.7818608E-02  0.1037386E+00
          1   -1    0    0  501    0  0.00000000000E+00  0.00000000000E+00  0.13468595896E+04  0.13468595896E+04  0.00000000000E+00 0. -1.
         -1   -1    0    0    0  501 -0.00000000000E+00 -0.00000000000E+00 -0.32590320489E+02  0.32590320489E+02  0.00000000000E+00 0.  1.
         23    2    1    2    0    0  0.19917329932E+03  0.11333683294E+02  0.69017158662E+03  0.72424278801E+03  0.91609723626E+02 0.  0.
         11    1    3    3    0    0  0.72179034002E+02  0.36253329822E+01  0.41287058959E+03  0.41914804036E+03  0.00000000000E+00 0. -1.
        -11    1    3    3    0    0  0.12699426532E+03  0.77083503122E+01  0.27730099703E+03  0.30509474765E+03  0.00000000000E+00 0.  1.
         22    1    1    2    0    0 -0.19917329932E+03 -0.11333683294E+02  0.62409768254E+03  0.65520712213E+03  0.00000000000E+00 0.  1.
<mgrwt>
<rscale>  0 0.41902069E+03</rscale>
<asrwt>0</asrwt>
<pdfrwt beam="1">  1        1 0.20720912E+00 0.41902069E+03</pdfrwt>
<pdfrwt beam="2">  1       -1 0.50138965E-02 0.41902069E+03</pdfrwt>
<totfact> 0.15838095E+03</totfact>
</mgrwt>
</event>
<event>
 6    1  0.1585031E-006  0.2231274E+04  0.7818608E-02  0.8505523E-01
         -2   -1    0    0    0  501 -0.00000000000E+00  0.00000000000E+00  0.78931301167E+03  0.78931301167E+03  0.00000000000E+00 0. -1.
          2   -1    0    0  501    0  0.00000000000E+00 -0.00000000000E+00 -0.15768730873E+04  0.15768730873E+04  0.00000000000E+00 0.  1.
         23    2    1    2    0    0  0.97423850214E+03  0.53981415986E+03 -0.40380101487E+03  0.11881321941E+04  0.89793455838E+02 0.  0.
         11    1    3    3    0    0  0.20795225793E+03  0.14628718660E+03 -0.12009468990E+03  0.28118822359E+03  0.00000000000E+00 0.  1.
        -11    1    3    3    0    0  0.76628624420E+03  0.39352697327E+03 -0.28370632496E+03  0.90694397047E+03  0.00000000000E+00 0. -1.
         22    1    1    2    0    0 -0.97423850214E+03 -0.53981415986E+03 -0.38375906081E+03  0.11780539050E+04  0.00000000000E+00 0. -1.
<mgrwt>
<rscale>  0 0.22312745E+04</rscale>
<asrwt>0</asrwt>
<pdfrwt beam="1">  1        2 0.24259586E+00 0.22312745E+04</pdfrwt>
<pdfrwt beam="2">  1       -2 0.12143277E+00 0.22312745E+04</pdfrwt>
<totfact> 0.54011188E+00</totfact>
</mgrwt>
</event>
<event>
 6    1  0.1585031E-006  0.3055991E+04  0.7818608E-02  0.8227921E-01
         -1   -1    0    0    0  501 -0.00000000000E+00  0.00000000000E+00  0.78940165388E+03  0.78940165388E+03  0.00000000000E+00 0.  1.
          1   -1    0    0  501    0  0.00000000000E+00 -0.00000000000E+00 -0.29576453940E+04  0.29576453940E+04  0.00000000000E+00 0. -1.
         23    2    1    2    0    0 -0.11758150441E+04  0.62827418602E+03 -0.19971483026E+04  0.24029699968E+04  0.91618732476E+02 0.  0.
         11    1    3    3    0    0 -0.89006041594E+03  0.43217218736E+03 -0.15004871305E+04  0.17973430313E+04  0.00000000000E+00 0. -1.
        -11    1    3    3    0    0 -0.28575462813E+03  0.19610199867E+03 -0.49666117214E+03  0.60562696545E+03  0.00000000000E+00 0.  1.
         22    1    1    2    0    0  0.11758150441E+04 -0.62827418602E+03 -0.17109543758E+03  0.13440770512E+04  0.00000000000E+00 0.  1.
<mgrwt>
<rscale>  0 0.30559909E+04</rscale>
<asrwt>0</asrwt>
<pdfrwt beam="1">  1        1 0.45502237E+00 0.30559909E+04</pdfrwt>
<pdfrwt beam="2">  1       -1 0.12144641E+00 0.30559909E+04</pdfrwt>
<totfact> 0.32649119E-01</totfact>
</mgrwt>
</event>
<event>
 6    1  0.1585031E-006  0.6600986E+03  0.7818608E-02  0.9788012E-01
         -1   -1    0    0    0  501 -0.00000000000E+00  0.00000000000E+00  0.10797374695E+03  0.10797374695E+03  0.00000000000E+00 0.  1.
          1   -1    0    0  501    0  0.00000000000E+00 -0.00000000000E+00 -0.10088799949E+04  0.10088799949E+04  0.00000000000E+00 0. -1.
         23    2    1    2    0    0  0.22125807284E+03 -0.14383402873E+03 -0.14268236659E+03  0.31401701070E+03  0.92763476952E+02 0.  0.
         13    1    3    3    0    0  0.22814271340E+03 -0.12725336732E+03 -0.13809371423E+03  0.29548670204E+03  0.00000000000E+00 0.  1.
        -13    1    3    3    0    0 -0.68846405630E+01 -0.16580661414E+02 -0.45886523588E+01  0.18530308661E+02  0.00000000000E+00 0. -1.
         22    1    1    2    0    0 -0.22125807284E+03  0.14383402873E+03 -0.75822388132E+03  0.80283673111E+03  0.00000000000E+00 0. -1.
<mgrwt>
<rscale>  0 0.66009864E+03</rscale>
<asrwt>0</asrwt>
<pdfrwt beam="1">  1        1 0.15521231E+00 0.66009864E+03</pdfrwt>
<pdfrwt beam="2">  1       -1 0.16611345E-01 0.66009864E+03</pdfrwt>
<totfact> 0.42013024E+02</totfact>
</mgrwt>
</event>
<event>
 6    1  0.1585031E-006  0.1739807E+04  0.7818608E-02  0.8738981E-01
         -2   -1    0    0    0  501 -0.00000000000E+00  0.00000000000E+00  0.53626235150E+03  0.53626235150E+03  0.00000000000E+00 0.  1.
          2   -1    0    0  501    0  0.00000000000E+00 -0.00000000000E+00 -0.14111230929E+04  0.14111230929E+04  0.00000000000E+00 0. -1.
         23    2    1    2    0    0  0.38028641855E+03  0.10842657789E+03 -0.13029816475E+04  0.13645805087E+04  0.89133091926E+02 0.  0.
         13    1    3    3    0    0  0.27022924716E+03  0.44958519062E+02 -0.97818508823E+03  0.10158204474E+04  0.00000000000E+00 0. -1.
        -13    1    3    3    0    0  0.11005717139E+03  0.63468058827E+02 -0.32479655923E+03  0.34876006129E+03  0.00000000000E+00 0.  1.
         22    1    1    2    0    0 -0.38028641855E+03 -0.10842657789E+03  0.42812090606E+03  0.58280493574E+03  0.00000000000E+00 0.  1.
<mgrwt>
<rscale>  0 0.17398071E+04</rscale>
<asrwt>0</asrwt>
<pdfrwt beam="1">  1        2 0.21709586E+00 0.17398071E+04</pdfrwt>
<pdfrwt beam="2">  1       -2 0.82501900E-01 0.17398071E+04</pdfrwt>
<totfact> 0.17442292E+01</totfact>
</mgrwt>
</event>
<event>
 6    1  0.1585031E-006  0.4692894E+04  0.7818608E-02  0.7877710E-01
          2   -1    0    0  501    0  0.00000000000E+00  0.00000000000E+00  0.35629119694E+04  0.35629119694E+04  0.00000000000E+00 0. -1.
         -2   -1    0    0    0  501 -0.00000000000E+00 -0.00000000000E+00 -0.15453126855E+04  0.15453126855E+04  0.00000000000E+00 0.  1.
         23    2    1    2    0    0 -0.70714352171E+03  0.18836944982E+04  0.23216517962E+04  0.30733278878E+04  0.83188462408E+02 0.  0.
         13    1    3    3    0    0 -0.33700354412E+03  0.78856160642E+03  0.96615449017E+03  0.12918418227E+04  0.00000000000E+00 0.  1.
        -13    1    3    3    0    0 -0.37013997758E+03  0.10951328918E+04  0.13554973060E+04  0.17814860651E+04  0.00000000000E+00 0. -1.
         22    1    1    2    0    0  0.70714352171E+03 -0.18836944982E+04 -0.30405251223E+03  0.20348967671E+04  0.00000000000E+00 0.  1.
<mgrwt>
<rscale>  0 0.46928938E+04</rscale>
<asrwt>0</asrwt>
<pdfrwt beam="1">  1        2 0.54814030E+00 0.46928938E+04</pdfrwt>
<pdfrwt beam="2">  1       -2 0.23774041E+00 0.46928938E+04</pdfrwt>
<totfact> 0.41794426E-02</totfact>
</mgrwt>
</event>
<event>
 6    1  0.1585031E-006  0.6252789E+03  0.7818608E-02  0.9854305E-01
         -2   -1    0    0    0  501 -0.00000000000E+00  0.00000000000E+00  0.10615860866E+03  0.10615860866E+03  0.00000000000E+00 0.  1.
          2   -1    0    0  501    0  0.00000000000E+00 -0.00000000000E+00 -0.92073023412E+03  0.92073023412E+03  0.00000000000E+00 0. -1.
         23    2    1    2    0    0  0.18402696123E+03 -0.17090795640E+03 -0.70308780594E+03  0.75210875974E+03  0.90882735437E+02 0.  0.
         13    1    3    3    0    0  0.24811409637E+02 -0.79828596965E+02 -0.22787166174E+03  0.24272145593E+03  0.00000000000E+00 0.  1.
        -13    1    3    3    0    0  0.15921555159E+03 -0.91079359435E+02 -0.47521614420E+03  0.50938730382E+03  0.00000000000E+00 0. -1.
         22    1    1    2    0    0 -0.18402696123E+03  0.17090795640E+03 -0.11148381952E+03  0.27478008304E+03  0.00000000000E+00 0.  1.
<mgrwt>
<rscale>  0 0.62527895E+03</rscale>
<asrwt>0</asrwt>
<pdfrwt beam="1">  1        2 0.14165080E+00 0.62527895E+03</pdfrwt>
<pdfrwt beam="2">  1       -2 0.16332094E-01 0.62527895E+03</pdfrwt>
<totfact> 0.86658960E+02</totfact>
</mgrwt>
</event>
<event>
 6    1  0.1585031E-006  0.8977904E+03  0.7818608E-02  0.9428348E-01
         -1   -1    0    0    0  501 -0.00000000000E+00  0.00000000000E+00  0.15678895759E+03  0.15678895759E+03  0.00000000000E+00 0.  1.
          1   -1    0    0  501    0  0.00000000000E+00 -0.00000000000E+00 -0.12852110457E+04  0.12852110457E+04  0.00000000000E+00 0. -1.
         23    2    1    2    0    0 -0.14200306591E+02  0.42382305802E+03 -0.78220518583E+03  0.89455705957E+03  0.92518900135E+02 0.  0.
         11    1    3    3    0    0 -0.17872270809E+02  0.46700593385E+02 -0.15318331846E+03  0.16113811635E+03  0.00000000000E+00 0. -1.
        -11    1    3    3    0    0  0.36719642185E+01  0.37712246463E+03 -0.62902186736E+03  0.73341894322E+03  0.00000000000E+00 0.  1.
         22    1    1    2    0    0  0.14200306591E+02 -0.42382305802E+03 -0.34621690232E+03  0.54744294375E+03  0.00000000000E+00 0. -1.
<mgrwt>
<rscale>  0 0.89779040E+03</rscale>
<asrwt>0</asrwt>
<pdfrwt beam="1">  1        1 0.19772478E+00 0.89779040E+03</pdfrwt>
<pdfrwt beam="2">  1       -1 0.24121377E-01 0.89779040E+03</pdfrwt>
<totfact> 0.13903371E+02</totfact>
</mgrwt>
</event>
<event>
 6    1  0.1585031E-006  0.1812051E+04  0.7818608E-02  0.8699917E-01
          2   -1    0    0  501    0  0.00000000000E+00  0.00000000000E+00  0.11030530791E+04  0.11030530791E+04  0.00000000000E+00 0. -1.
         -2   -1    0    0    0  501 -0.00000000000E+00 -0.00000000000E+00 -0.74419084371E+03  0.74419084371E+03  0.00000000000E+00 0.  1.
         23    2    1    2    0    0 -0.37087188059E+03  0.74976732103E+03 -0.16852078747E+03  0.85839113281E+03  0.93483119183E+02 0.  0.
         11    1    3    3    0    0 -0.25066064412E+03  0.43399981527E+03 -0.67326656337E+02  0.50568713333E+03  0.00000000000E+00 0.  1.
        -11    1    3    3    0    0 -0.12021123647E+03  0.31576750577E+03 -0.10119413113E+03  0.35270399948E+03  0.00000000000E+00 0. -1.
         22    1    1    2    0    0  0.37087188059E+03 -0.74976732103E+03  0.52738302288E+03  0.98885279001E+03  0.00000000000E+00 0. -1.
<mgrwt>
<rscale>  0 0.18120508E+04</rscale>
<asrwt>0</asrwt>
<pdfrwt beam="1">  1        2 0.16970047E+00 0.18120508E+04</pdfrwt>
<pdfrwt beam="2">  1       -2 0.11449090E+00 0.18120508E+04</pdfrwt>
<totfact> 0.12196761E+01</totfact>
</mgrwt>
</event>
<event>
 6    1  0.1585031E-006  0.1953335E+04  0.7818608E-02  0.8628754E-01
          1   -1    0    0  501    0  0.00000000000E+00  0.00000000000E+00  0.60702058727E+03  0.60702058727E+03  0.00000000000E+00 0. -1.
         -1   -1    0    0    0  501 -0.00000000000E+00 -0.00000000000E+00 -0.15714117490E+04  0.15714117490E+04  0.00000000000E+00 0.  1.
         23    2    1    2    0    0 -0.22316152328E+03  0.48141195869E+03  0.42837122303E+03  0.68801440835E+03  0.91122894684E+02 0.  0.
         11    1    3    3    0    0 -0.10874631365E+03  0.26644208535E+03  0.17611719159E+03  0.33739355470E+03  0.00000000000E+00 0.  1.
        -11    1    3    3    0    0 -0.11441520964E+03  0.21496987334E+03  0.25225403144E+03  0.35062085366E+03  0.00000000000E+00 0. -1.
         22    1    1    2    0    0  0.22316152328E+03 -0.48141195869E+03 -0.13927623847E+04  0.14904179279E+04  0.00000000000E+00 0.  1.
<mgrwt>
<rscale>  0 0.19533349E+04</rscale>
<asrwt>0</asrwt>
<pdfrwt beam="1">  1        1 0.93387784E-01 0.19533349E+04</pdfrwt>
<pdfrwt beam="2">  1       -1 0.24175565E+00 0.19533349E+04</pdfrwt>
<totfact> 0.24760261E+00</totfact>
</mgrwt>
</event>
<event>
 6    1  0.1585031E-006  0.1439542E+04  0.7818608E-02  0.8925683E-01
         -1   -1    0    0    0  501 -0.00000000000E+00  0.00000000000E+00  0.45996579167E+03  0.45996579167E+03  0.00000000000E+00 0.  1.
          1   -1    0    0  501    0  0.00000000000E+00 -0.00000000000E+00 -0.11263240971E+04  0.11263240971E+04  0.00000000000E+00 0. -1.
         23    2    1    2    0    0 -0.60983435999E+03  0.36619391003E+03 -0.24047685647E+03  0.75721152401E+03  0.97694663295E+02 0.  0.
         11    1    3    3    0    0 -0.40300218029E+03  0.19394638287E+03 -0.17450749406E+03  0.48008209947E+03  0.00000000000E+00 0. -1.
        -11    1    3    3    0    0 -0.20683217970E+03  0.17224752716E+03 -0.65969362402E+02  0.27712942455E+03  0.00000000000E+00 0.  1.
         22    1    1    2    0    0  0.60983435999E+03 -0.36619391003E+03 -0.42588144901E+03  0.82907836480E+03  0.00000000000E+00 0.  1.
<mgrwt>
<rscale>  0 0.14395424E+04</rscale>
<asrwt>0</asrwt>
<pdfrwt beam="1">  1        1 0.17328063E+00 0.14395424E+04</pdfrwt>
<pdfrwt beam="2">  1       -1 0.70763969E-01 0.14395424E+04</pdfrwt>
<totfact> 0.23761228E+01</totfact>
</mgrwt>
</event>
<event>
 6    1  0.1585031E-006  0.3589876E+04  0.7818608E-02  0.8092815E-01
          2   -1    0    0  501    0  0.00000000000E+00  0.00000000000E+00  0.29310881010E+04  0.29310881010E+04  0.00000000000E+00 0. -1.
         -2   -1    0    0    0  501 -0.00000000000E+00 -0.00000000000E+00 -0.10991832161E+04  0.10991832161E+04  0.00000000000E+00 0.  1.
         23    2    1    2    0    0 -0.87924273035E+03 -0.14889522734E+04  0.14521132418E+04  0.22598791732E+04  0.91511524567E+02 0.  0.
         13    1    3    3    0    0 -0.35420758222E+03 -0.57588478186E+03  0.51204449691E+03  0.84811311751E+03  0.00000000000E+00 0.  1.
        -13    1    3    3    0    0 -0.52503514813E+03 -0.91306749152E+03  0.94006874492E+03  0.14117660557E+04  0.00000000000E+00 0. -1.
         22    1    1    2    0    0  0.87924273035E+03  0.14889522734E+04  0.37979164309E+03  0.17703921440E+04  0.00000000000E+00 0.  1.
<mgrwt>
<rscale>  0 0.35898762E+04</rscale>
<asrwt>0</asrwt>
<pdfrwt beam="1">  1        2 0.45093663E+00 0.35898762E+04</pdfrwt>
<pdfrwt beam="2">  1       -2 0.16910511E+00 0.35898762E+04</pdfrwt>
<totfact> 0.33892558E-01</totfact>
</mgrwt>
</event>
<event>
 6    1  0.1585031E-006  0.3253458E+04  0.7818608E-02  0.8174840E-01
          2   -1    0    0  501    0  0.00000000000E+00  0.00000000000E+00  0.30388848931E+04  0.30388848931E+04  0.00000000000E+00 0. -1.
         -2   -1    0    0    0  501 -0.00000000000E+00 -0.00000000000E+00 -0.87079536954E+03  0.87079536954E+03  0.00000000000E+00 0.  1.
         23    2    1    2    0    0  0.16170577766E+04  0.42364473620E+02  0.89371116218E+03  0.18503816419E+04  0.92314559316E+02 0.  0.
         11    1    3    3    0    0  0.10887072520E+04 -0.18908877771E+01  0.63601061168E+03  0.12608713472E+04  0.00000000000E+00 0.  1.
        -11    1    3    3    0    0  0.52835052456E+03  0.44255361397E+02  0.25770055051E+03  0.58951029469E+03  0.00000000000E+00 0. -1.
         22    1    1    2    0    0 -0.16170577766E+04 -0.42364473620E+02  0.12743783614E+04  0.20592986208E+04  0.00000000000E+00 0.  1.
<mgrwt>
<rscale>  0 0.32534578E+04</rscale>
<asrwt>0</asrwt>
<pdfrwt beam="1">  1        2 0.46752075E+00 0.32534578E+04</pdfrwt>
<pdfrwt beam="2">  1       -2 0.13396852E+00 0.32534578E+04</pdfrwt>
<totfact> 0.55466071E-01</totfact>
</mgrwt>
</event>
<event>
 6    1  0.1585031E-006  0.1869189E+04  0.7818608E-02  0.8670347E-01
         -1   -1    0    0    0  501 -0.00000000000E+00  0.00000000000E+00  0.67864317905E+03  0.67864317905E+03  0.00000000000E+00 0.  1.
          1   -1    0    0  501    0  0.00000000000E+00 -0.00000000000E+00 -0.12870786852E+04  0.12870786852E+04  0.00000000000E+00 0. -1.
         23    2    1    2    0    0 -0.17221325887E+03  0.64451468733E+03  0.38094742076E+03  0.77243431938E+03  0.80481374601E+02 0.  0.
         13    1    3    3    0    0 -0.11674294263E+03  0.34485743694E+03  0.17010922376E+03  0.40186156133E+03  0.00000000000E+00 0. -1.
        -13    1    3    3    0    0 -0.55470316241E+02  0.29965725039E+03  0.21083819699E+03  0.37057275805E+03  0.00000000000E+00 0.  1.
         22    1    1    2    0    0  0.17221325887E+03 -0.64451468733E+03 -0.98938292694E+03  0.11932875449E+04  0.00000000000E+00 0. -1.
<mgrwt>
<rscale>  0 0.18691893E+04</rscale>
<asrwt>0</asrwt>
<pdfrwt beam="1">  1        1 0.19801210E+00 0.18691893E+04</pdfrwt>
<pdfrwt beam="2">  1       -1 0.10440664E+00 0.18691893E+04</pdfrwt>
<totfact> 0.74784200E+00</totfact>
</mgrwt>
</event>
<event>
 6    1  0.1585031E-006  0.2302695E+04  0.7818608E-02  0.8476859E-01
         -2   -1    0    0    0  501 -0.00000000000E+00  0.00000000000E+00  0.33712518065E+03  0.33712518065E+03  0.00000000000E+00 0.  1.
          2   -1    0    0  501    0  0.00000000000E+00 -0.00000000000E+00 -0.39320735691E+04  0.39320735691E+04  0.00000000000E+00 0. -1.
         23    2    1    2    0    0  0.10903003183E+04 -0.30957282765E+03 -0.14430609260E+04  0.18370783229E+04  0.88553985869E+02 0.  0.
         11    1    3    3    0    0  0.44357250410E+03 -0.95273552263E+02 -0.62868457575E+03  0.77529214619E+03  0.00000000000E+00 0. -1.
        -11    1    3    3    0    0  0.64672781425E+03 -0.21429927539E+03 -0.81437635023E+03  0.10617861767E+04  0.00000000000E+00 0.  1.
         22    1    1    2    0    0 -0.10903003183E+04  0.30957282765E+03 -0.21518874625E+04  0.24321204269E+04  0.00000000000E+00 0.  1.
<mgrwt>
<rscale>  0 0.23026950E+04</rscale>
<asrwt>0</asrwt>
<pdfrwt beam="1">  1        2 0.60493444E+00 0.23026950E+04</pdfrwt>
<pdfrwt beam="2">  1       -2 0.51865409E-01 0.23026950E+04</pdfrwt>
<totfact> 0.12405237E+00</totfact>
</mgrwt>
</event>
<event>
 6    1  0.1893367E-006  0.2750562E+04  0.7818608E-02  0.8318783E-01
          2   -1    0    0  501    0  0.00000000000E+00  0.00000000000E+00  0.23668342684E+04  0.23668342684E+04  0.00000000000E+00 0. -1.
         -2   -1    0    0    0  501 -0.00000000000E+00 -0.00000000000E+00 -0.79912539517E+03  0.79912539517E+03  0.00000000000E+00 0.  1.
         23    2    1    2    0    0 -0.11070184266E+04 -0.51594290250E+03  0.15087877307E+04  0.19431928925E+04  0.88720491710E+02 0.  0.
         13    1    3    3    0    0 -0.67833675052E+03 -0.30968485288E+03  0.85224785749E+03  0.11324185913E+04  0.00000000000E+00 0.  1.
        -13    1    3    3    0    0 -0.42868167605E+03 -0.20625804962E+03  0.65653987323E+03  0.81077430124E+03  0.00000000000E+00 0. -1.
         22    1    1    2    0    0  0.11070184266E+04  0.51594290250E+03  0.58921142515E+02  0.12227667711E+04  0.00000000000E+00 0.  1.
<mgrwt>
<rscale>  0 0.27505617E+04</rscale>
<asrwt>0</asrwt>
<pdfrwt beam="1">  1        2 0.36412835E+00 0.27505617E+04</pdfrwt>
<pdfrwt beam="2">  1       -2 0.12294237E+00 0.27505617E+04</pdfrwt>
<totfact> 0.18134477E+00</totfact>
</mgrwt>
</event>
<event>
 6    1  0.1585031E-006  0.1552427E+04  0.7818608E-02  0.8850319E-01
         -2   -1    0    0    0  501 -0.00000000000E+00  0.00000000000E+00  0.64234630691E+03  0.64234630691E+03  0.00000000000E+00 0.  1.
          2   -1    0    0  501    0  0.00000000000E+00 -0.00000000000E+00 -0.93797862675E+03  0.93797862675E+03  0.00000000000E+00 0. -1.
         23    2    1    2    0    0 -0.70255246404E+03  0.32357906803E+03 -0.16286801449E+03  0.79552576267E+03  0.89732217894E+02 0.  0.
         13    1    3    3    0    0 -0.15517978521E+03  0.61177464588E+02 -0.72257604000E+02  0.18178176269E+03  0.00000000000E+00 0. -1.
        -13    1    3    3    0    0 -0.54737267883E+03  0.26240160344E+03 -0.90610410495E+02  0.61374399998E+03  0.00000000000E+00 0.  1.
         22    1    1    2    0    0  0.70255246404E+03 -0.32357906803E+03 -0.13276430534E+03  0.78479917098E+03  0.00000000000E+00 0. -1.
<mgrwt>
<rscale>  0 0.15524266E+04</rscale>
<asrwt>0</asrwt>
<pdfrwt beam="1">  1        2 0.14430441E+00 0.15524266E+04</pdfrwt>
<pdfrwt beam="2">  1       -2 0.98822508E-01 0.15524266E+04</pdfrwt>
<totfact> 0.22611076E+01</totfact>
</mgrwt>
</event>
<event>
 6    1  0.1585031E-006  0.1646516E+04  0.7818608E-02  0.8792470E-01
          2   -1    0    0  501    0  0.00000000000E+00  0.00000000000E+00  0.15337383495E+04  0.15337383495E+04  0.00000000000E+00 0. -1.
         -2   -1    0    0    0  501 -0.00000000000E+00 -0.00000000000E+00 -0.44189675970E+03  0.44189675970E+03  0.00000000000E+00 0.  1.
         23    2    1    2    0    0  0.52037512063E+03 -0.32715453777E+02  0.13082728252E+04  0.14110972037E+04  0.88073639726E+02 0.  0.
         11    1    3    3    0    0  0.34625177442E+03 -0.56671674731E+02  0.93004946306E+03  0.99402916142E+03  0.00000000000E+00 0.  1.
        -11    1    3    3    0    0  0.17412334620E+03  0.23956220954E+02  0.37822336215E+03  0.41706804228E+03  0.00000000000E+00 0. -1.
         22    1    1    2    0    0 -0.52037512063E+03  0.32715453777E+02 -0.21643123542E+03  0.56453790550E+03  0.00000000000E+00 0.  1.
<mgrwt>
<rscale>  0 0.16465163E+04</rscale>
<asrwt>0</asrwt>
<pdfrwt beam="1">  1        2 0.23595974E+00 0.16465163E+04</pdfrwt>
<pdfrwt beam="2">  1       -2 0.67984118E-01 0.16465163E+04</pdfrwt>
<totfact> 0.22997409E+01</totfact>
</mgrwt>
</event>
<event>
 6    1  0.1585031E-006  0.3353444E+03  0.7818608E-02  0.1068796E+00
         -1   -1    0    0    0  501 -0.00000000000E+00  0.00000000000E+00  0.24100421914E+03  0.24100421914E+03  0.00000000000E+00 0.  1.
          1   -1    0    0  501    0  0.00000000000E+00 -0.00000000000E+00 -0.11665342652E+03  0.11665342652E+03  0.00000000000E+00 0. -1.
         23    2    1    2    0    0 -0.11411547371E+03  0.64944362647E+02 -0.22707170831E+02  0.16051263255E+03  0.89490658850E+02 0.  0.
         11    1    3    3    0    0 -0.35411391347E+02  0.48359289724E+02 -0.47355575697E+02  0.76388075570E+02  0.00000000000E+00 0. -1.
        -11    1    3    3    0    0 -0.78704082364E+02  0.16585072922E+02  0.24648404867E+02  0.84124556980E+02  0.00000000000E+00 0.  1.
         22    1    1    2    0    0  0.11411547371E+03 -0.64944362647E+02  0.14705796345E+03  0.19714501311E+03  0.00000000000E+00 0. -1.
<mgrwt>
<rscale>  0 0.33534441E+03</rscale>
<asrwt>0</asrwt>
<pdfrwt beam="1">  1        1 0.17946681E-01 0.33534441E+03</pdfrwt>
<pdfrwt beam="2">  1       -1 0.37077572E-01 0.33534441E+03</pdfrwt>
<totfact> 0.20841565E+03</totfact>
</mgrwt>
</event>
<event>
 6    1  0.1585031E-006  0.1005015E+04  0.7818608E-02  0.9303061E-01
         -2   -1    0    0    0  501 -0.00000000000E+00  0.00000000000E+00  0.69458981163E+03  0.69458981163E+03  0.00000000000E+00 0.  1.
          2   -1    0    0  501    0  0.00000000000E+00 -0.00000000000E+00 -0.36354403433E+03  0.36354403433E+03  0.00000000000E+00 0. -1.
         23    2    1    2    0    0 -0.77775304735E+02 -0.28758646811E+03  0.58739735956E+03  0.66510571923E+03  0.92601215265E+02 0.  0.
         13    1    3    3    0    0 -0.11980645521E+02 -0.16563718526E+03  0.24754166519E+03  0.29808738486E+03  0.00000000000E+00 0. -1.
        -13    1    3    3    0    0 -0.65794659214E+02 -0.12194928285E+03  0.33985569436E+03  0.36701833437E+03  0.00000000000E+00 0.  1.
         22    1    1    2    0    0  0.77775304735E+02  0.28758646811E+03 -0.25635158226E+03  0.39302812672E+03  0.00000000000E+00 0. -1.
<mgrwt>
<rscale>  0 0.10050154E+04</rscale>
<asrwt>0</asrwt>
<pdfrwt beam="1">  1        2 0.55929852E-01 0.10050154E+04</pdfrwt>
<pdfrwt beam="2">  1       -2 0.10685997E+00 0.10050154E+04</pdfrwt>
<totfact> 0.62287285E+01</totfact>
</mgrwt>
</event>
<event>
 6    1  0.1585031E-006  0.2620198E+04  0.7818608E-02  0.8361373E-01
         -2   -1    0    0    0  501 -0.00000000000E+00  0.00000000000E+00  0.18690613439E+04  0.18690613439E+04  0.00000000000E+00 0.  1.
          2   -1    0    0  501    0  0.00000000000E+00 -0.00000000000E+00 -0.91830036388E+03  0.91830036388E+03  0.00000000000E+00 0. -1.
         23    2    1    2    0    0  0.17175972205E+03 -0.12956028635E+04  0.40666096974E+03  0.13716876622E+04  0.89809332994E+02 0.  0.
         13    1    3    3    0    0  0.70522769417E+02 -0.41182496912E+03  0.17088635293E+03  0.45141489986E+03  0.00000000000E+00 0. -1.
        -13    1    3    3    0    0  0.10123695264E+03 -0.88377789441E+03  0.23577461681E+03  0.92027276237E+03  0.00000000000E+00 0.  1.
         22    1    1    2    0    0 -0.17175972205E+03  0.12956028635E+04  0.54410001029E+03  0.14156740456E+04  0.00000000000E+00 0.  1.
<mgrwt>
<rscale>  0 0.26201982E+04</rscale>
<asrwt>0</asrwt>
<pdfrwt beam="1">  1        2 0.14127698E+00 0.26201982E+04</pdfrwt>
<pdfrwt beam="2">  1       -2 0.28754790E+00 0.26201982E+04</pdfrwt>
<totfact> 0.95324064E-01</totfact>
</mgrwt>
</event>
<event>
 6    1  0.1585031E-006  0.1276191E+04  0.7818608E-02  0.9048662E-01
          2   -1    0    0  501    0  0.00000000000E+00  0.00000000000E+00  0.17660069579E+04  0.17660069579E+04  0.00000000000E+00 0. -1.
         -2   -1    0    0    0  501 -0.00000000000E+00 -0.00000000000E+00 -0.23055739303E+03  0.23055739303E+03  0.00000000000E+00 0.  1.
         23    2    1    2    0    0 -0.51936220491E+02  0.57123730160E+03  0.11946920082E+04  0.13293873593E+04  0.10474889417E+03 0.  0.
         11    1    3    3    0    0 -0.92413793071E+01  0.28444649224E+03  0.70522589313E+03  0.76048587783E+03  0.00000000000E+00 0. -1.
        -11    1    3    3    0    0 -0.42694841184E+02  0.28679080936E+03  0.48946611504E+03  0.56890148143E+03  0.00000000000E+00 0.  1.
         22    1    1    2    0    0  0.51936220491E+02 -0.57123730160E+03  0.34075755665E+03  0.66717699163E+03  0.00000000000E+00 0.  1.
<mgrwt>
<rscale>  0 0.12761911E+04</rscale>
<asrwt>0</asrwt>
<pdfrwt beam="1">  1        2 0.27169337E+00 0.12761911E+04</pdfrwt>
<pdfrwt beam="2">  1       -2 0.35470369E-01 0.12761911E+04</pdfrwt>
<totfact> 0.66068299E+01</totfact>
</mgrwt>
</event>
<event>
 6    1  0.1585031E-006  0.1699435E+04  0.7818608E-02  0.8761686E-01
          2   -1    0    0  501    0  0.00000000000E+00  0.00000000000E+00  0.14934379031E+04  0.14934379031E+04  0.00000000000E+00 0. -1.
         -2   -1    0    0    0  501 -0.00000000000E+00 -0.00000000000E+00 -0.48346179679E+03  0.48346179679E+03  0.00000000000E+00 0.  1.
         23    2    1    2    0    0  0.53506534188E+03  0.27274328997E+03  0.12017465896E+04  0.13464556179E+04  0.89800016719E+02 0.  0.
         13    1    3    3    0    0  0.11762150759E+03  0.31323782015E+02  0.30247633744E+03  0.32604897343E+03  0.00000000000E+00 0.  1.
        -13    1    3    3    0    0  0.41744383428E+03  0.24141950796E+03  0.89927025217E+03  0.10204066445E+04  0.00000000000E+00 0. -1.
         22    1    1    2    0    0 -0.53506534188E+03 -0.27274328997E+03 -0.19177048328E+03  0.63044408202E+03  0.00000000000E+00 0.  1.
<mgrwt>
<rscale>  0 0.16994354E+04</rscale>
<asrwt>0</asrwt>
<pdfrwt beam="1">  1        2 0.22975968E+00 0.16994354E+04</pdfrwt>
<pdfrwt beam="2">  1       -2 0.74378738E-01 0.16994354E+04</pdfrwt>
<totfact> 0.19815263E+01</totfact>
</mgrwt>
</event>
<event>
 6    1  0.1585031E-006  0.4542658E+04  0.7818608E-02  0.7903211E-01
          2   -1    0    0  501    0  0.00000000000E+00  0.00000000000E+00  0.26856839315E+04  0.26856839315E+04  0.00000000000E+00 0. -1.
         -2   -1    0    0    0  501 -0.00000000000E+00 -0.00000000000E+00 -0.19209019217E+04  0.19209019217E+04  0.00000000000E+00 0.  1.
         23    2    1    2    0    0  0.14772908138E+04  0.28703786653E+03 -0.13413105324E+04  0.20180718621E+04  0.93387423125E+02 0.  0.
         13    1    3    3    0    0  0.12860482172E+03  0.96352944234E+01 -0.87657842561E+02  0.15593568043E+03  0.00000000000E+00 0. -1.
        -13    1    3    3    0    0  0.13486859921E+04  0.27740257210E+03 -0.12536526899E+04  0.18621361817E+04  0.00000000000E+00 0.  1.
         22    1    1    2    0    0 -0.14772908138E+04 -0.28703786653E+03  0.21060925422E+04  0.25885139911E+04  0.00000000000E+00 0. -1.
<mgrwt>
<rscale>  0 0.45426580E+04</rscale>
<asrwt>0</asrwt>
<pdfrwt beam="1">  1        2 0.41318214E+00 0.45426580E+04</pdfrwt>
<pdfrwt beam="2">  1       -2 0.29552337E+00 0.45426580E+04</pdfrwt>
<totfact> 0.69220544E-02</totfact>
</mgrwt>
</event>
<event>
 6    1  0.1585031E-006  0.2920891E+04  0.7818608E-02  0.8266689E-01
          2   -1    0    0  501    0  0.00000000000E+00  0.00000000000E+00  0.10725016587E+04  0.10725016587E+04  0.00000000000E+00 0. -1.
         -2   -1    0    0    0  501 -0.00000000000E+00 -0.00000000000E+00 -0.19887158253E+04  0.19887158253E+04  0.00000000000E+00 0.  1.
         23    2    1    2    0    0  0.12125907224E+04  0.75709219433E+03 -0.15179066923E+03  0.14401350881E+04  0.85929120678E+02 0.  0.
         11    1    3    3    0    0  0.60765964443E+03  0.42684325931E+03 -0.63683383550E+02  0.74531938445E+03  0.00000000000E+00 0.  1.
        -11    1    3    3    0    0  0.60493107801E+03  0.33024893501E+03 -0.88107285677E+02  0.69481570363E+03  0.00000000000E+00 0. -1.
         22    1    1    2    0    0 -0.12125907224E+04 -0.75709219433E+03 -0.76442349740E+03  0.16210823959E+04  0.00000000000E+00 0. -1.
<mgrwt>
<rscale>  0 0.29208910E+04</rscale>
<asrwt>0</asrwt>
<pdfrwt beam="1">  1        2 0.16500026E+00 0.29208910E+04</pdfrwt>
<pdfrwt beam="2">  1       -2 0.30595628E+00 0.29208910E+04</pdfrwt>
<totfact> 0.57044710E-01</totfact>
</mgrwt>
</event>
<event>
 6    1  0.1585031E-006  0.2233061E+04  0.7818608E-02  0.8504792E-01
         -1   -1    0    0    0  501 -0.00000000000E+00  0.00000000000E+00  0.96437093783E+03  0.96437093783E+03  0.00000000000E+00 0.  1.
          1   -1    0    0  501    0  0.00000000000E+00 -0.00000000000E+00 -0.12926981391E+04  0.12926981391E+04  0.00000000000E+00 0. -1.
         23    2    1    2    0    0  0.88260463400E+03  0.77288152838E+01 -0.85269668610E+03  0.12304172220E+04  0.88228267739E+02 0.  0.
         11    1    3    3    0    0  0.49032598446E+03  0.27174229092E+02 -0.52530888645E+03  0.71910182585E+03  0.00000000000E+00 0.  1.
        -11    1    3    3    0    0  0.39227864954E+03 -0.19445413809E+02 -0.32738779965E+03  0.51131539617E+03  0.00000000000E+00 0. -1.
         22    1    1    2    0    0 -0.88260463400E+03 -0.77288152838E+01  0.52436948483E+03  0.10266518549E+04  0.00000000000E+00 0.  1.
<mgrwt>
<rscale>  0 0.22330611E+04</rscale>
<asrwt>0</asrwt>
<pdfrwt beam="1">  1        1 0.19887664E+00 0.22330611E+04</pdfrwt>
<pdfrwt beam="2">  1       -1 0.14836476E+00 0.22330611E+04</pdfrwt>
<totfact> 0.29911698E+00</totfact>
</mgrwt>
</event>
<event>
 6    1  0.1585031E-006  0.9748388E+03  0.7818608E-02  0.9336580E-01
          1   -1    0    0  501    0  0.00000000000E+00  0.00000000000E+00  0.11690467858E+04  0.11690467858E+04  0.00000000000E+00 0. -1.
         -1   -1    0    0    0  501 -0.00000000000E+00 -0.00000000000E+00 -0.20322339120E+03  0.20322339120E+03  0.00000000000E+00 0.  1.
         23    2    1    2    0    0 -0.24139483642E+03  0.31884365368E+03  0.10383599239E+03  0.42203072080E+03  0.85995775689E+02 0.  0.
         13    1    3    3    0    0 -0.76057140492E+02  0.79457781866E+02  0.66957863600E+02  0.12876949645E+03  0.00000000000E+00 0. -1.
        -13    1    3    3    0    0 -0.16533769592E+03  0.23938587182E+03  0.36878128791E+02  0.29326122434E+03  0.00000000000E+00 0.  1.
         22    1    1    2    0    0  0.24139483642E+03 -0.31884365368E+03  0.86198740218E+03  0.95023945617E+03  0.00000000000E+00 0. -1.
<mgrwt>
<rscale>  0 0.97483876E+03</rscale>
<asrwt>0</asrwt>
<pdfrwt beam="1">  1        1 0.17985335E+00 0.97483876E+03</pdfrwt>
<pdfrwt beam="2">  1       -1 0.31265138E-01 0.97483876E+03</pdfrwt>
<totfact> 0.10713649E+02</totfact>
</mgrwt>
</event>
<event>
 6    1  0.1585031E-006  0.1426897E+04  0.7818608E-02  0.8934576E-01
          2   -1    0    0  501    0  0.00000000000E+00  0.00000000000E+00  0.16878490275E+04  0.16878490275E+04  0.00000000000E+00 0. -1.
         -2   -1    0    0    0  501 -0.00000000000E+00 -0.00000000000E+00 -0.30157263891E+03  0.30157263891E+03  0.00000000000E+00 0.  1.
         23    2    1    2    0    0 -0.33908700632E+03  0.16733780381E+03 -0.14259921628E+03  0.41447958697E+03  0.92069827302E+02 0.  0.
         11    1    3    3    0    0 -0.14337276017E+03  0.12165287187E+03 -0.75082562046E+02  0.20246619647E+03  0.00000000000E+00 0.  1.
        -11    1    3    3    0    0 -0.19571424615E+03  0.45684931939E+02 -0.67516654233E+02  0.21201339050E+03  0.00000000000E+00 0. -1.
         22    1    1    2    0    0  0.33908700632E+03 -0.16733780381E+03  0.15288756048E+04  0.15749420794E+04  0.00000000000E+00 0. -1.
<mgrwt>
<rscale>  0 0.14268975E+04</rscale>
<asrwt>0</asrwt>
<pdfrwt beam="1">  1        2 0.25966908E+00 0.14268975E+04</pdfrwt>
<pdfrwt beam="2">  1       -2 0.46395791E-01 0.14268975E+04</pdfrwt>
<totfact> 0.42612728E+01</totfact>
</mgrwt>
</event>
<event>
 6    1  0.1585031E-006  0.1537343E+04  0.7818608E-02  0.8859993E-01
         -1   -1    0    0    0  501 -0.00000000000E+00  0.00000000000E+00  0.46539441173E+03  0.46539441173E+03  0.00000000000E+00 0.  1.
          1   -1    0    0  501    0  0.00000000000E+00 -0.00000000000E+00 -0.12695811814E+04  0.12695811814E+04  0.00000000000E+00 0. -1.
         23    2    1    2    0    0  0.11208584223E+03 -0.17852641850E+03  0.42776284057E+03  0.48512169755E+03  0.89034238005E+02 0.  0.
         11    1    3    3    0    0  0.45813565058E+02 -0.74798495722E+02  0.27663890075E+03  0.29021161092E+03  0.00000000000E+00 0. -1.
        -11    1    3    3    0    0  0.66272277172E+02 -0.10372792277E+03  0.15112393982E+03  0.19491008663E+03  0.00000000000E+00 0.  1.
         22    1    1    2    0    0 -0.11208584223E+03  0.17852641850E+03 -0.12319496102E+04  0.12498538956E+04  0.00000000000E+00 0. -1.
<mgrwt>
<rscale>  0 0.15373431E+04</rscale>
<asrwt>0</asrwt>
<pdfrwt beam="1">  1        1 0.19532018E+00 0.15373431E+04</pdfrwt>
<pdfrwt beam="2">  1       -1 0.71599140E-01 0.15373431E+04</pdfrwt>
<totfact> 0.18066221E+01</totfact>
</mgrwt>
</event>
<event>
 6    1  0.1585031E-006  0.3264804E+04  0.7818608E-02  0.8171909E-01
         -2   -1    0    0    0  501 -0.00000000000E+00  0.00000000000E+00  0.15359701320E+04  0.15359701320E+04  0.00000000000E+00 0.  1.
          2   -1    0    0  501    0  0.00000000000E+00 -0.00000000000E+00 -0.17348876728E+04  0.17348876728E+04  0.00000000000E+00 0. -1.
         23    2    1    2    0    0  0.43545213701E+03  0.79195353197E+03 -0.14598981183E+04  0.17194452300E+04  0.91544648427E+02 0.  0.
         11    1    3    3    0    0  0.23666363905E+03  0.34699450926E+03 -0.71685221041E+03  0.83083810642E+03  0.00000000000E+00 0. -1.
        -11    1    3    3    0    0  0.19878849796E+03  0.44495902271E+03 -0.74304590788E+03  0.88860712355E+03  0.00000000000E+00 0.  1.
         22    1    1    2    0    0 -0.43545213701E+03 -0.79195353197E+03  0.12609805775E+04  0.15514125748E+04  0.00000000000E+00 0.  1.
<mgrwt>
<rscale>  0 0.32648036E+04</rscale>
<asrwt>0</asrwt>
<pdfrwt beam="1">  1        2 0.26690579E+00 0.32648036E+04</pdfrwt>
<pdfrwt beam="2">  1       -2 0.23630310E+00 0.32648036E+04</pdfrwt>
<totfact> 0.61349494E-01</totfact>
</mgrwt>
</event>
<event>
 6    1  0.1585031E-006  0.2965490E+04  0.7818608E-02  0.8253655E-01
         -2   -1    0    0    0  501 -0.00000000000E+00  0.00000000000E+00  0.11248913885E+04  0.11248913885E+04  0.00000000000E+00 0.  1.
          2   -1    0    0  501    0  0.00000000000E+00 -0.00000000000E+00 -0.19544396425E+04  0.19544396425E+04  0.00000000000E+00 0. -1.
         23    2    1    2    0    0 -0.75373131044E+03  0.11353927844E+04  0.18816446666E+03  0.13784586534E+04  0.86687538081E+02 0.  0.
         11    1    3    3    0    0 -0.61612746164E+03  0.88770879609E+03  0.12152057006E+03  0.10873854903E+04  0.00000000000E+00 0.  1.
        -11    1    3    3    0    0 -0.13760384881E+03  0.24768398833E+03  0.66643896604E+02  0.29107316303E+03  0.00000000000E+00 0. -1.
         22    1    1    2    0    0  0.75373131044E+03 -0.11353927844E+04 -0.10177127207E+04  0.17008723777E+04  0.00000000000E+00 0. -1.
<mgrwt>
<rscale>  0 0.29654897E+04</rscale>
<asrwt>0</asrwt>
<pdfrwt beam="1">  1        2 0.30068302E+00 0.29654897E+04</pdfrwt>
<pdfrwt beam="2">  1       -2 0.17306021E+00 0.29654897E+04</pdfrwt>
<totfact> 0.12329028E+00</totfact>
</mgrwt>
</event>
<event>
 6    1  0.1585031E-006  0.7455744E+03  0.7818608E-02  0.9642319E-01
          2   -1    0    0  501    0  0.00000000000E+00  0.00000000000E+00  0.39895271077E+03  0.39895271077E+03  0.00000000000E+00 0. -1.
         -2   -1    0    0    0  501 -0.00000000000E+00 -0.00000000000E+00 -0.34833777983E+03  0.34833777983E+03  0.00000000000E+00 0.  1.
         23    2    1    2    0    0 -0.14822928485E+03  0.32648909712E+03  0.10540427877E+03  0.38456618199E+03  0.90631313122E+02 0.  0.
         13    1    3    3    0    0 -0.54571717657E+02  0.15429168380E+03  0.36254837515E+01  0.16369832067E+03  0.00000000000E+00 0. -1.
        -13    1    3    3    0    0 -0.93657567190E+02  0.17219741332E+03  0.10177879502E+03  0.22086786132E+03  0.00000000000E+00 0.  1.
         22    1    1    2    0    0  0.14822928485E+03 -0.32648909712E+03 -0.54789347819E+02  0.36272430861E+03  0.00000000000E+00 0.  1.
<mgrwt>
<rscale>  0 0.74557441E+03</rscale>
<asrwt>0</asrwt>
<pdfrwt beam="1">  1        2 0.61377340E-01 0.74557441E+03</pdfrwt>
<pdfrwt beam="2">  1       -2 0.53590428E-01 0.74557441E+03</pdfrwt>
<totfact> 0.26397707E+02</totfact>
</mgrwt>
</event>
<event>
 6    1  0.1585031E-006  0.6689537E+03  0.7818608E-02  0.9771850E-01
         -3   -1    0    0    0  501 -0.00000000000E+00  0.00000000000E+00  0.54303033705E+03  0.54303033705E+03  0.00000000000E+00 0.  1.
          3   -1    0    0  501    0  0.00000000000E+00 -0.00000000000E+00 -0.20601935920E+03  0.20601935920E+03  0.00000000000E+00 0. -1.
         23    2    1    2    0    0  0.82160390870E+02 -0.11938935518E+03  0.50138091728E+03  0.52991132684E+03  0.91755338492E+02 0.  0.
         13    1    3    3    0    0  0.39671427714E+02 -0.69111509521E+02  0.12804806519E+03  0.15081952767E+03  0.00000000000E+00 0.  1.
        -13    1    3    3    0    0  0.42488963157E+02 -0.50277845654E+02  0.37333285209E+03  0.37909179917E+03  0.00000000000E+00 0. -1.
         22    1    1    2    0    0 -0.82160390870E+02  0.11938935518E+03 -0.16436993943E+03  0.21913836941E+03  0.00000000000E+00 0. -1.
<mgrwt>
<rscale>  0 0.66895370E+03</rscale>
<asrwt>0</asrwt>
<pdfrwt beam="1">  1        3 0.31695286E-01 0.66895370E+03</pdfrwt>
<pdfrwt beam="2">  1       -3 0.83543128E-01 0.66895370E+03</pdfrwt>
<totfact> 0.33942000E+01</totfact>
</mgrwt>
</event>
<event>
 6    1  0.1585031E-006  0.1200993E+04  0.7818608E-02  0.9111988E-01
          2   -1    0    0  501    0  0.00000000000E+00  0.00000000000E+00  0.21372777179E+04  0.21372777179E+04  0.00000000000E+00 0. -1.
         -2   -1    0    0    0  501 -0.00000000000E+00 -0.00000000000E+00 -0.16871731139E+03  0.16871731139E+03  0.00000000000E+00 0.  1.
         23    2    1    2    0    0 -0.26188606218E+03  0.65356515845E+02  0.20124503149E+04  0.20325318548E+04  0.91507851713E+02 0.  0.
         11    1    3    3    0    0 -0.25409633288E+03  0.38564112974E+02  0.18308022023E+04  0.18487533208E+04  0.00000000000E+00 0.  1.
        -11    1    3    3    0    0 -0.77897292907E+01  0.26792402871E+02  0.18164811263E+03  0.18377853399E+03  0.00000000000E+00 0. -1.
         22    1    1    2    0    0  0.26188606218E+03 -0.65356515845E+02 -0.43889908466E+02  0.27346317447E+03  0.00000000000E+00 0.  1.
<mgrwt>
<rscale>  0 0.12009925E+04</rscale>
<asrwt>0</asrwt>
<pdfrwt beam="1">  1        2 0.32881194E+00 0.12009925E+04</pdfrwt>
<pdfrwt beam="2">  1       -2 0.25956511E-01 0.12009925E+04</pdfrwt>
<totfact> 0.74211382E+01</totfact>
</mgrwt>
</event>
<event>
 6    1  0.1585031E-006  0.1026851E+04  0.7818608E-02  0.9279576E-01
          3   -1    0    0  501    0  0.00000000000E+00  0.00000000000E+00  0.80605975420E+03  0.80605975420E+03  0.00000000000E+00 0. -1.
         -3   -1    0    0    0  501 -0.00000000000E+00 -0.00000000000E+00 -0.32702993014E+03  0.32702993014E+03  0.00000000000E+00 0.  1.
         23    2    1    2    0    0 -0.50919614479E+03  0.24673264012E+01  0.24193104104E+03  0.57139347243E+03  0.93129319502E+02 0.  0.
         13    1    3    3    0    0 -0.20114353761E+03 -0.22118163148E+02  0.13968575984E+03  0.24588624883E+03  0.00000000000E+00 0. -1.
        -13    1    3    3    0    0 -0.30805260718E+03  0.24585489549E+02  0.10224528120E+03  0.32550722360E+03  0.00000000000E+00 0.  1.
         22    1    1    2    0    0  0.50919614479E+03 -0.24673264012E+01  0.23709878303E+03  0.56169621191E+03  0.00000000000E+00 0.  1.
<mgrwt>
<rscale>  0 0.10268508E+04</rscale>
<asrwt>0</asrwt>
<pdfrwt beam="1">  1        3 0.12400919E+00 0.10268508E+04</pdfrwt>
<pdfrwt beam="2">  1       -3 0.50312297E-01 0.10268508E+04</pdfrwt>
<totfact> 0.53502727E+00</totfact>
</mgrwt>
</event>
<event>
 6    1  0.1585031E-006  0.3788606E+04  0.7818608E-02  0.8048604E-01
         -2   -1    0    0    0  501 -0.00000000000E+00  0.00000000000E+00  0.10520859401E+04  0.10520859401E+04  0.00000000000E+00 0.  1.
          2   -1    0    0  501    0  0.00000000000E+00 -0.00000000000E+00 -0.34107322519E+04  0.34107322519E+04  0.00000000000E+00 0. -1.
         23    2    1    2    0    0 -0.40088074916E+03 -0.70925749781E+03 -0.31930104058E+04  0.32966642508E+04  0.94488928539E+02 0.  0.
         11    1    3    3    0    0 -0.13123071078E+03 -0.30666029077E+03 -0.11887335417E+04  0.12346454822E+04  0.00000000000E+00 0. -1.
        -11    1    3    3    0    0 -0.26965003837E+03 -0.40259720704E+03 -0.20042768641E+04  0.20620187686E+04  0.00000000000E+00 0.  1.
         22    1    1    2    0    0  0.40088074916E+03  0.70925749781E+03  0.83436409399E+03  0.11661539412E+04  0.00000000000E+00 0.  1.
<mgrwt>
<rscale>  0 0.37886058E+04</rscale>
<asrwt>0</asrwt>
<pdfrwt beam="1">  1        2 0.52472803E+00 0.37886058E+04</pdfrwt>
<pdfrwt beam="2">  1       -2 0.16185938E+00 0.37886058E+04</pdfrwt>
<totfact> 0.18333658E-01</totfact>
</mgrwt>
</event>
<event>
 6    1  0.1585031E-006  0.3172430E+04  0.7818608E-02  0.8196137E-01
          2   -1    0    0  501    0  0.00000000000E+00  0.00000000000E+00  0.16346823574E+04  0.16346823574E+04  0.00000000000E+00 0. -1.
         -2   -1    0    0    0  501 -0.00000000000E+00 -0.00000000000E+00 -0.15391845349E+04  0.15391845349E+04  0.00000000000E+00 0.  1.
         23    2    1    2    0    0 -0.83969012317E+03 -0.12707359382E+04 -0.39077946167E+03  0.15750188930E+04  0.90147647070E+02 0.  0.
         13    1    3    3    0    0 -0.23881740824E+03 -0.43542236917E+03 -0.11597729163E+03  0.50997757424E+03  0.00000000000E+00 0. -1.
        -13    1    3    3    0    0 -0.60087271493E+03 -0.83531356901E+03 -0.27480217004E+03  0.10650413188E+04  0.00000000000E+00 0.  1.
         22    1    1    2    0    0  0.83969012317E+03  0.12707359382E+04  0.48627728415E+03  0.15988479992E+04  0.00000000000E+00 0. -1.
<mgrwt>
<rscale>  0 0.31724299E+04</rscale>
<asrwt>0</asrwt>
<pdfrwt beam="1">  1        2 0.25148959E+00 0.31724299E+04</pdfrwt>
<pdfrwt beam="2">  1       -2 0.23679762E+00 0.31724299E+04</pdfrwt>
<totfact> 0.69799926E-01</totfact>
</mgrwt>
</event>
<event>
 6    1  0.1585031E-006  0.5890284E+03  0.7818608E-02  0.9928434E-01
         -2   -1    0    0    0  501 -0.00000000000E+00  0.00000000000E+00  0.19271388662E+03  0.19271388662E+03  0.00000000000E+00 0.  1.
          2   -1    0    0  501    0  0.00000000000E+00 -0.00000000000E+00 -0.45009006893E+03  0.45009006893E+03  0.00000000000E+00 0. -1.
         23    2    1    2    0    0  0.25986828695E+03  0.47884911771E+02 -0.25596866906E+03  0.37855696420E+03  0.89224011694E+02 0.  0.
         11    1    3    3    0    0  0.74587771727E+02  0.12631430538E+02 -0.13421659507E+03  0.15406811195E+03  0.00000000000E+00 0. -1.
        -11    1    3    3    0    0  0.18528051523E+03  0.35253481232E+02 -0.12175207400E+03  0.22448885225E+03  0.00000000000E+00 0.  1.
         22    1    1    2    0    0 -0.25986828695E+03 -0.47884911771E+02 -0.14075132413E+01  0.26424699134E+03  0.00000000000E+00 0.  1.
<mgrwt>
<rscale>  0 0.58902837E+03</rscale>
<asrwt>0</asrwt>
<pdfrwt beam="1">  1        2 0.69244625E-01 0.58902837E+03</pdfrwt>
<pdfrwt beam="2">  1       -2 0.29648291E-01 0.58902837E+03</pdfrwt>
<totfact> 0.73248717E+02</totfact>
</mgrwt>
</event>
<event>
 6    1  0.1585031E-006  0.2915993E+04  0.7818608E-02  0.8268135E-01
         -1   -1    0    0    0  501 -0.00000000000E+00  0.00000000000E+00  0.83881035180E+03  0.83881035180E+03  0.00000000000E+00 0.  1.
          1   -1    0    0  501    0  0.00000000000E+00 -0.00000000000E+00 -0.25342484160E+04  0.25342484160E+04  0.00000000000E+00 0. -1.
         23    2    1    2    0    0 -0.15578856079E+03  0.52723545486E+03  0.71191495211E+03  0.90372771553E+03  0.87484765836E+02 0.  0.
         11    1    3    3    0    0 -0.13106920896E+03  0.30208141320E+03  0.44667443322E+03  0.55493275902E+03  0.00000000000E+00 0. -1.
        -11    1    3    3    0    0 -0.24719351823E+02  0.22515404165E+03  0.26524051889E+03  0.34879495651E+03  0.00000000000E+00 0.  1.
         22    1    1    2    0    0  0.15578856079E+03 -0.52723545486E+03 -0.24073530163E+04  0.24693310522E+04  0.00000000000E+00 0. -1.
<mgrwt>
<rscale>  0 0.29159930E+04</rscale>
<asrwt>0</asrwt>
<pdfrwt beam="1">  1        1 0.38988437E+00 0.29159930E+04</pdfrwt>
<pdfrwt beam="2">  1       -1 0.12904775E+00 0.29159930E+04</pdfrwt>
<totfact> 0.56770735E-01</totfact>
</mgrwt>
</event>
<event>
 6    1  0.1585031E-006  0.1607070E+04  0.7818608E-02  0.8816216E-01
         -1   -1    0    0    0  501 -0.00000000000E+00  0.00000000000E+00  0.31603825859E+03  0.31603825859E+03  0.00000000000E+00 0.  1.
          1   -1    0    0  501    0  0.00000000000E+00 -0.00000000000E+00 -0.20430084440E+04  0.20430084440E+04  0.00000000000E+00 0. -1.
         23    2    1    2    0    0 -0.48280766030E+03 -0.54636441825E+01 -0.18042981983E+04  0.18700551793E+04  0.92093958762E+02 0.  0.
         11    1    3    3    0    0 -0.27159456362E+03 -0.45023512551E+02 -0.94385250048E+03  0.98318272276E+03  0.00000000000E+00 0.  1.
        -11    1    3    3    0    0 -0.21121309669E+03  0.39559868369E+02 -0.86044569779E+03  0.88687245658E+03  0.00000000000E+00 0. -1.
         22    1    1    2    0    0  0.48280766030E+03  0.54636441825E+01  0.77328012839E+02  0.48899152326E+03  0.00000000000E+00 0.  1.
<mgrwt>
<rscale>  0 0.16070704E+04</rscale>
<asrwt>0</asrwt>
<pdfrwt beam="1">  1        1 0.31430900E+00 0.16070704E+04</pdfrwt>
<pdfrwt beam="2">  1       -1 0.48621270E-01 0.16070704E+04</pdfrwt>
<totfact> 0.11316132E+01</totfact>
</mgrwt>
</event>
<event>
 6    1  0.1585031E-006  0.7211613E+03  0.7818608E-02  0.9681713E-01
         -1   -1    0    0    0  501 -0.00000000000E+00  0.00000000000E+00  0.31794472716E+03  0.31794472716E+03  0.00000000000E+00 0.  1.
          1   -1    0    0  501    0  0.00000000000E+00 -0.00000000000E+00 -0.40893398380E+03  0.40893398380E+03  0.00000000000E+00 0. -1.
         23    2    1    2    0    0  0.46551065424E+02  0.17370725890E+03  0.26270865121E+03  0.33008730038E+03  0.87181287937E+02 0.  0.
         11    1    3    3    0    0 -0.18551125633E+01  0.34452509757E+02  0.74268172352E+01  0.35292697338E+02  0.00000000000E+00 0. -1.
        -11    1    3    3    0    0  0.48406177988E+02  0.13925474914E+03  0.25528183397E+03  0.29479460304E+03  0.00000000000E+00 0.  1.
         22    1    1    2    0    0 -0.46551065424E+02 -0.17370725890E+03 -0.35369790785E+03  0.39679141057E+03  0.00000000000E+00 0. -1.
<mgrwt>
<rscale>  0 0.72116130E+03</rscale>
<asrwt>0</asrwt>
<pdfrwt beam="1">  1        1 0.62912921E-01 0.72116130E+03</pdfrwt>
<pdfrwt beam="2">  1       -1 0.48914573E-01 0.72116130E+03</pdfrwt>
<totfact> 0.24703199E+02</totfact>
</mgrwt>
</event>
<event>
 6    1  0.1585031E-006  0.9161253E+03  0.7818608E-02  0.9405646E-01
          1   -1    0    0  501    0  0.00000000000E+00  0.00000000000E+00  0.16820335463E+04  0.16820335463E+04  0.00000000000E+00 0. -1.
         -1   -1    0    0    0  501 -0.00000000000E+00 -0.00000000000E+00 -0.12474268207E+03  0.12474268207E+03  0.00000000000E+00 0.  1.
         23    2    1    2    0    0 -0.37235003251E+03  0.22247065036E+03  0.10467757190E+04  0.11368781387E+04  0.92815728823E+02 0.  0.
         11    1    3    3    0    0 -0.17458565442E+02  0.41549189391E+02  0.11569351710E+03  0.12416169516E+03  0.00000000000E+00 0. -1.
        -11    1    3    3    0    0 -0.35489146707E+03  0.18092146097E+03  0.93108220187E+03  0.10127164436E+04  0.00000000000E+00 0.  1.
         22    1    1    2    0    0  0.37235003251E+03 -0.22247065036E+03  0.51051514530E+03  0.66989808969E+03  0.00000000000E+00 0. -1.
<mgrwt>
<rscale>  0 0.91612527E+03</rscale>
<asrwt>0</asrwt>
<pdfrwt beam="1">  1        1 0.25877438E+00 0.91612527E+03</pdfrwt>
<pdfrwt beam="2">  1       -1 0.19191183E-01 0.91612527E+03</pdfrwt>
<totfact> 0.10850191E+02</totfact>
</mgrwt>
</event>
<event>
 6    1  0.1585031E-006  0.2474499E+04  0.7818608E-02  0.8412127E-01
          2   -1    0    0  501    0  0.00000000000E+00  0.00000000000E+00  0.15079457731E+04  0.15079457731E+04  0.00000000000E+00 0.  1.
         -2   -1    0    0    0  501 -0.00000000000E+00 -0.00000000000E+00 -0.10151466933E+04  0.10151466933E+04  0.00000000000E+00 0. -1.
         23    2    1    2    0    0 -0.12237568568E+04 -0.16391151721E+03  0.18944825868E+03  0.12516879082E+04  0.79900855795E+02 0.  0.
         11    1    3    3    0    0 -0.89036757380E+03 -0.11259365296E+03  0.10211022034E+03  0.90324871672E+03  0.00000000000E+00 0.  1.
        -11    1    3    3    0    0 -0.33338928296E+03 -0.51317864246E+02  0.87338038341E+02  0.34843919143E+03  0.00000000000E+00 0. -1.
         22    1    1    2    0    0  0.12237568568E+04  0.16391151721E+03  0.30335082114E+03  0.12714045582E+04  0.00000000000E+00 0.  1.
<mgrwt>
<rscale>  0 0.24744989E+04</rscale>
<asrwt>0</asrwt>
<pdfrwt beam="1">  1        2 0.23199166E+00 0.24744989E+04</pdfrwt>
<pdfrwt beam="2">  1       -2 0.15617641E+00 0.24744989E+04</pdfrwt>
<totfact> 0.30207464E+00</totfact>
</mgrwt>
</event>
<event>
 6    1  0.1585031E-006  0.1816943E+04  0.7818608E-02  0.8697341E-01
         -2   -1    0    0    0  501 -0.00000000000E+00  0.00000000000E+00  0.57664454955E+03  0.57664454955E+03  0.00000000000E+00 0.  1.
          2   -1    0    0  501    0  0.00000000000E+00 -0.00000000000E+00 -0.14312467857E+04  0.14312467857E+04  0.00000000000E+00 0. -1.
         23    2    1    2    0    0  0.71074574351E+03 -0.19461887697E+03 -0.10112297592E+04  0.12545201119E+04  0.90548694979E+02 0.  0.
         11    1    3    3    0    0  0.30581777499E+03 -0.11657265859E+03 -0.39391936074E+03  0.51213880833E+03  0.00000000000E+00 0.  1.
        -11    1    3    3    0    0  0.40492796852E+03 -0.78046218378E+02 -0.61731039847E+03  0.74238130361E+03  0.00000000000E+00 0. -1.
         22    1    1    2    0    0 -0.71074574351E+03  0.19461887697E+03  0.15662752303E+03  0.75337122334E+03  0.00000000000E+00 0.  1.
<mgrwt>
<rscale>  0 0.18169432E+04</rscale>
<asrwt>0</asrwt>
<pdfrwt beam="1">  1        2 0.22019181E+00 0.18169432E+04</pdfrwt>
<pdfrwt beam="2">  1       -2 0.88714546E-01 0.18169432E+04</pdfrwt>
<totfact> 0.14304498E+01</totfact>
</mgrwt>
</event>
<event>
 6    1  0.1585031E-006  0.3919349E+04  0.7818608E-02  0.8021017E-01
         -2   -1    0    0    0  501 -0.00000000000E+00  0.00000000000E+00  0.90457462332E+03  0.90457462332E+03  0.00000000000E+00 0.  1.
          2   -1    0    0  501    0  0.00000000000E+00 -0.00000000000E+00 -0.42454471071E+04  0.42454471071E+04  0.00000000000E+00 0. -1.
         23    2    1    2    0    0 -0.17149579150E+04 -0.79661523534E+03 -0.10008160616E+04  0.21414439032E+04  0.92047367713E+02 0.  0.
         11    1    3    3    0    0 -0.11888966322E+04 -0.51700791814E+03 -0.71762845602E+03  0.14818107134E+04  0.00000000000E+00 0. -1.
        -11    1    3    3    0    0 -0.52606128287E+03 -0.27960731720E+03 -0.28318760555E+03  0.65963318981E+03  0.00000000000E+00 0.  1.
         22    1    1    2    0    0  0.17149579150E+04  0.79661523534E+03 -0.23400564222E+04  0.30085778273E+04  0.00000000000E+00 0. -1.
<mgrwt>
<rscale>  0 0.39193488E+04</rscale>
<asrwt>0</asrwt>
<pdfrwt beam="1">  1        2 0.65314570E+00 0.39193488E+04</pdfrwt>
<pdfrwt beam="2">  1       -2 0.13916533E+00 0.39193488E+04</pdfrwt>
<totfact> 0.61151375E-02</totfact>
</mgrwt>
</event>
<event>
 6    1  0.1585031E-006  0.2922158E+04  0.7818608E-02  0.8266315E-01
         -1   -1    0    0    0  501 -0.00000000000E+00  0.00000000000E+00  0.83932606925E+03  0.83932606925E+03  0.00000000000E+00 0.  1.
          1   -1    0    0  501    0  0.00000000000E+00 -0.00000000000E+00 -0.25434114537E+04  0.25434114537E+04  0.00000000000E+00 0. -1.
         23    2    1    2    0    0 -0.23828489017E+03  0.14050631180E+04 -0.12182862582E+04  0.18770872164E+04  0.90845784394E+02 0.  0.
         13    1    3    3    0    0 -0.10246733945E+03  0.83539530926E+03 -0.74776232519E+03  0.11258478464E+04  0.00000000000E+00 0.  1.
        -13    1    3    3    0    0 -0.13581755072E+03  0.56966780878E+03 -0.47052393300E+03  0.75123936996E+03  0.00000000000E+00 0. -1.
         22    1    1    2    0    0  0.23828489017E+03 -0.14050631180E+04 -0.48579912629E+03  0.15056503066E+04  0.00000000000E+00 0.  1.
<mgrwt>
<rscale>  0 0.29221578E+04</rscale>
<asrwt>0</asrwt>
<pdfrwt beam="1">  1        1 0.39129406E+00 0.29221578E+04</pdfrwt>
<pdfrwt beam="2">  1       -1 0.12912709E+00 0.29221578E+04</pdfrwt>
<totfact> 0.55826271E-01</totfact>
</mgrwt>
</event>
<event>
 6    1  0.1585031E-006  0.3763526E+04  0.7818608E-02  0.8054028E-01
         -1   -1    0    0    0  501 -0.00000000000E+00  0.00000000000E+00  0.13115836981E+04  0.13115836981E+04  0.00000000000E+00 0.  1.
          1   -1    0    0  501    0  0.00000000000E+00 -0.00000000000E+00 -0.26998139178E+04  0.26998139178E+04  0.00000000000E+00 0. -1.
         23    2    1    2    0    0 -0.76133901333E+03 -0.11430324062E+04  0.67484067392E+03  0.15330066688E+04  0.92408529769E+02 0.  0.
         13    1    3    3    0    0 -0.30941204654E+03 -0.40370386978E+03  0.28230569113E+03  0.58172943218E+03  0.00000000000E+00 0.  1.
        -13    1    3    3    0    0 -0.45192696679E+03 -0.73932853646E+03  0.39253498279E+03  0.95127723659E+03  0.00000000000E+00 0. -1.
         22    1    1    2    0    0  0.76133901333E+03  0.11430324062E+04 -0.20630708936E+04  0.24783909472E+04  0.00000000000E+00 0. -1.
<mgrwt>
<rscale>  0 0.37635260E+04</rscale>
<asrwt>0</asrwt>
<pdfrwt beam="1">  1        1 0.41535599E+00 0.37635260E+04</pdfrwt>
<pdfrwt beam="2">  1       -1 0.20178211E+00 0.37635260E+04</pdfrwt>
<totfact> 0.11459989E-01</totfact>
</mgrwt>
</event>
<event>
 6    1  0.1585031E-006  0.2271620E+04  0.7818608E-02  0.8489196E-01
         -2   -1    0    0    0  501 -0.00000000000E+00  0.00000000000E+00  0.41500239686E+03  0.41500239686E+03  0.00000000000E+00 0.  1.
          2   -1    0    0  501    0  0.00000000000E+00 -0.00000000000E+00 -0.31085721519E+04  0.31085721519E+04  0.00000000000E+00 0. -1.
         23    2    1    2    0    0 -0.52622654488E+03  0.79689981842E+03 -0.40089198598E+03  0.10399612435E+04  0.94028221929E+02 0.  0.
         11    1    3    3    0    0 -0.25409938743E+03  0.46712103512E+03 -0.21002797684E+03  0.57173447613E+03  0.00000000000E+00 0. -1.
        -11    1    3    3    0    0 -0.27212715745E+03  0.32977878331E+03 -0.19086400915E+03  0.46822676742E+03  0.00000000000E+00 0.  1.
         22    1    1    2    0    0  0.52622654488E+03 -0.79689981842E+03 -0.22926777691E+04  0.24836133053E+04  0.00000000000E+00 0. -1.
<mgrwt>
<rscale>  0 0.22716205E+04</rscale>
<asrwt>0</asrwt>
<pdfrwt beam="1">  1        2 0.47824185E+00 0.22716205E+04</pdfrwt>
<pdfrwt beam="2">  1       -2 0.63846526E-01 0.22716205E+04</pdfrwt>
<totfact> 0.30673754E+00</totfact>
</mgrwt>
</event>
<event>
 6    1  0.1585031E-006  0.1717844E+04  0.7818608E-02  0.8751252E-01
          2   -1    0    0  501    0  0.00000000000E+00  0.00000000000E+00  0.23870887170E+04  0.23870887170E+04  0.00000000000E+00 0. -1.
         -2   -1    0    0    0  501 -0.00000000000E+00 -0.00000000000E+00 -0.30905731925E+03  0.30905731925E+03  0.00000000000E+00 0.  1.
         23    2    1    2    0    0 -0.50089486154E+03 -0.11225412523E+03 -0.34535892373E+02  0.52210896061E+03  0.88929117451E+02 0.  0.
         13    1    3    3    0    0 -0.30449641027E+03 -0.87146893505E+02  0.18089511172E+02  0.31723788445E+03  0.00000000000E+00 0.  1.
        -13    1    3    3    0    0 -0.19639845127E+03 -0.25107231727E+02 -0.52625403545E+02  0.20487107615E+03  0.00000000000E+00 0. -1.
         22    1    1    2    0    0  0.50089486154E+03  0.11225412523E+03  0.21125672902E+04  0.21740370757E+04  0.00000000000E+00 0. -1.
<mgrwt>
<rscale>  0 0.17178443E+04</rscale>
<asrwt>0</asrwt>
<pdfrwt beam="1">  1        2 0.36724441E+00 0.17178443E+04</pdfrwt>
<pdfrwt beam="2">  1       -2 0.47547281E-01 0.17178443E+04</pdfrwt>
<totfact> 0.16124276E+01</totfact>
</mgrwt>
</event>
<event>
 6    1  0.1585031E-006  0.2806264E+04  0.7818608E-02  0.8301326E-01
         -2   -1    0    0    0  501 -0.00000000000E+00  0.00000000000E+00  0.98488373008E+03  0.98488373008E+03  0.00000000000E+00 0.  1.
          2   -1    0    0  501    0  0.00000000000E+00 -0.00000000000E+00 -0.19989966892E+04  0.19989966892E+04  0.00000000000E+00 0. -1.
         23    2    1    2    0    0  0.69865395234E+03  0.93361655012E+03  0.31927503707E+03  0.12125304380E+04  0.92392131755E+02 0.  0.
         13    1    3    3    0    0  0.52160920743E+03  0.75305892709E+03  0.23160206040E+03  0.94488805016E+03  0.00000000000E+00 0. -1.
        -13    1    3    3    0    0  0.17704474491E+03  0.18055762303E+03  0.87672976668E+02  0.26764238785E+03  0.00000000000E+00 0.  1.
         22    1    1    2    0    0 -0.69865395234E+03 -0.93361655012E+03 -0.13333879962E+04  0.17713499813E+04  0.00000000000E+00 0. -1.
<mgrwt>
<rscale>  0 0.28062639E+04</rscale>
<asrwt>0</asrwt>
<pdfrwt beam="1">  1        2 0.30753795E+00 0.28062639E+04</pdfrwt>
<pdfrwt beam="2">  1       -2 0.15152058E+00 0.28062639E+04</pdfrwt>
<totfact> 0.16972494E+00</totfact>
</mgrwt>
</event>
<event>
 6    1  0.1585031E-006  0.2589843E+04  0.7818608E-02  0.8371660E-01
          1   -1    0    0  501    0  0.00000000000E+00  0.00000000000E+00  0.19994462591E+04  0.19994462591E+04  0.00000000000E+00 0. -1.
         -1   -1    0    0    0  501 -0.00000000000E+00 -0.00000000000E+00 -0.83864294682E+03  0.83864294682E+03  0.00000000000E+00 0.  1.
         23    2    1    2    0    0  0.98806594345E+03 -0.80588701904E+03  0.81843221106E+03  0.15178823407E+04  0.91691439355E+02 0.  0.
         13    1    3    3    0    0  0.13194599950E+03 -0.14886138805E+03  0.13803221189E+03  0.24212053023E+03  0.00000000000E+00 0. -1.
        -13    1    3    3    0    0  0.85611994395E+03 -0.65702563099E+03  0.68039999916E+03  0.12757618105E+04  0.00000000000E+00 0.  1.
         22    1    1    2    0    0 -0.98806594345E+03  0.80588701904E+03  0.34237110124E+03  0.13202068652E+04  0.00000000000E+00 0.  1.
<mgrwt>
<rscale>  0 0.25898429E+04</rscale>
<asrwt>0</asrwt>
<pdfrwt beam="1">  1        1 0.30760712E+00 0.25898429E+04</pdfrwt>
<pdfrwt beam="2">  1       -1 0.12902199E+00 0.25898429E+04</pdfrwt>
<totfact> 0.13588394E+00</totfact>
</mgrwt>
</event>
<event>
 6    1  0.1585031E-006  0.1606081E+04  0.7818608E-02  0.8816821E-01
          1   -1    0    0  501    0  0.00000000000E+00  0.00000000000E+00  0.65315687614E+03  0.65315687614E+03  0.00000000000E+00 0. -1.
         -1   -1    0    0    0  501 -0.00000000000E+00 -0.00000000000E+00 -0.98731889446E+03  0.98731889446E+03  0.00000000000E+00 0.  1.
         23    2    1    2    0    0  0.72097079582E+03  0.14593464528E+03  0.15480380016E+03  0.75719587116E+03  0.91025060548E+02 0.  0.
         11    1    3    3    0    0  0.14891913779E+03  0.57550268780E+02  0.71077101671E+01  0.15981070860E+03  0.00000000000E+00 0.  1.
        -11    1    3    3    0    0  0.57205165803E+03  0.88384376496E+02  0.14769608999E+03  0.59738516257E+03  0.00000000000E+00 0. -1.
         22    1    1    2    0    0 -0.72097079582E+03 -0.14593464528E+03 -0.48896581848E+03  0.88327989944E+03  0.00000000000E+00 0.  1.
<mgrwt>
<rscale>  0 0.16060811E+04</rscale>
<asrwt>0</asrwt>
<pdfrwt beam="1">  1        1 0.10048567E+00 0.16060811E+04</pdfrwt>
<pdfrwt beam="2">  1       -1 0.15189521E+00 0.16060811E+04</pdfrwt>
<totfact> 0.97804361E+00</totfact>
</mgrwt>
</event>
<event>
 6    1  0.1585031E-006  0.2232909E+04  0.7818608E-02  0.8504854E-01
          1   -1    0    0  501    0  0.00000000000E+00  0.00000000000E+00  0.57627112859E+03  0.57627112859E+03  0.00000000000E+00 0. -1.
         -1   -1    0    0    0  501 -0.00000000000E+00 -0.00000000000E+00 -0.21629931547E+04  0.21629931547E+04  0.00000000000E+00 0.  1.
         23    2    1    2    0    0 -0.79659232488E+03  0.25244153948E+03  0.11017702847E+03  0.84776951345E+03  0.91039043325E+02 0.  0.
         13    1    3    3    0    0 -0.15168359963E+03  0.68456023886E+02  0.53205813899E+02  0.17471405277E+03  0.00000000000E+00 0.  1.
        -13    1    3    3    0    0 -0.64490872525E+03  0.18398551559E+03  0.56971214572E+02  0.67305546068E+03  0.00000000000E+00 0. -1.
         22    1    1    2    0    0  0.79659232488E+03 -0.25244153948E+03 -0.16968990545E+04  0.18914947698E+04  0.00000000000E+00 0.  1.
<mgrwt>
<rscale>  0 0.22329089E+04</rscale>
<asrwt>0</asrwt>
<pdfrwt beam="1">  1        1 0.88657098E-01 0.22329089E+04</pdfrwt>
<pdfrwt beam="2">  1       -1 0.33276817E+00 0.22329089E+04</pdfrwt>
<totfact> 0.66666236E-01</totfact>
</mgrwt>
</event>
<event>
 6    1  0.1585031E-006  0.2458636E+04  0.7818608E-02  0.8417872E-01
          2   -1    0    0  501    0  0.00000000000E+00  0.00000000000E+00  0.16027565528E+04  0.16027565528E+04  0.00000000000E+00 0. -1.
         -2   -1    0    0    0  501 -0.00000000000E+00 -0.00000000000E+00 -0.94288949409E+03  0.94288949409E+03  0.00000000000E+00 0.  1.
         23    2    1    2    0    0  0.99759400518E+03  0.25380326205E+03 -0.36226997159E+03  0.10949999827E+04  0.90418663398E+02 0.  0.
         11    1    3    3    0    0  0.19103132081E+03  0.22059756114E+02 -0.93416980461E+02  0.21379038942E+03  0.00000000000E+00 0. -1.
        -11    1    3    3    0    0  0.80656268437E+03  0.23174350594E+03 -0.26885299113E+03  0.88120959323E+03  0.00000000000E+00 0.  1.
         22    1    1    2    0    0 -0.99759400518E+03 -0.25380326205E+03  0.10221370304E+04  0.14506460643E+04  0.00000000000E+00 0. -1.
<mgrwt>
<rscale>  0 0.24586357E+04</rscale>
<asrwt>0</asrwt>
<pdfrwt beam="1">  1        2 0.24657793E+00 0.24586357E+04</pdfrwt>
<pdfrwt beam="2">  1       -2 0.14505992E+00 0.24586357E+04</pdfrwt>
<totfact> 0.32556339E+00</totfact>
</mgrwt>
</event>
<event>
 6    1  0.1585031E-006  0.3766338E+04  0.7818608E-02  0.8053417E-01
          1   -1    0    0  501    0  0.00000000000E+00  0.00000000000E+00  0.28345110910E+04  0.28345110910E+04  0.00000000000E+00 0. -1.
         -1   -1    0    0    0  501 -0.00000000000E+00 -0.00000000000E+00 -0.12511244133E+04  0.12511244133E+04  0.00000000000E+00 0.  1.
         23    2    1    2    0    0  0.16711154276E+04  0.85515748385E+03  0.93843312446E+03  0.21007208511E+04  0.91925353181E+02 0.  0.
         13    1    3    3    0    0  0.16826654241E+03  0.80521527933E+02  0.12441277632E+03  0.22422284600E+03  0.00000000000E+00 0. -1.
        -13    1    3    3    0    0  0.15028488852E+04  0.77463595592E+03  0.81402034814E+03  0.18764980051E+04  0.00000000000E+00 0.  1.
         22    1    1    2    0    0 -0.16711154276E+04 -0.85515748385E+03  0.64495355319E+03  0.19849146532E+04  0.00000000000E+00 0. -1.
<mgrwt>
<rscale>  0 0.37663383E+04</rscale>
<asrwt>0</asrwt>
<pdfrwt beam="1">  1        1 0.43607863E+00 0.37663383E+04</pdfrwt>
<pdfrwt beam="2">  1       -1 0.19248068E+00 0.37663383E+04</pdfrwt>
<totfact> 0.10661011E-01</totfact>
</mgrwt>
</event>
<event>
 6    1  0.1585031E-006  0.1430351E+04  0.7818608E-02  0.8932138E-01
         -1   -1    0    0    0  501 -0.00000000000E+00  0.00000000000E+00  0.10809699681E+04  0.10809699681E+04  0.00000000000E+00 0.  1.
          1   -1    0    0  501    0  0.00000000000E+00 -0.00000000000E+00 -0.47316361700E+03  0.47316361700E+03  0.00000000000E+00 0. -1.
         23    2    1    2    0    0 -0.69424838591E+03  0.98224826897E+02  0.43989731506E+03  0.83314649622E+03  0.94839329473E+02 0.  0.
         13    1    3    3    0    0 -0.43433706524E+03  0.76754853259E+02  0.32649493667E+03  0.54876127543E+03  0.00000000000E+00 0. -1.
        -13    1    3    3    0    0 -0.25991132068E+03  0.21469973638E+02  0.11340237838E+03  0.28438522079E+03  0.00000000000E+00 0.  1.
         22    1    1    2    0    0  0.69424838591E+03 -0.98224826897E+02  0.16790903607E+03  0.72098708889E+03  0.00000000000E+00 0.  1.
<mgrwt>
<rscale>  0 0.14303505E+04</rscale>
<asrwt>0</asrwt>
<pdfrwt beam="1">  1        1 0.72794403E-01 0.14303505E+04</pdfrwt>
<pdfrwt beam="2">  1       -1 0.16630307E+00 0.14303505E+04</pdfrwt>
<totfact> 0.12188892E+01</totfact>
</mgrwt>
</event>
<event>
 6    1  0.1585031E-006  0.1702334E+04  0.7818608E-02  0.8760034E-01
         -2   -1    0    0    0  501 -0.00000000000E+00  0.00000000000E+00  0.28318151700E+03  0.28318151700E+03  0.00000000000E+00 0.  1.
          2   -1    0    0  501    0  0.00000000000E+00 -0.00000000000E+00 -0.25583780878E+04  0.25583780878E+04  0.00000000000E+00 0. -1.
         23    2    1    2    0    0 -0.30891738890E+03 -0.66769514513E+03 -0.43739926322E+03  0.86197740046E+03  0.10217711801E+03 0.  0.
         13    1    3    3    0    0 -0.23389597642E+02 -0.14706949604E+03 -0.91975497480E+02  0.17503143169E+03  0.00000000000E+00 0. -1.
        -13    1    3    3    0    0 -0.28552779126E+03 -0.52062564909E+03 -0.34542376574E+03  0.68694596877E+03  0.00000000000E+00 0.  1.
         22    1    1    2    0    0  0.30891738890E+03  0.66769514513E+03 -0.18377973076E+04  0.19795822043E+04  0.00000000000E+00 0. -1.
<mgrwt>
<rscale>  0 0.17023341E+04</rscale>
<asrwt>0</asrwt>
<pdfrwt beam="1">  1        2 0.39359665E+00 0.17023341E+04</pdfrwt>
<pdfrwt beam="2">  1       -2 0.43566385E-01 0.17023341E+04</pdfrwt>
<totfact> 0.15329504E+01</totfact>
</mgrwt>
</event>
<event>
 6    1  0.1585031E-006  0.1439561E+04  0.7818608E-02  0.8925670E-01
         -1   -1    0    0    0  501 -0.00000000000E+00  0.00000000000E+00  0.47189183085E+03  0.47189183085E+03  0.00000000000E+00 0.  1.
          1   -1    0    0  501    0  0.00000000000E+00 -0.00000000000E+00 -0.10978868358E+04  0.10978868358E+04  0.00000000000E+00 0. -1.
         23    2    1    2    0    0  0.25801694082E+03  0.21159968434E+03  0.37761331230E+03  0.51215074408E+03  0.91429770182E+02 0.  0.
         13    1    3    3    0    0  0.11226077069E+03  0.38819995081E+02  0.15034450862E+03  0.19160622100E+03  0.00000000000E+00 0.  1.
        -13    1    3    3    0    0  0.14575617013E+03  0.17277968926E+03  0.22726880368E+03  0.32054452308E+03  0.00000000000E+00 0. -1.
         22    1    1    2    0    0 -0.25801694082E+03 -0.21159968434E+03 -0.10036083173E+04  0.10576279226E+04  0.00000000000E+00 0. -1.
<mgrwt>
<rscale>  0 0.14395608E+04</rscale>
<asrwt>0</asrwt>
<pdfrwt beam="1">  1        1 0.16890567E+00 0.14395608E+04</pdfrwt>
<pdfrwt beam="2">  1       -1 0.72598744E-01 0.14395608E+04</pdfrwt>
<totfact> 0.23671752E+01</totfact>
</mgrwt>
</event>
<event>
 6    1  0.1585031E-006  0.1234297E+04  0.7818608E-02  0.9083355E-01
         -1   -1    0    0    0  501 -0.00000000000E+00  0.00000000000E+00  0.11834964934E+04  0.11834964934E+04  0.00000000000E+00 0. -1.
          1   -1    0    0  501    0  0.00000000000E+00 -0.00000000000E+00 -0.32181977401E+03  0.32181977401E+03  0.00000000000E+00 0.  1.
         23    2    1    2    0    0  0.43456384247E+03  0.43316934193E+03  0.43067636262E+03  0.75548780736E+03  0.93799177983E+02 0.  0.
         11    1    3    3    0    0  0.23748568701E+03  0.17457373115E+03  0.22431050600E+03  0.37039255155E+03  0.00000000000E+00 0. -1.
        -11    1    3    3    0    0  0.19707815546E+03  0.25859561077E+03  0.20636585661E+03  0.38509525581E+03  0.00000000000E+00 0.  1.
         22    1    1    2    0    0 -0.43456384247E+03 -0.43316934193E+03  0.43100035678E+03  0.74982846006E+03  0.00000000000E+00 0. -1.
<mgrwt>
<rscale>  0 0.12342975E+04</rscale>
<asrwt>0</asrwt>
<pdfrwt beam="1">  1        1 0.49510735E-01 0.12342975E+04</pdfrwt>
<pdfrwt beam="2">  1       -1 0.18207638E+00 0.12342975E+04</pdfrwt>
<totfact> 0.15878267E+01</totfact>
</mgrwt>
</event>
<event>
 6    1  0.1585031E-006  0.3234859E+04  0.7818608E-02  0.8179671E-01
         -4   -1    0    0    0  501 -0.00000000000E+00  0.00000000000E+00  0.20219968610E+04  0.20219968610E+04  0.00000000000E+00 0.  1.
          4   -1    0    0  501    0  0.00000000000E+00 -0.00000000000E+00 -0.12938095899E+04  0.12938095899E+04  0.00000000000E+00 0. -1.
         23    2    1    2    0    0 -0.48453771422E+03 -0.37103294250E+03  0.18983244459E+04  0.19960855529E+04  0.90992261097E+02 0.  0.
         13    1    3    3    0    0 -0.16830906071E+03 -0.15233686521E+03  0.83799954494E+03  0.86820371903E+03  0.00000000000E+00 0.  1.
        -13    1    3    3    0    0 -0.31622865351E+03 -0.21869607729E+03  0.10603249009E+04  0.11278818338E+04  0.00000000000E+00 0. -1.
         22    1    1    2    0    0  0.48453771422E+03  0.37103294250E+03 -0.11701371748E+04  0.13197208980E+04  0.00000000000E+00 0. -1.
<mgrwt>
<rscale>  0 0.32348595E+04</rscale>
<asrwt>0</asrwt>
<pdfrwt beam="1">  1        4 0.19904763E+00 0.32348595E+04</pdfrwt>
<pdfrwt beam="2">  1       -4 0.31107644E+00 0.32348595E+04</pdfrwt>
<totfact> 0.58385183E-03</totfact>
</mgrwt>
</event>
<event>
 6    1  0.1585031E-006  0.1409943E+04  0.7818608E-02  0.8946652E-01
         -2   -1    0    0    0  501 -0.00000000000E+00  0.00000000000E+00  0.66462088607E+03  0.66462088607E+03  0.00000000000E+00 0.  1.
          2   -1    0    0  501    0  0.00000000000E+00 -0.00000000000E+00 -0.74777240010E+03  0.74777240010E+03  0.00000000000E+00 0. -1.
         23    2    1    2    0    0 -0.54598869784E+03 -0.10350250541E+03 -0.47144130156E+03  0.73446601433E+03  0.91471299330E+02 0.  0.
         13    1    3    3    0    0 -0.15716861180E+03 -0.38938963987E+02 -0.86701759826E+02  0.18367201912E+03  0.00000000000E+00 0.  1.
        -13    1    3    3    0    0 -0.38882008604E+03 -0.64563541421E+02 -0.38473954174E+03  0.55079399522E+03  0.00000000000E+00 0. -1.
         22    1    1    2    0    0  0.54598869784E+03  0.10350250541E+03  0.38828978754E+03  0.67792727183E+03  0.00000000000E+00 0.  1.
<mgrwt>
<rscale>  0 0.14099435E+04</rscale>
<asrwt>0</asrwt>
<pdfrwt beam="1">  1        2 0.11504191E+00 0.14099435E+04</pdfrwt>
<pdfrwt beam="2">  1       -2 0.10224937E+00 0.14099435E+04</pdfrwt>
<totfact> 0.28687627E+01</totfact>
</mgrwt>
</event>
<event>
 6    1  0.1585031E-006  0.1364387E+04  0.7818608E-02  0.8980008E-01
          3   -1    0    0  501    0  0.00000000000E+00  0.00000000000E+00  0.26694851599E+03  0.26694851599E+03  0.00000000000E+00 0. -1.
         -3   -1    0    0    0  501 -0.00000000000E+00 -0.00000000000E+00 -0.17433635042E+04  0.17433635042E+04  0.00000000000E+00 0.  1.
         23    2    1    2    0    0  0.20884761043E+03  0.58617959201E+03 -0.34054900361E+03  0.71516130561E+03  0.90874807867E+02 0.  0.
         13    1    3    3    0    0  0.90232516541E+02  0.13583570549E+03 -0.82857965003E+02  0.18291716238E+03  0.00000000000E+00 0. -1.
        -13    1    3    3    0    0  0.11861509389E+03  0.45034388652E+03 -0.25769103860E+03  0.53224414323E+03  0.00000000000E+00 0.  1.
         22    1    1    2    0    0 -0.20884761043E+03 -0.58617959201E+03 -0.11358659846E+04  0.12951507145E+04  0.00000000000E+00 0. -1.
<mgrwt>
<rscale>  0 0.13643875E+04</rscale>
<asrwt>0</asrwt>
<pdfrwt beam="1">  1        3 0.41069002E-01 0.13643875E+04</pdfrwt>
<pdfrwt beam="2">  1       -3 0.26820977E+00 0.13643875E+04</pdfrwt>
<totfact> 0.87012499E-01</totfact>
</mgrwt>
</event>
<event>
 6    1  0.1585031E-006  0.8260901E+03  0.7818608E-02  0.9523002E-01
          2   -1    0    0  501    0  0.00000000000E+00  0.00000000000E+00  0.85691002109E+03  0.85691002109E+03  0.00000000000E+00 0. -1.
         -2   -1    0    0    0  501 -0.00000000000E+00 -0.00000000000E+00 -0.19909466819E+03  0.19909466819E+03  0.00000000000E+00 0.  1.
         23    2    1    2    0    0  0.38196023423E+03  0.14064537593E+03  0.30059387253E+03  0.51444958743E+03  0.92881427127E+02 0.  0.
         13    1    3    3    0    0  0.21893247541E+02  0.93529372586E+01  0.53192070795E+02  0.58276823169E+02  0.00000000000E+00 0.  1.
        -13    1    3    3    0    0  0.36006698669E+03  0.13129243867E+03  0.24740180173E+03  0.45617276426E+03  0.00000000000E+00 0. -1.
         22    1    1    2    0    0 -0.38196023423E+03 -0.14064537593E+03  0.35722148038E+03  0.54155510185E+03  0.00000000000E+00 0. -1.
<mgrwt>
<rscale>  0 0.82609011E+03</rscale>
<asrwt>0</asrwt>
<pdfrwt beam="1">  1        2 0.13183231E+00 0.82609011E+03</pdfrwt>
<pdfrwt beam="2">  1       -2 0.30629950E-01 0.82609011E+03</pdfrwt>
<totfact> 0.31073172E+02</totfact>
</mgrwt>
</event>
<event>
 6    1  0.1585031E-006  0.2578692E+04  0.7818608E-02  0.8375475E-01
          2   -1    0    0  501    0  0.00000000000E+00  0.00000000000E+00  0.23298955933E+04  0.23298955933E+04  0.00000000000E+00 0. -1.
         -2   -1    0    0    0  501 -0.00000000000E+00 -0.00000000000E+00 -0.71351412768E+03  0.71351412768E+03  0.00000000000E+00 0.  1.
         23    2    1    2    0    0  0.50258320640E+03 -0.11596873584E+04  0.51801918487E+03  0.13689353711E+04  0.90418614161E+02 0.  0.
         13    1    3    3    0    0  0.49737096235E+03 -0.11026763316E+04  0.48908407268E+03  0.13047897136E+04  0.00000000000E+00 0.  1.
        -13    1    3    3    0    0  0.52122440500E+01 -0.57011026799E+02  0.28935112194E+02  0.64145657549E+02  0.00000000000E+00 0. -1.
         22    1    1    2    0    0 -0.50258320640E+03  0.11596873584E+04  0.10983622808E+04  0.16744743499E+04  0.00000000000E+00 0.  1.
<mgrwt>
<rscale>  0 0.25786922E+04</rscale>
<asrwt>0</asrwt>
<pdfrwt beam="1">  1        2 0.35844547E+00 0.25786922E+04</pdfrwt>
<pdfrwt beam="2">  1       -2 0.10977141E+00 0.25786922E+04</pdfrwt>
<totfact> 0.25505379E+00</totfact>
</mgrwt>
</event>
<event>
 6    1  0.1585031E-006  0.8660595E+03  0.7818608E-02  0.9469032E-01
         -2   -1    0    0    0  501 -0.00000000000E+00  0.00000000000E+00  0.18439154966E+03  0.18439154966E+03  0.00000000000E+00 0. -1.
          2   -1    0    0  501    0  0.00000000000E+00 -0.00000000000E+00 -0.10169380623E+04  0.10169380623E+04  0.00000000000E+00 0.  1.
         23    2    1    2    0    0 -0.11817161424E+03 -0.39713786494E+03 -0.27134562276E+03  0.50374130001E+03  0.91890348560E+02 0.  0.
         13    1    3    3    0    0 -0.61693151008E+02 -0.86426692066E+02 -0.92422219472E+02  0.14077458803E+03  0.00000000000E+00 0.  1.
        -13    1    3    3    0    0 -0.56478463227E+02 -0.31071117288E+03 -0.17892340329E+03  0.36296671198E+03  0.00000000000E+00 0. -1.
         22    1    1    2    0    0  0.11817161424E+03  0.39713786494E+03 -0.56120088987E+03  0.69758831196E+03  0.00000000000E+00 0.  1.
<mgrwt>
<rscale>  0 0.86605955E+03</rscale>
<asrwt>0</asrwt>
<pdfrwt beam="1">  1        2 0.15645202E+00 0.86605955E+03</pdfrwt>
<pdfrwt beam="2">  1       -2 0.28367930E-01 0.86605955E+03</pdfrwt>
<totfact> 0.28014909E+02</totfact>
</mgrwt>
</event>
<event>
 6    1  0.1585031E-006  0.1582330E+04  0.7818608E-02  0.8831477E-01
          1   -1    0    0  501    0  0.00000000000E+00  0.00000000000E+00  0.17389858839E+04  0.17389858839E+04  0.00000000000E+00 0. -1.
         -1   -1    0    0    0  501 -0.00000000000E+00 -0.00000000000E+00 -0.35994670210E+03  0.35994670210E+03  0.00000000000E+00 0.  1.
         23    2    1    2    0    0 -0.47335447452E+03 -0.40480776506E+02  0.15266786432E+04  0.16014383022E+04  0.90298418204E+02 0.  0.
         11    1    3    3    0    0 -0.26259681434E+03  0.22000444558E+02  0.80681163483E+03  0.84875563065E+03  0.00000000000E+00 0. -1.
        -11    1    3    3    0    0 -0.21075766019E+03 -0.62481221065E+02  0.71986700840E+03  0.75268267158E+03  0.00000000000E+00 0.  1.
         22    1    1    2    0    0  0.47335447452E+03  0.40480776506E+02 -0.14763946143E+03  0.49749428378E+03  0.00000000000E+00 0.  1.
<mgrwt>
<rscale>  0 0.15823302E+04</rscale>
<asrwt>0</asrwt>
<pdfrwt beam="1">  1        1 0.26753628E+00 0.15823302E+04</pdfrwt>
<pdfrwt beam="2">  1       -1 0.55376417E-01 0.15823302E+04</pdfrwt>
<totfact> 0.14203573E+01</totfact>
</mgrwt>
</event>
<event>
 6    1  0.1585031E-006  0.2519982E+04  0.7818608E-02  0.8395901E-01
         -1   -1    0    0    0  501 -0.00000000000E+00  0.00000000000E+00  0.69169838140E+03  0.69169838140E+03  0.00000000000E+00 0.  1.
          1   -1    0    0  501    0  0.00000000000E+00 -0.00000000000E+00 -0.22951870629E+04  0.22951870629E+04  0.00000000000E+00 0. -1.
         23    2    1    2    0    0 -0.44599957215E+03  0.90037735159E+03 -0.17000627881E+04  0.19774690032E+04  0.10283570095E+03 0.  0.
         13    1    3    3    0    0 -0.24434040604E+03  0.41170432375E+03 -0.87945499303E+03  0.10013210120E+04  0.00000000000E+00 0. -1.
        -13    1    3    3    0    0 -0.20165916611E+03  0.48867302785E+03 -0.82060779505E+03  0.97614799120E+03  0.00000000000E+00 0.  1.
         22    1    1    2    0    0  0.44599957215E+03 -0.90037735159E+03  0.96574106569E+02  0.10094164412E+04  0.00000000000E+00 0.  1.
<mgrwt>
<rscale>  0 0.25199819E+04</rscale>
<asrwt>0</asrwt>
<pdfrwt beam="1">  1        1 0.35310570E+00 0.25199819E+04</pdfrwt>
<pdfrwt beam="2">  1       -1 0.10641513E+00 0.25199819E+04</pdfrwt>
<totfact> 0.13719173E+00</totfact>
</mgrwt>
</event>
<event>
 6    1  0.1585031E-006  0.2427534E+04  0.7818608E-02  0.8429267E-01
         -2   -1    0    0    0  501 -0.00000000000E+00  0.00000000000E+00  0.92104237102E+03  0.92104237102E+03  0.00000000000E+00 0.  1.
          2   -1    0    0  501    0  0.00000000000E+00 -0.00000000000E+00 -0.15995253855E+04  0.15995253855E+04  0.00000000000E+00 0. -1.
         23    2    1    2    0    0 -0.52831009085E+02  0.63949628817E+03  0.72798470359E+03  0.97463824322E+03  0.90616545813E+02 0.  0.
         11    1    3    3    0    0 -0.40025797881E+02  0.16708042373E+03  0.24171314759E+03  0.29655215091E+03  0.00000000000E+00 0.  1.
        -11    1    3    3    0    0 -0.12805211204E+02  0.47241586444E+03  0.48627155600E+03  0.67808609231E+03  0.00000000000E+00 0. -1.
         22    1    1    2    0    0  0.52831009085E+02 -0.63949628817E+03 -0.14064677180E+04  0.15459295133E+04  0.00000000000E+00 0. -1.
<mgrwt>
<rscale>  0 0.24275343E+04</rscale>
<asrwt>0</asrwt>
<pdfrwt beam="1">  1        2 0.24608083E+00 0.24275343E+04</pdfrwt>
<pdfrwt beam="2">  1       -2 0.14169883E+00 0.24275343E+04</pdfrwt>
<totfact> 0.34851255E+00</totfact>
</mgrwt>
</event>
<event>
 6    1  0.1585031E-006  0.1234334E+04  0.7818608E-02  0.9083324E-01
         -2   -1    0    0    0  501 -0.00000000000E+00  0.00000000000E+00  0.28793443205E+03  0.28793443205E+03  0.00000000000E+00 0.  1.
          2   -1    0    0  501    0  0.00000000000E+00 -0.00000000000E+00 -0.13228525824E+04  0.13228525824E+04  0.00000000000E+00 0. -1.
         23    2    1    2    0    0  0.10928669688E+03  0.47021582959E+03 -0.25366288093E+02  0.49175105834E+03  0.90161778464E+02 0.  0.
         11    1    3    3    0    0  0.68964518385E+02  0.13057629953E+03 -0.24729192182E+02  0.14972577514E+03  0.00000000000E+00 0.  1.
        -11    1    3    3    0    0  0.40322178494E+02  0.33963953006E+03 -0.63709591050E+00  0.34202528320E+03  0.00000000000E+00 0. -1.
         22    1    1    2    0    0 -0.10928669688E+03 -0.47021582959E+03 -0.10095518623E+04  0.11190359561E+04  0.00000000000E+00 0. -1.
<mgrwt>
<rscale>  0 0.12343335E+04</rscale>
<asrwt>0</asrwt>
<pdfrwt beam="1">  1        2 0.20351578E+00 0.12343335E+04</pdfrwt>
<pdfrwt beam="2">  1       -2 0.44297605E-01 0.12343335E+04</pdfrwt>
<totfact> 0.76247878E+01</totfact>
</mgrwt>
</event>
<event>
 6    1  0.1585031E-006  0.1111972E+04  0.7818608E-02  0.9193601E-01
         -1   -1    0    0    0  501 -0.00000000000E+00  0.00000000000E+00  0.18216361691E+03  0.18216361691E+03  0.00000000000E+00 0.  1.
          1   -1    0    0  501    0  0.00000000000E+00 -0.00000000000E+00 -0.16969375417E+04  0.16969375417E+04  0.00000000000E+00 0. -1.
         23    2    1    2    0    0 -0.41843076774E+03  0.35755902604E+03 -0.68695452584E+03  0.88500975347E+03  0.91667762460E+02 0.  0.
         13    1    3    3    0    0 -0.30662953844E+03  0.27271066014E+03 -0.44523332738E+03  0.60549607250E+03  0.00000000000E+00 0. -1.
        -13    1    3    3    0    0 -0.11180122930E+03  0.84848365907E+02 -0.24172119845E+03  0.27951368098E+03  0.00000000000E+00 0.  1.
         22    1    1    2    0    0  0.41843076774E+03 -0.35755902604E+03 -0.82781939899E+03  0.99409140517E+03  0.00000000000E+00 0. -1.
<mgrwt>
<rscale>  0 0.11119717E+04</rscale>
<asrwt>0</asrwt>
<pdfrwt beam="1">  1        1 0.26106731E+00 0.11119717E+04</pdfrwt>
<pdfrwt beam="2">  1       -1 0.28025172E-01 0.11119717E+04</pdfrwt>
<totfact> 0.54847873E+01</totfact>
</mgrwt>
</event>
<event>
 6    1  0.1585031E-006  0.1832887E+04  0.7818608E-02  0.8689003E-01
         -1   -1    0    0    0  501 -0.00000000000E+00  0.00000000000E+00  0.10891084601E+04  0.10891084601E+04  0.00000000000E+00 0. -1.
          1   -1    0    0  501    0  0.00000000000E+00 -0.00000000000E+00 -0.77115287778E+03  0.77115287778E+03  0.00000000000E+00 0.  1.
         23    2    1    2    0    0 -0.21089223135E+03  0.46706152673E+03  0.92766508498E+03  0.10637893166E+04  0.91995636502E+02 0.  0.
         11    1    3    3    0    0 -0.18269019015E+02  0.97477331559E+01  0.17373965141E+02  0.27030168741E+02  0.00000000000E+00 0.  1.
        -11    1    3    3    0    0 -0.19262321233E+03  0.45731379357E+03  0.91029111984E+03  0.10367591478E+04  0.00000000000E+00 0. -1.
         22    1    1    2    0    0  0.21089223135E+03 -0.46706152673E+03 -0.60970950270E+03  0.79647202128E+03  0.00000000000E+00 0.  1.
<mgrwt>
<rscale>  0 0.18328875E+04</rscale>
<asrwt>0</asrwt>
<pdfrwt beam="1">  1        1 0.11863890E+00 0.18328875E+04</pdfrwt>
<pdfrwt beam="2">  1       -1 0.16755515E+00 0.18328875E+04</pdfrwt>
<totfact> 0.56585482E+00</totfact>
</mgrwt>
</event>
<event>
 6    1  0.1585031E-006  0.4231609E+04  0.7818608E-02  0.7959387E-01
         -2   -1    0    0    0  501 -0.00000000000E+00  0.00000000000E+00  0.38936862351E+04  0.38936862351E+04  0.00000000000E+00 0.  1.
          2   -1    0    0  501    0  0.00000000000E+00 -0.00000000000E+00 -0.11497145952E+04  0.11497145952E+04  0.00000000000E+00 0. -1.
         23    2    1    2    0    0  0.74975040769E+03 -0.63719047264E+03 -0.85843198946E+03  0.13090402047E+04  0.92430540730E+02 0.  0.
         13    1    3    3    0    0  0.40138432526E+03 -0.34502934370E+03 -0.52240257937E+03  0.74367941985E+03  0.00000000000E+00 0. -1.
        -13    1    3    3    0    0  0.34836608243E+03 -0.29216112894E+03 -0.33602941009E+03  0.56536078489E+03  0.00000000000E+00 0.  1.
         22    1    1    2    0    0 -0.74975040769E+03  0.63719047264E+03  0.36024036294E+04  0.37343606255E+04  0.00000000000E+00 0.  1.
<mgrwt>
<rscale>  0 0.42316086E+04</rscale>
<asrwt>0</asrwt>
<pdfrwt beam="1">  1        2 0.17687917E+00 0.42316086E+04</pdfrwt>
<pdfrwt beam="2">  1       -2 0.59902865E+00 0.42316086E+04</pdfrwt>
<totfact> 0.80666167E-03</totfact>
</mgrwt>
</event>
<event>
 6    1  0.1585031E-006  0.3129731E+04  0.7818608E-02  0.8207626E-01
         -2   -1    0    0    0  501 -0.00000000000E+00  0.00000000000E+00  0.13140070804E+04  0.13140070804E+04  0.00000000000E+00 0.  1.
          2   -1    0    0  501    0  0.00000000000E+00 -0.00000000000E+00 -0.18636153407E+04  0.18636153407E+04  0.00000000000E+00 0. -1.
         23    2    1    2    0    0  0.64885069840E+03 -0.14216901147E+04 -0.32644176117E+03  0.15990112285E+04  0.89792395650E+02 0.  0.
         13    1    3    3    0    0  0.48927994044E+03 -0.11310390016E+04 -0.22913066988E+03  0.12534532090E+04  0.00000000000E+00 0.  1.
        -13    1    3    3    0    0  0.15957075796E+03 -0.29065111310E+03 -0.97311091288E+02  0.34555801948E+03  0.00000000000E+00 0. -1.
         22    1    1    2    0    0 -0.64885069840E+03  0.14216901147E+04 -0.22316649916E+03  0.15786111926E+04  0.00000000000E+00 0. -1.
<mgrwt>
<rscale>  0 0.31297308E+04</rscale>
<asrwt>0</asrwt>
<pdfrwt beam="1">  1        2 0.28671005E+00 0.31297308E+04</pdfrwt>
<pdfrwt beam="2">  1       -2 0.20215494E+00 0.31297308E+04</pdfrwt>
<totfact> 0.86747792E-01</totfact>
</mgrwt>
</event>
<event>
 6    1  0.1585031E-006  0.6884747E+03  0.7818608E-02  0.9737147E-01
         -2   -1    0    0    0  501 -0.00000000000E+00  0.00000000000E+00  0.81570836680E+02  0.81570836680E+02  0.00000000000E+00 0.  1.
          2   -1    0    0  501    0  0.00000000000E+00 -0.00000000000E+00 -0.14527172279E+04  0.14527172279E+04  0.00000000000E+00 0. -1.
         23    2    1    2    0    0  0.28664015698E+03 -0.14574272593E+03 -0.46718890113E+03  0.57483891760E+03  0.93652496465E+02 0.  0.
         11    1    3    3    0    0  0.11622057756E+03 -0.85370462166E+02 -0.13980687911E+03  0.20085144238E+03  0.00000000000E+00 0. -1.
        -11    1    3    3    0    0  0.17041957942E+03 -0.60372263763E+02 -0.32738202202E+03  0.37398747522E+03  0.00000000000E+00 0.  1.
         22    1    1    2    0    0 -0.28664015698E+03  0.14574272593E+03 -0.90395749010E+03  0.95944914699E+03  0.00000000000E+00 0. -1.
<mgrwt>
<rscale>  0 0.68847472E+03</rscale>
<asrwt>0</asrwt>
<pdfrwt beam="1">  1        2 0.22349496E+00 0.68847472E+03</pdfrwt>
<pdfrwt beam="2">  1       -2 0.12549360E-01 0.68847472E+03</pdfrwt>
<totfact> 0.64724552E+02</totfact>
</mgrwt>
</event>
<event>
 6    1  0.1585031E-006  0.7864413E+03  0.7818608E-02  0.9579853E-01
         -1   -1    0    0    0  501 -0.00000000000E+00  0.00000000000E+00  0.36593424089E+03  0.36593424089E+03  0.00000000000E+00 0.  1.
          1   -1    0    0  501    0  0.00000000000E+00 -0.00000000000E+00 -0.42254165665E+03  0.42254165665E+03  0.00000000000E+00 0. -1.
         23    2    1    2    0    0  0.38569022963E+02  0.98067557069E+02 -0.40380847119E+03  0.42563517742E+03  0.83661266834E+02 0.  0.
         11    1    3    3    0    0  0.37955454705E+02  0.11318981427E+03 -0.36125505907E+03  0.38047045654E+03  0.00000000000E+00 0. -1.
        -11    1    3    3    0    0  0.61356825857E+00 -0.15122257200E+02 -0.42553412127E+02  0.45164720884E+02  0.00000000000E+00 0.  1.
         22    1    1    2    0    0 -0.38569022963E+02 -0.98067557069E+02  0.34720105543E+03  0.36284072011E+03  0.00000000000E+00 0.  1.
<mgrwt>
<rscale>  0 0.78644125E+03</rscale>
<asrwt>0</asrwt>
<pdfrwt beam="1">  1        1 0.65006409E-01 0.78644125E+03</pdfrwt>
<pdfrwt beam="2">  1       -1 0.56297576E-01 0.78644125E+03</pdfrwt>
<totfact> 0.18018335E+02</totfact>
</mgrwt>
</event>
<event>
 6    1  0.1585031E-006  0.7829865E+03  0.7818608E-02  0.9584975E-01
         -3   -1    0    0    0  501 -0.00000000000E+00  0.00000000000E+00  0.21356568603E+04  0.21356568603E+04  0.00000000000E+00 0.  1.
          3   -1    0    0  501    0  0.00000000000E+00 -0.00000000000E+00 -0.71765725873E+02  0.71765725873E+02  0.00000000000E+00 0. -1.
         23    2    1    2    0    0  0.11525685841E+03 -0.36535410464E+03  0.90992176367E+03  0.99152247768E+03  0.91604817326E+02 0.  0.
         11    1    3    3    0    0  0.70442694703E+02 -0.18807209169E+03  0.58722213669E+03  0.62061511642E+03  0.00000000000E+00 0. -1.
        -11    1    3    3    0    0  0.44814163706E+02 -0.17728201295E+03  0.32269962698E+03  0.37090736126E+03  0.00000000000E+00 0.  1.
         22    1    1    2    0    0 -0.11525685841E+03  0.36535410464E+03  0.11539693708E+04  0.12159001085E+04  0.00000000000E+00 0.  1.
<mgrwt>
<rscale>  0 0.78298650E+03</rscale>
<asrwt>0</asrwt>
<pdfrwt beam="1">  1        3 0.11040883E-01 0.78298650E+03</pdfrwt>
<pdfrwt beam="2">  1       -3 0.32856255E+00 0.78298650E+03</pdfrwt>
<totfact> 0.46573021E+00</totfact>
</mgrwt>
</event>
<event>
 6    1  0.1585031E-006  0.1679067E+04  0.7818608E-02  0.8773394E-01
          1   -1    0    0  501    0  0.00000000000E+00  0.00000000000E+00  0.24214348010E+04  0.24214348010E+04  0.00000000000E+00 0. -1.
         -1   -1    0    0    0  501 -0.00000000000E+00 -0.00000000000E+00 -0.29107392998E+03  0.29107392998E+03  0.00000000000E+00 0.  1.
         23    2    1    2    0    0 -0.52206474770E+03  0.20164672447E+03  0.20734998045E+04  0.21499732359E+04  0.98845705636E+02 0.  0.
         13    1    3    3    0    0 -0.25743396242E+03  0.12905839582E+03  0.12161852566E+04  0.12498139433E+04  0.00000000000E+00 0. -1.
        -13    1    3    3    0    0 -0.26463078528E+03  0.72588328651E+02  0.85731454795E+03  0.90015929263E+03  0.00000000000E+00 0.  1.
         22    1    1    2    0    0  0.52206474770E+03 -0.20164672447E+03  0.56861066453E+02  0.56253549502E+03  0.00000000000E+00 0.  1.
<mgrwt>
<rscale>  0 0.16790671E+04</rscale>
<asrwt>0</asrwt>
<pdfrwt beam="1">  1        1 0.37252842E+00 0.16790671E+04</pdfrwt>
<pdfrwt beam="2">  1       -1 0.44780606E-01 0.16790671E+04</pdfrwt>
<totfact> 0.72442351E+00</totfact>
</mgrwt>
</event>
<event>
 6    1  0.1585031E-006  0.2190875E+04  0.7818608E-02  0.8522236E-01
         -2   -1    0    0    0  501 -0.00000000000E+00  0.00000000000E+00  0.67432761492E+03  0.67432761492E+03  0.00000000000E+00 0.  1.
          2   -1    0    0  501    0  0.00000000000E+00 -0.00000000000E+00 -0.17795256247E+04  0.17795256247E+04  0.00000000000E+00 0. -1.
         23    2    1    2    0    0 -0.23991891982E+03  0.65697922438E+03  0.38790586538E+03  0.80505307848E+03  0.91960368757E+02 0.  0.
         13    1    3    3    0    0 -0.15444340812E+03  0.40786010914E+03  0.19051580139E+03  0.47591901151E+03  0.00000000000E+00 0.  1.
        -13    1    3    3    0    0 -0.85475511695E+02  0.24911911524E+03  0.19739006398E+03  0.32913406696E+03  0.00000000000E+00 0. -1.
         22    1    1    2    0    0  0.23991891982E+03 -0.65697922438E+03 -0.14931038751E+04  0.16488001611E+04  0.00000000000E+00 0. -1.
<mgrwt>
<rscale>  0 0.21908750E+04</rscale>
<asrwt>0</asrwt>
<pdfrwt beam="1">  1        2 0.27377316E+00 0.21908750E+04</pdfrwt>
<pdfrwt beam="2">  1       -2 0.10374271E+00 0.21908750E+04</pdfrwt>
<totfact> 0.61307521E+00</totfact>
</mgrwt>
</event>
<event>
 6    1  0.1585031E-006  0.3820879E+04  0.7818608E-02  0.8041689E-01
         -1   -1    0    0    0  501 -0.00000000000E+00  0.00000000000E+00  0.17978452427E+04  0.17978452427E+04  0.00000000000E+00 0.  1.
          1   -1    0    0  501    0  0.00000000000E+00 -0.00000000000E+00 -0.20300853097E+04  0.20300853097E+04  0.00000000000E+00 0. -1.
         23    2    1    2    0    0  0.18151412220E+04 -0.52451562463E+03 -0.39112771265E+03  0.19318557701E+04  0.96080864263E+02 0.  0.
         13    1    3    3    0    0  0.90163640168E+03 -0.25871593792E+03 -0.14516131472E+03  0.94918593787E+03  0.00000000000E+00 0. -1.
        -13    1    3    3    0    0  0.91350482035E+03 -0.26579968671E+03 -0.24596639793E+03  0.98266983223E+03  0.00000000000E+00 0.  1.
         22    1    1    2    0    0 -0.18151412220E+04  0.52451562463E+03  0.15888764563E+03  0.18960747824E+04  0.00000000000E+00 0.  1.
<mgrwt>
<rscale>  0 0.38208791E+04</rscale>
<asrwt>0</asrwt>
<pdfrwt beam="1">  1        1 0.31232082E+00 0.38208791E+04</pdfrwt>
<pdfrwt beam="2">  1       -1 0.27659158E+00 0.38208791E+04</pdfrwt>
<totfact> 0.10575103E-01</totfact>
</mgrwt>
</event>
<event>
 6    1  0.1585031E-006  0.3144849E+04  0.7818608E-02  0.8203536E-01
          2   -1    0    0  501    0  0.00000000000E+00  0.00000000000E+00  0.20531710115E+04  0.20531710115E+04  0.00000000000E+00 0.  1.
         -2   -1    0    0    0  501 -0.00000000000E+00 -0.00000000000E+00 -0.12042436025E+04  0.12042436025E+04  0.00000000000E+00 0. -1.
         23    2    1    2    0    0  0.48566969214E+03  0.13772981662E+04 -0.17498657100E+03  0.14738156885E+04  0.93204586591E+02 0.  0.
         13    1    3    3    0    0  0.31833101321E+03  0.10205340367E+04 -0.14111403213E+03  0.10783030762E+04  0.00000000000E+00 0. -1.
        -13    1    3    3    0    0  0.16733867892E+03  0.35676412953E+03 -0.33872538869E+02  0.39551261228E+03  0.00000000000E+00 0.  1.
         22    1    1    2    0    0 -0.48566969214E+03 -0.13772981662E+04  0.10239139800E+04  0.17835989255E+04  0.00000000000E+00 0.  1.
<mgrwt>
<rscale>  0 0.31448485E+04</rscale>
<asrwt>0</asrwt>
<pdfrwt beam="1">  1        2 0.31587246E+00 0.31448485E+04</pdfrwt>
<pdfrwt beam="2">  1       -2 0.18526825E+00 0.31448485E+04</pdfrwt>
<totfact> 0.88083200E-01</totfact>
</mgrwt>
</event>
<event>
 6    1  0.1585031E-006  0.2520443E+04  0.7818608E-02  0.8395739E-01
          2   -1    0    0  501    0  0.00000000000E+00  0.00000000000E+00  0.28231005766E+04  0.28231005766E+04  0.00000000000E+00 0.  1.
         -2   -1    0    0    0  501 -0.00000000000E+00 -0.00000000000E+00 -0.56255819143E+03  0.56255819143E+03  0.00000000000E+00 0. -1.
         23    2    1    2    0    0  0.14724991753E+03  0.42855672170E+03  0.27089918502E+04  0.27481242007E+04  0.90589050047E+02 0.  0.
         11    1    3    3    0    0  0.15399512499E+03  0.42377951762E+03  0.25989762137E+04  0.26377985021E+04  0.00000000000E+00 0.  1.
        -11    1    3    3    0    0 -0.67452074552E+01  0.47772040852E+01  0.11001563651E+03  0.11032569864E+03  0.00000000000E+00 0. -1.
         22    1    1    2    0    0 -0.14724991753E+03 -0.42855672170E+03 -0.44844946501E+03  0.63753456737E+03  0.00000000000E+00 0. -1.
<mgrwt>
<rscale>  0 0.25204431E+04</rscale>
<asrwt>0</asrwt>
<pdfrwt beam="1">  1        2 0.43432316E+00 0.25204431E+04</pdfrwt>
<pdfrwt beam="2">  1       -2 0.86547416E-01 0.25204431E+04</pdfrwt>
<totfact> 0.23049051E+00</totfact>
</mgrwt>
</event>
<event>
 6    1  0.1585031E-006  0.1881960E+04  0.7818608E-02  0.8663889E-01
         -1   -1    0    0    0  501 -0.00000000000E+00  0.00000000000E+00  0.47345948030E+03  0.47345948030E+03  0.00000000000E+00 0.  1.
          1   -1    0    0  501    0  0.00000000000E+00 -0.00000000000E+00 -0.18701565144E+04  0.18701565144E+04  0.00000000000E+00 0. -1.
         23    2    1    2    0    0 -0.71058634696E+03  0.59859495048E+03 -0.86746582521E+03  0.12743477666E+04  0.90644365511E+02 0.  0.
         13    1    3    3    0    0 -0.12211279006E+03  0.61492553209E+02 -0.13263262247E+03  0.19048433043E+03  0.00000000000E+00 0. -1.
        -13    1    3    3    0    0 -0.58847355690E+03  0.53710239727E+03 -0.73483320274E+03  0.10838634361E+04  0.00000000000E+00 0.  1.
         22    1    1    2    0    0  0.71058634696E+03 -0.59859495048E+03 -0.52923120885E+03  0.10692682281E+04  0.00000000000E+00 0.  1.
<mgrwt>
<rscale>  0 0.18819600E+04</rscale>
<asrwt>0</asrwt>
<pdfrwt beam="1">  1        1 0.28771638E+00 0.18819600E+04</pdfrwt>
<pdfrwt beam="2">  1       -1 0.72839922E-01 0.18819600E+04</pdfrwt>
<totfact> 0.65001272E+00</totfact>
</mgrwt>
</event>
<event>
 6    1  0.1585031E-006  0.3041716E+04  0.7818608E-02  0.8231918E-01
          2   -1    0    0  501    0  0.00000000000E+00  0.00000000000E+00  0.11808161489E+04  0.11808161489E+04  0.00000000000E+00 0. -1.
         -2   -1    0    0    0  501 -0.00000000000E+00 -0.00000000000E+00 -0.19588223390E+04  0.19588223390E+04  0.00000000000E+00 0.  1.
         23    2    1    2    0    0 -0.11496025005E+04 -0.40047697085E+03 -0.13280281558E+04  0.18037897405E+04  0.89615466258E+02 0.  0.
         13    1    3    3    0    0 -0.64616293855E+03 -0.19764908312E+03 -0.68268489688E+03  0.96054691277E+03  0.00000000000E+00 0.  1.
        -13    1    3    3    0    0 -0.50343956194E+03 -0.20282788773E+03 -0.64534325896E+03  0.84324282769E+03  0.00000000000E+00 0. -1.
         22    1    1    2    0    0  0.11496025005E+04  0.40047697085E+03  0.55002196571E+03  0.13358487475E+04  0.00000000000E+00 0. -1.
<mgrwt>
<rscale>  0 0.30417160E+04</rscale>
<asrwt>0</asrwt>
<pdfrwt beam="1">  1        2 0.18166403E+00 0.30417160E+04</pdfrwt>
<pdfrwt beam="2">  1       -2 0.30135728E+00 0.30417160E+04</pdfrwt>
<totfact> 0.51732628E-01</totfact>
</mgrwt>
</event>
<event>
 6    1  0.1585031E-006  0.9803772E+03  0.7818608E-02  0.9330332E-01
         -2   -1    0    0    0  501 -0.00000000000E+00  0.00000000000E+00  0.12164904726E+03  0.12164904726E+03  0.00000000000E+00 0.  1.
          2   -1    0    0  501    0  0.00000000000E+00 -0.00000000000E+00 -0.19752302496E+04  0.19752302496E+04  0.00000000000E+00 0. -1.
         23    2    1    2    0    0  0.32649402121E+03  0.31852967694E+03 -0.12923143085E+04  0.13736365802E+04  0.93496960985E+02 0.  0.
         11    1    3    3    0    0  0.31060587992E+03  0.28991927068E+03 -0.11126495643E+04  0.11910156377E+04  0.00000000000E+00 0.  1.
        -11    1    3    3    0    0  0.15888141285E+02  0.28610406256E+02 -0.17966474413E+03  0.18262094256E+03  0.00000000000E+00 0. -1.
         22    1    1    2    0    0 -0.32649402121E+03 -0.31852967694E+03 -0.56126689385E+03  0.72324271660E+03  0.00000000000E+00 0.  1.
<mgrwt>
<rscale>  0 0.98037723E+03</rscale>
<asrwt>0</asrwt>
<pdfrwt beam="1">  1        2 0.30388157E+00 0.98037723E+03</pdfrwt>
<pdfrwt beam="2">  1       -2 0.18715238E-01 0.98037723E+03</pdfrwt>
<totfact> 0.16611434E+02</totfact>
</mgrwt>
</event>
<event>
 6    1  0.1585031E-006  0.2089690E+04  0.7818608E-02  0.8565799E-01
         -2   -1    0    0    0  501 -0.00000000000E+00  0.00000000000E+00  0.10679172526E+04  0.10679172526E+04  0.00000000000E+00 0.  1.
          2   -1    0    0  501    0  0.00000000000E+00 -0.00000000000E+00 -0.10222714299E+04  0.10222714299E+04  0.00000000000E+00 0. -1.
         23    2    1    2    0    0  0.88452785248E+03  0.52445156559E+03  0.19671832561E+03  0.10508322145E+04  0.90062627895E+02 0.  0.
         13    1    3    3    0    0  0.30743877366E+03  0.14436176921E+03  0.37469723462E+02  0.34170586787E+03  0.00000000000E+00 0. -1.
        -13    1    3    3    0    0  0.57708907882E+03  0.38008979638E+03  0.15924860215E+03  0.70912634664E+03  0.00000000000E+00 0.  1.
         22    1    1    2    0    0 -0.88452785248E+03 -0.52445156559E+03 -0.15107250297E+03  0.10393564680E+04  0.00000000000E+00 0. -1.
<mgrwt>
<rscale>  0 0.20896902E+04</rscale>
<asrwt>0</asrwt>
<pdfrwt beam="1">  1        2 0.15727253E+00 0.20896902E+04</pdfrwt>
<pdfrwt beam="2">  1       -2 0.16429496E+00 0.20896902E+04</pdfrwt>
<totfact> 0.52658475E+00</totfact>
</mgrwt>
</event>
<event>
 6    1  0.1585031E-006  0.2312792E+04  0.7818608E-02  0.8472895E-01
         -2   -1    0    0    0  501 -0.00000000000E+00  0.00000000000E+00  0.11355891277E+04  0.11355891277E+04  0.00000000000E+00 0.  1.
          2   -1    0    0  501    0  0.00000000000E+00 -0.00000000000E+00 -0.11775838351E+04  0.11775838351E+04  0.00000000000E+00 0. -1.
         23    2    1    2    0    0  0.77413009211E+03 -0.17592179593E+03  0.81727891385E+03  0.11433109906E+04  0.94812026286E+02 0.  0.
         11    1    3    3    0    0  0.39135170398E+03 -0.13456937721E+03  0.44660709929E+03  0.60887024449E+03  0.00000000000E+00 0. -1.
        -11    1    3    3    0    0  0.38277838813E+03 -0.41352418715E+02  0.37067181456E+03  0.53444074608E+03  0.00000000000E+00 0.  1.
         22    1    1    2    0    0 -0.77413009211E+03  0.17592179593E+03 -0.85927362124E+03  0.11698619722E+04  0.00000000000E+00 0. -1.
<mgrwt>
<rscale>  0 0.23127917E+04</rscale>
<asrwt>0</asrwt>
<pdfrwt beam="1">  1        2 0.18116674E+00 0.23127917E+04</pdfrwt>
<pdfrwt beam="2">  1       -2 0.17470602E+00 0.23127917E+04</pdfrwt>
<totfact> 0.34930815E+00</totfact>
</mgrwt>
</event>
<event>
 6    1  0.1585031E-006  0.2240615E+04  0.7818608E-02  0.8501711E-01
         -2   -1    0    0    0  501 -0.00000000000E+00  0.00000000000E+00  0.11624370246E+04  0.11624370246E+04  0.00000000000E+00 0.  1.
          2   -1    0    0  501    0  0.00000000000E+00 -0.00000000000E+00 -0.10797045058E+04  0.10797045058E+04  0.00000000000E+00 0. -1.
         23    2    1    2    0    0  0.58586225414E+02  0.10632336316E+04 -0.30091445701E+03  0.11102921132E+04  0.91109632517E+02 0.  0.
         13    1    3    3    0    0  0.30563024134E+02  0.50910214752E+03 -0.96957537469E+02  0.51915302091E+03  0.00000000000E+00 0.  1.
        -13    1    3    3    0    0  0.28023201279E+02  0.55413148405E+03 -0.20395691954E+03  0.59113909231E+03  0.00000000000E+00 0. -1.
         22    1    1    2    0    0 -0.58586225414E+02 -0.10632336316E+04  0.38364697580E+03  0.11318494172E+04  0.00000000000E+00 0.  1.
<mgrwt>
<rscale>  0 0.22406146E+04</rscale>
<asrwt>0</asrwt>
<pdfrwt beam="1">  1        2 0.16610839E+00 0.22406146E+04</pdfrwt>
<pdfrwt beam="2">  1       -2 0.17883647E+00 0.22406146E+04</pdfrwt>
<totfact> 0.37737371E+00</totfact>
</mgrwt>
</event>
<event>
 6    1  0.1585031E-006  0.3124034E+04  0.7818608E-02  0.8209173E-01
          2   -1    0    0  501    0  0.00000000000E+00  0.00000000000E+00  0.10151839237E+04  0.10151839237E+04  0.00000000000E+00 0. -1.
         -2   -1    0    0    0  501 -0.00000000000E+00 -0.00000000000E+00 -0.24034035398E+04  0.24034035398E+04  0.00000000000E+00 0.  1.
         23    2    1    2    0    0  0.14848045720E+04  0.39357090554E+03 -0.99699166184E+03  0.18334685447E+04  0.89843507058E+02 0.  0.
         13    1    3    3    0    0  0.54901263073E+03  0.14757860019E+03 -0.42106627059E+03  0.70745396753E+03  0.00000000000E+00 0.  1.
        -13    1    3    3    0    0  0.93579194131E+03  0.24599230534E+03 -0.57592539125E+03  0.11260145772E+04  0.00000000000E+00 0. -1.
         22    1    1    2    0    0 -0.14848045720E+04 -0.39357090554E+03 -0.39122795427E+03  0.15851189189E+04  0.00000000000E+00 0. -1.
<mgrwt>
<rscale>  0 0.31240337E+04</rscale>
<asrwt>0</asrwt>
<pdfrwt beam="1">  1        2 0.15618214E+00 0.31240337E+04</pdfrwt>
<pdfrwt beam="2">  1       -2 0.36975439E+00 0.31240337E+04</pdfrwt>
<totfact> 0.24305112E-01</totfact>
</mgrwt>
</event>
<event>
 6    1  0.1585031E-006  0.3730714E+04  0.7818608E-02  0.8061189E-01
         -2   -1    0    0    0  501 -0.00000000000E+00  0.00000000000E+00  0.85708596170E+03  0.85708596170E+03  0.00000000000E+00 0.  1.
          2   -1    0    0  501    0  0.00000000000E+00 -0.00000000000E+00 -0.40597513127E+04  0.40597513127E+04  0.00000000000E+00 0. -1.
         23    2    1    2    0    0  0.81062477816E+03 -0.10412354177E+04  0.13327593371E+03  0.13293886015E+04  0.90707514193E+02 0.  0.
         11    1    3    3    0    0  0.85044065886E+02 -0.77770814619E+02 -0.50947759715E+01  0.11535488499E+03  0.00000000000E+00 0. -1.
        -11    1    3    3    0    0  0.72558071227E+03 -0.96346460308E+03  0.13837070968E+03  0.12140337165E+04  0.00000000000E+00 0.  1.
         22    1    1    2    0    0 -0.81062477816E+03  0.10412354177E+04 -0.33359412847E+04  0.35874486729E+04  0.00000000000E+00 0. -1.
<mgrwt>
<rscale>  0 0.37307135E+04</rscale>
<asrwt>0</asrwt>
<pdfrwt beam="1">  1        2 0.62457713E+00 0.37307135E+04</pdfrwt>
<pdfrwt beam="2">  1       -2 0.13185938E+00 0.37307135E+04</pdfrwt>
<totfact> 0.10290655E-01</totfact>
</mgrwt>
</event>
<event>
 6    1  0.1585031E-006  0.3574502E+04  0.7818608E-02  0.8096357E-01
          2   -1    0    0  501    0  0.00000000000E+00  0.00000000000E+00  0.30443435076E+04  0.30443435076E+04  0.00000000000E+00 0. -1.
         -2   -1    0    0    0  501 -0.00000000000E+00 -0.00000000000E+00 -0.10492463415E+04  0.10492463415E+04  0.00000000000E+00 0.  1.
         23    2    1    2    0    0 -0.54252977235E+03  0.17004846218E+04  0.10715729923E+04  0.20838925081E+04  0.91393680424E+02 0.  0.
         11    1    3    3    0    0 -0.17689233395E+03  0.44012477970E+03  0.26074177690E+03  0.54128272995E+03  0.00000000000E+00 0. -1.
        -11    1    3    3    0    0 -0.36563743841E+03  0.12603598421E+04  0.81083121539E+03  0.15426097782E+04  0.00000000000E+00 0.  1.
         22    1    1    2    0    0  0.54252977235E+03 -0.17004846218E+04  0.92352417378E+03  0.20096973410E+04  0.00000000000E+00 0. -1.
<mgrwt>
<rscale>  0 0.35745021E+04</rscale>
<asrwt>0</asrwt>
<pdfrwt beam="1">  1        2 0.46836054E+00 0.35745021E+04</pdfrwt>
<pdfrwt beam="2">  1       -2 0.16142251E+00 0.35745021E+04</pdfrwt>
<totfact> 0.32761460E-01</totfact>
</mgrwt>
</event>
<event>
 6    1  0.1585031E-006  0.3606984E+04  0.7818608E-02  0.8088894E-01
          1   -1    0    0  501    0  0.00000000000E+00  0.00000000000E+00  0.15558234146E+04  0.15558234146E+04  0.00000000000E+00 0. -1.
         -1   -1    0    0    0  501 -0.00000000000E+00 -0.00000000000E+00 -0.20905865065E+04  0.20905865065E+04  0.00000000000E+00 0.  1.
         23    2    1    2    0    0 -0.13674675262E+04 -0.26820891376E+03  0.88823800892E+03  0.16547182809E+04  0.84984540235E+02 0.  0.
         11    1    3    3    0    0 -0.11776229744E+04 -0.21792364073E+03  0.73050773496E+03  0.14028286189E+04  0.00000000000E+00 0. -1.
        -11    1    3    3    0    0 -0.18984455176E+03 -0.50285273021E+02  0.15773027396E+03  0.25188966203E+03  0.00000000000E+00 0.  1.
         22    1    1    2    0    0  0.13674675262E+04  0.26820891376E+03 -0.14230011008E+04  0.19916916402E+04  0.00000000000E+00 0.  1.
<mgrwt>
<rscale>  0 0.36069840E+04</rscale>
<asrwt>0</asrwt>
<pdfrwt beam="1">  1        1 0.23935745E+00 0.36069840E+04</pdfrwt>
<pdfrwt beam="2">  1       -1 0.32162869E+00 0.36069840E+04</pdfrwt>
<totfact> 0.11555087E-01</totfact>
</mgrwt>
</event>
<event>
 6    1  0.1585031E-006  0.1184959E+04  0.7818608E-02  0.9126125E-01
          2   -1    0    0  501    0  0.00000000000E+00  0.00000000000E+00  0.12147555682E+04  0.12147555682E+04  0.00000000000E+00 0. -1.
         -2   -1    0    0    0  501 -0.00000000000E+00 -0.00000000000E+00 -0.28897341770E+03  0.28897341770E+03  0.00000000000E+00 0.  1.
         23    2    1    2    0    0 -0.19880541293E+03  0.88515263225E+02  0.11601899131E+04  0.11838766087E+04  0.90358431476E+02 0.  0.
         11    1    3    3    0    0 -0.40816117187E+02  0.25783381183E+02  0.49353508022E+03  0.49589072746E+03  0.00000000000E+00 0. -1.
        -11    1    3    3    0    0 -0.15798929574E+03  0.62731882041E+02  0.66665483288E+03  0.68798588125E+03  0.00000000000E+00 0.  1.
         22    1    1    2    0    0  0.19880541293E+03 -0.88515263225E+02 -0.23440776260E+03  0.31985237720E+03  0.00000000000E+00 0.  1.
<mgrwt>
<rscale>  0 0.11849592E+04</rscale>
<asrwt>0</asrwt>
<pdfrwt beam="1">  1        2 0.18688547E+00 0.11849592E+04</pdfrwt>
<pdfrwt beam="2">  1       -2 0.44457450E-01 0.11849592E+04</pdfrwt>
<totfact> 0.87916808E+01</totfact>
</mgrwt>
</event>
<event>
 6    1  0.1585031E-006  0.1468209E+04  0.7818608E-02  0.8905873E-01
          4   -1    0    0  501    0  0.00000000000E+00  0.00000000000E+00  0.19390206359E+04  0.19390206359E+04  0.00000000000E+00 0. -1.
         -4   -1    0    0    0  501 -0.00000000000E+00 -0.00000000000E+00 -0.27792874245E+03  0.27792874245E+03  0.00000000000E+00 0.  1.
         23    2    1    2    0    0 -0.26754707065E+03 -0.47107420571E+03  0.91922818416E+02  0.55689397917E+03  0.90491752042E+02 0.  0.
         11    1    3    3    0    0 -0.23295263442E+03 -0.38057919189E+03  0.10695216010E+03  0.45885315269E+03  0.00000000000E+00 0.  1.
        -11    1    3    3    0    0 -0.34594436223E+02 -0.90495013825E+02 -0.15029341687E+02  0.98040826477E+02  0.00000000000E+00 0. -1.
         22    1    1    2    0    0  0.26754707065E+03  0.47107420571E+03  0.15691690750E+04  0.16600553992E+04  0.00000000000E+00 0. -1.
<mgrwt>
<rscale>  0 0.14682092E+04</rscale>
<asrwt>0</asrwt>
<pdfrwt beam="1">  1        4 0.29831086E+00 0.14682092E+04</pdfrwt>
<pdfrwt beam="2">  1       -4 0.42758269E-01 0.14682092E+04</pdfrwt>
<totfact> 0.32879426E-01</totfact>
</mgrwt>
</event>
<event>
 6    1  0.1585031E-006  0.2571791E+04  0.7818608E-02  0.8377847E-01
          2   -1    0    0  501    0  0.00000000000E+00  0.00000000000E+00  0.27450396879E+04  0.27450396879E+04  0.00000000000E+00 0. -1.
         -2   -1    0    0    0  501 -0.00000000000E+00 -0.00000000000E+00 -0.60236923418E+03  0.60236923418E+03  0.00000000000E+00 0.  1.
         23    2    1    2    0    0  0.94550588022E+03 -0.65782439508E+03  0.33336733036E+03  0.12025797689E+04  0.91378439574E+02 0.  0.
         13    1    3    3    0    0  0.29913976653E+03 -0.16228221528E+03  0.11689036749E+03  0.35983812379E+03  0.00000000000E+00 0.  1.
        -13    1    3    3    0    0  0.64636611368E+03 -0.49554217980E+03  0.21647696287E+03  0.84274164507E+03  0.00000000000E+00 0. -1.
         22    1    1    2    0    0 -0.94550588022E+03  0.65782439508E+03  0.18093031233E+04  0.21448291532E+04  0.00000000000E+00 0. -1.
<mgrwt>
<rscale>  0 0.25717912E+04</rscale>
<asrwt>0</asrwt>
<pdfrwt beam="1">  1        2 0.42231379E+00 0.25717912E+04</pdfrwt>
<pdfrwt beam="2">  1       -2 0.92672192E-01 0.25717912E+04</pdfrwt>
<totfact> 0.21847970E+00</totfact>
</mgrwt>
</event>
<event>
 6    1  0.1585031E-006  0.2003156E+04  0.7818608E-02  0.8605147E-01
         -2   -1    0    0    0  501 -0.00000000000E+00  0.00000000000E+00  0.96667467956E+03  0.96667467956E+03  0.00000000000E+00 0.  1.
          2   -1    0    0  501    0  0.00000000000E+00 -0.00000000000E+00 -0.10377413245E+04  0.10377413245E+04  0.00000000000E+00 0. -1.
         23    2    1    2    0    0 -0.27022993436E+03 -0.72474832830E+03 -0.66902739148E+03  0.10267445811E+04  0.91227339128E+02 0.  0.
         11    1    3    3    0    0 -0.40076212847E+02 -0.71803306483E+02 -0.10740978017E+03  0.13527260822E+03  0.00000000000E+00 0.  1.
        -11    1    3    3    0    0 -0.23015372151E+03 -0.65294502182E+03 -0.56161761131E+03  0.89147197285E+03  0.00000000000E+00 0. -1.
         22    1    1    2    0    0  0.27022993436E+03  0.72474832830E+03  0.59796074658E+03  0.97767142295E+03  0.00000000000E+00 0. -1.
<mgrwt>
<rscale>  0 0.20031558E+04</rscale>
<asrwt>0</asrwt>
<pdfrwt beam="1">  1        2 0.15965251E+00 0.20031558E+04</pdfrwt>
<pdfrwt beam="2">  1       -2 0.14871918E+00 0.20031558E+04</pdfrwt>
<totfact> 0.67835917E+00</totfact>
</mgrwt>
</event>
<event>
 6    1  0.1585031E-006  0.5174025E+04  0.7818608E-02  0.7802209E-01
          1   -1    0    0  501    0  0.00000000000E+00  0.00000000000E+00  0.35209276853E+04  0.35209276853E+04  0.00000000000E+00 0. -1.
         -1   -1    0    0    0  501 -0.00000000000E+00 -0.00000000000E+00 -0.19008156779E+04  0.19008156779E+04  0.00000000000E+00 0.  1.
         23    2    1    2    0    0  0.42261614994E+03 -0.36016298891E+03  0.34571325484E+04  0.35026377755E+04  0.91564953900E+02 0.  0.
         13    1    3    3    0    0  0.21789915056E+03 -0.21685273347E+03  0.21455331133E+04  0.21674449216E+04  0.00000000000E+00 0.  1.
        -13    1    3    3    0    0  0.20471699938E+03 -0.14331025543E+03  0.13115994350E+04  0.13351928539E+04  0.00000000000E+00 0. -1.
         22    1    1    2    0    0 -0.42261614994E+03  0.36016298891E+03 -0.18370205410E+04  0.19191055877E+04  0.00000000000E+00 0.  1.
<mgrwt>
<rscale>  0 0.51740253E+04</rscale>
<asrwt>0</asrwt>
<pdfrwt beam="1">  1        1 0.54168118E+00 0.51740253E+04</pdfrwt>
<pdfrwt beam="2">  1       -1 0.29243318E+00 0.51740253E+04</pdfrwt>
<totfact> 0.63262830E-03</totfact>
</mgrwt>
</event>
<event>
 6    1  0.1585031E-006  0.7553281E+03  0.7818608E-02  0.9627028E-01
          1   -1    0    0  501    0  0.00000000000E+00  0.00000000000E+00  0.91392674333E+03  0.91392674333E+03  0.00000000000E+00 0. -1.
         -1   -1    0    0    0  501 -0.00000000000E+00 -0.00000000000E+00 -0.15606297859E+03  0.15606297859E+03  0.00000000000E+00 0.  1.
         23    2    1    2    0    0 -0.23758792553E+03  0.28568080640E+03  0.41425053223E+03  0.56389526526E+03  0.91174674293E+02 0.  0.
         11    1    3    3    0    0 -0.13117564735E+03  0.20103129264E+03  0.31256815549E+03  0.39410592853E+03  0.00000000000E+00 0.  1.
        -11    1    3    3    0    0 -0.10641227819E+03  0.84649513758E+02  0.10168237673E+03  0.16978933673E+03  0.00000000000E+00 0. -1.
         22    1    1    2    0    0  0.23758792553E+03 -0.28568080640E+03  0.34361323251E+03  0.50609445666E+03  0.00000000000E+00 0.  1.
<mgrwt>
<rscale>  0 0.75532809E+03</rscale>
<asrwt>0</asrwt>
<pdfrwt beam="1">  1        1 0.14060411E+00 0.75532809E+03</pdfrwt>
<pdfrwt beam="2">  1       -1 0.24009690E-01 0.75532809E+03</pdfrwt>
<totfact> 0.26892947E+02</totfact>
</mgrwt>
</event>
<event>
 6    1  0.1585031E-006  0.3161969E+04  0.7818608E-02  0.8198934E-01
          2   -1    0    0  501    0  0.00000000000E+00  0.00000000000E+00  0.22869801723E+04  0.22869801723E+04  0.00000000000E+00 0. -1.
         -2   -1    0    0    0  501 -0.00000000000E+00 -0.00000000000E+00 -0.10929314695E+04  0.10929314695E+04  0.00000000000E+00 0.  1.
         23    2    1    2    0    0  0.25264234013E+03 -0.68065626293E+03  0.20972270932E+04  0.22210965983E+04  0.88246917917E+02 0.  0.
         11    1    3    3    0    0  0.12576407387E+03 -0.22397740412E+03  0.69729161867E+03  0.74310031712E+03  0.00000000000E+00 0. -1.
        -11    1    3    3    0    0  0.12687826626E+03 -0.45667885882E+03  0.13999354745E+04  0.14779962812E+04  0.00000000000E+00 0.  1.
         22    1    1    2    0    0 -0.25264234013E+03  0.68065626293E+03 -0.90317839030E+03  0.11588150435E+04  0.00000000000E+00 0.  1.
<mgrwt>
<rscale>  0 0.31619694E+04</rscale>
<asrwt>0</asrwt>
<pdfrwt beam="1">  1        2 0.35184310E+00 0.31619694E+04</pdfrwt>
<pdfrwt beam="2">  1       -2 0.16814330E+00 0.31619694E+04</pdfrwt>
<totfact> 0.85591381E-01</totfact>
</mgrwt>
</event>
<event>
 6    1  0.1609827E-006  0.2545133E+04  0.7818608E-02  0.8387081E-01
         -2   -1    0    0    0  501 -0.00000000000E+00  0.00000000000E+00  0.71566189746E+03  0.71566189746E+03  0.00000000000E+00 0.  1.
          2   -1    0    0  501    0  0.00000000000E+00 -0.00000000000E+00 -0.22628351460E+04  0.22628351460E+04  0.00000000000E+00 0. -1.
         23    2    1    2    0    0 -0.96107546756E+03  0.38886119878E+03  0.85743247563E+02  0.10442542021E+04  0.90751571612E+02 0.  0.
         11    1    3    3    0    0 -0.45989285609E+03  0.14012770840E+03  0.54936841905E+02  0.48389592924E+03  0.00000000000E+00 0.  1.
        -11    1    3    3    0    0 -0.50118261147E+03  0.24873349038E+03  0.30806405658E+02  0.56035827281E+03  0.00000000000E+00 0. -1.
         22    1    1    2    0    0  0.96107546756E+03 -0.38886119878E+03 -0.16329164961E+04  0.19342428414E+04  0.00000000000E+00 0. -1.
<mgrwt>
<rscale>  0 0.25451325E+04</rscale>
<asrwt>0</asrwt>
<pdfrwt beam="1">  1        2 0.34812848E+00 0.25451325E+04</pdfrwt>
<pdfrwt beam="2">  1       -2 0.11010183E+00 0.25451325E+04</pdfrwt>
<totfact> 0.27716772E+00</totfact>
</mgrwt>
</event>
<event>
 6    1  0.1585031E-006  0.1576352E+04  0.7818608E-02  0.8835209E-01
         -2   -1    0    0    0  501 -0.00000000000E+00  0.00000000000E+00  0.86636081029E+03  0.86636081029E+03  0.00000000000E+00 0. -1.
          2   -1    0    0  501    0  0.00000000000E+00 -0.00000000000E+00 -0.71704679986E+03  0.71704679986E+03  0.00000000000E+00 0.  1.
         23    2    1    2    0    0  0.41457306122E+03 -0.24471996795E+03 -0.54879778883E+03  0.73539890144E+03  0.88734691208E+02 0.  0.
         11    1    3    3    0    0  0.20461500892E+03 -0.12525914403E+03 -0.20708763325E+03  0.31692655756E+03  0.00000000000E+00 0.  1.
        -11    1    3    3    0    0  0.20995805230E+03 -0.11946082391E+03 -0.34171015557E+03  0.41847234388E+03  0.00000000000E+00 0. -1.
         22    1    1    2    0    0 -0.41457306122E+03  0.24471996795E+03  0.69811179926E+03  0.84800870872E+03  0.00000000000E+00 0. -1.
<mgrwt>
<rscale>  0 0.15763518E+04</rscale>
<asrwt>0</asrwt>
<pdfrwt beam="1">  1        2 0.11031489E+00 0.15763518E+04</pdfrwt>
<pdfrwt beam="2">  1       -2 0.13328628E+00 0.15763518E+04</pdfrwt>
<totfact> 0.15554157E+01</totfact>
</mgrwt>
</event>
<event>
 6    1  0.1585031E-006  0.1148824E+04  0.7818608E-02  0.9158869E-01
         -1   -1    0    0    0  501 -0.00000000000E+00  0.00000000000E+00  0.44713026439E+03  0.44713026439E+03  0.00000000000E+00 0.  1.
          1   -1    0    0  501    0  0.00000000000E+00 -0.00000000000E+00 -0.73792607762E+03  0.73792607762E+03  0.00000000000E+00 0. -1.
         23    2    1    2    0    0 -0.26984615861E+03  0.49996827741E+03 -0.20031792214E+03  0.60975513699E+03  0.94280588827E+02 0.  0.
         13    1    3    3    0    0 -0.24598721767E+03  0.45575228719E+03 -0.15126512507E+03  0.53953776198E+03  0.00000000000E+00 0.  1.
        -13    1    3    3    0    0 -0.23858940935E+02  0.44215990211E+02 -0.49052797070E+02  0.70217375009E+02  0.00000000000E+00 0. -1.
         22    1    1    2    0    0  0.26984615861E+03 -0.49996827741E+03 -0.90477891085E+02  0.57530120502E+03  0.00000000000E+00 0.  1.
<mgrwt>
<rscale>  0 0.11488239E+04</rscale>
<asrwt>0</asrwt>
<pdfrwt beam="1">  1        1 0.11352709E+00 0.11488239E+04</pdfrwt>
<pdfrwt beam="2">  1       -1 0.68789272E-01 0.11488239E+04</pdfrwt>
<totfact> 0.53373230E+01</totfact>
</mgrwt>
</event>
<event>
 6    1  0.1585031E-006  0.2102459E+04  0.7818608E-02  0.8560161E-01
          1   -1    0    0  501    0  0.00000000000E+00  0.00000000000E+00  0.13203442868E+04  0.13203442868E+04  0.00000000000E+00 0. -1.
         -1   -1    0    0    0  501 -0.00000000000E+00 -0.00000000000E+00 -0.83696625359E+03  0.83696625359E+03  0.00000000000E+00 0.  1.
         23    2    1    2    0    0 -0.25433278716E+01 -0.10328724005E+04  0.52685407489E+02  0.10382359218E+04  0.91248084943E+02 0.  0.
         11    1    3    3    0    0 -0.28789462732E+02 -0.20811137079E+03 -0.12658193958E+02  0.21047423997E+03  0.00000000000E+00 0. -1.
        -11    1    3    3    0    0  0.26246134861E+02 -0.82476102966E+03  0.65343601446E+02  0.82776168182E+03  0.00000000000E+00 0.  1.
         22    1    1    2    0    0  0.25433278716E+01  0.10328724005E+04  0.43069262574E+03  0.11190746186E+04  0.00000000000E+00 0.  1.
<mgrwt>
<rscale>  0 0.21024591E+04</rscale>
<asrwt>0</asrwt>
<pdfrwt beam="1">  1        1 0.20312989E+00 0.21024591E+04</pdfrwt>
<pdfrwt beam="2">  1       -1 0.12876404E+00 0.21024591E+04</pdfrwt>
<totfact> 0.41791154E+00</totfact>
</mgrwt>
</event>
<event>
 6    1  0.1585031E-006  0.2867702E+04  0.7818608E-02  0.8282552E-01
         -1   -1    0    0    0  501 -0.00000000000E+00  0.00000000000E+00  0.71038489188E+03  0.71038489188E+03  0.00000000000E+00 0.  1.
          1   -1    0    0  501    0  0.00000000000E+00 -0.00000000000E+00 -0.28941049831E+04  0.28941049831E+04  0.00000000000E+00 0. -1.
         23    2    1    2    0    0  0.99708723227E+03 -0.10196282829E+04 -0.12614031682E+04  0.19061102677E+04  0.91069290909E+02 0.  0.
         13    1    3    3    0    0  0.71675830126E+03 -0.72146549443E+03 -0.95231421113E+03  0.13932542047E+04  0.00000000000E+00 0. -1.
        -13    1    3    3    0    0  0.28032893101E+03 -0.29816278847E+03 -0.30908895705E+03  0.51285606301E+03  0.00000000000E+00 0.  1.
         22    1    1    2    0    0 -0.99708723227E+03  0.10196282829E+04 -0.92231692307E+03  0.16983796073E+04  0.00000000000E+00 0.  1.
<mgrwt>
<rscale>  0 0.28677018E+04</rscale>
<asrwt>0</asrwt>
<pdfrwt beam="1">  1        1 0.44524692E+00 0.28677018E+04</pdfrwt>
<pdfrwt beam="2">  1       -1 0.10928998E+00 0.28677018E+04</pdfrwt>
<totfact> 0.47558122E-01</totfact>
</mgrwt>
</event>
<event>
 6    1  0.1585031E-006  0.1749840E+04  0.7818608E-02  0.8733438E-01
          1   -1    0    0  501    0  0.00000000000E+00  0.00000000000E+00  0.12178341941E+04  0.12178341941E+04  0.00000000000E+00 0. -1.
         -1   -1    0    0    0  501 -0.00000000000E+00 -0.00000000000E+00 -0.62856253149E+03  0.62856253149E+03  0.00000000000E+00 0.  1.
         23    2    1    2    0    0  0.21318241045E+03 -0.30000382575E+03  0.11302070418E+04  0.11921336898E+04  0.91464427351E+02 0.  0.
         11    1    3    3    0    0  0.10618166176E+03 -0.88573857459E+02  0.50286681892E+03  0.52153131362E+03  0.00000000000E+00 0. -1.
        -11    1    3    3    0    0  0.10700074869E+03 -0.21142996829E+03  0.62734022287E+03  0.67060237619E+03  0.00000000000E+00 0.  1.
         22    1    1    2    0    0 -0.21318241045E+03  0.30000382575E+03 -0.54093537915E+03  0.65426303580E+03  0.00000000000E+00 0.  1.
<mgrwt>
<rscale>  0 0.17498399E+04</rscale>
<asrwt>0</asrwt>
<pdfrwt beam="1">  1        1 0.18735911E+00 0.17498399E+04</pdfrwt>
<pdfrwt beam="2">  1       -1 0.96701928E-01 0.17498399E+04</pdfrwt>
<totfact> 0.10109942E+01</totfact>
</mgrwt>
</event>
<event>
 6    1  0.1585031E-006  0.4314341E+04  0.7818608E-02  0.7943972E-01
         -2   -1    0    0    0  501 -0.00000000000E+00  0.00000000000E+00  0.13991280907E+04  0.13991280907E+04  0.00000000000E+00 0.  1.
          2   -1    0    0  501    0  0.00000000000E+00 -0.00000000000E+00 -0.33259173314E+04  0.33259173314E+04  0.00000000000E+00 0. -1.
         23    2    1    2    0    0 -0.41258032188E+03  0.16210145495E+04  0.52619768612E+03  0.17560294985E+04  0.94047343815E+02 0.  0.
         11    1    3    3    0    0 -0.10545215465E+03  0.52378380277E+03  0.20437314297E+03  0.57204721005E+03  0.00000000000E+00 0. -1.
        -11    1    3    3    0    0 -0.30712816722E+03  0.10972307467E+04  0.32182454316E+03  0.11839822884E+04  0.00000000000E+00 0.  1.
         22    1    1    2    0    0  0.41258032188E+03 -0.16210145495E+04 -0.24529869268E+04  0.29690159236E+04  0.00000000000E+00 0. -1.
<mgrwt>
<rscale>  0 0.43143409E+04</rscale>
<asrwt>0</asrwt>
<pdfrwt beam="1">  1        2 0.51167959E+00 0.43143409E+04</pdfrwt>
<pdfrwt beam="2">  1       -2 0.21525048E+00 0.43143409E+04</pdfrwt>
<totfact> 0.87104881E-02</totfact>
</mgrwt>
</event>
<event>
 6    1  0.1585031E-006  0.1065664E+04  0.7818608E-02  0.9239320E-01
          2   -1    0    0  501    0  0.00000000000E+00  0.00000000000E+00  0.18957528587E+04  0.18957528587E+04  0.00000000000E+00 0. -1.
         -2   -1    0    0    0  501 -0.00000000000E+00 -0.00000000000E+00 -0.14976105602E+03  0.14976105602E+03  0.00000000000E+00 0.  1.
         23    2    1    2    0    0 -0.36539481768E+03 -0.21743802841E+03  0.14833995884E+04  0.15457666386E+04  0.90152609938E+02 0.  0.
         13    1    3    3    0    0 -0.21121591075E+03 -0.17447868581E+03  0.97612438581E+03  0.10138411065E+04  0.00000000000E+00 0. -1.
        -13    1    3    3    0    0 -0.15417890693E+03 -0.42959342602E+02  0.50727520264E+03  0.53192553208E+03  0.00000000000E+00 0.  1.
         22    1    1    2    0    0  0.36539481768E+03  0.21743802841E+03  0.26259221422E+03  0.49974727609E+03  0.00000000000E+00 0.  1.
<mgrwt>
<rscale>  0 0.10656640E+04</rscale>
<asrwt>0</asrwt>
<pdfrwt beam="1">  1        2 0.29165427E+00 0.10656640E+04</pdfrwt>
<pdfrwt beam="2">  1       -2 0.23040164E-01 0.10656640E+04</pdfrwt>
<totfact> 0.12645967E+02</totfact>
</mgrwt>
</event>
<event>
 6    1  0.1585031E-006  0.2404698E+04  0.7818608E-02  0.8437747E-01
          1   -1    0    0  501    0  0.00000000000E+00  0.00000000000E+00  0.85208805414E+03  0.85208805414E+03  0.00000000000E+00 0. -1.
         -1   -1    0    0    0  501 -0.00000000000E+00 -0.00000000000E+00 -0.16965889000E+04  0.16965889000E+04  0.00000000000E+00 0.  1.
         23    2    1    2    0    0 -0.87823848758E+03 -0.21211943474E+03 -0.12607902565E+04  0.15538933751E+04  0.93247276641E+02 0.  0.
         11    1    3    3    0    0 -0.23821385339E+03 -0.64635347696E+02 -0.27713181298E+03  0.37111401198E+03  0.00000000000E+00 0. -1.
        -11    1    3    3    0    0 -0.64002463419E+03 -0.14748408705E+03 -0.98365844356E+03  0.11827793632E+04  0.00000000000E+00 0.  1.
         22    1    1    2    0    0  0.87823848758E+03  0.21211943474E+03  0.41628941068E+03  0.99478357903E+03  0.00000000000E+00 0. -1.
<mgrwt>
<rscale>  0 0.24046980E+04</rscale>
<asrwt>0</asrwt>
<pdfrwt beam="1">  1        1 0.13109047E+00 0.24046980E+04</pdfrwt>
<pdfrwt beam="2">  1       -1 0.26101367E+00 0.24046980E+04</pdfrwt>
<totfact> 0.10558987E+00</totfact>
</mgrwt>
</event>
<event>
 6    1  0.1585031E-006  0.1648498E+04  0.7818608E-02  0.8791295E-01
         -1   -1    0    0    0  501 -0.00000000000E+00  0.00000000000E+00  0.64852103178E+03  0.64852103178E+03  0.00000000000E+00 0.  1.
          1   -1    0    0  501    0  0.00000000000E+00 -0.00000000000E+00 -0.10475940740E+04  0.10475940740E+04  0.00000000000E+00 0. -1.
         23    2    1    2    0    0 -0.43924912880E+03  0.13922100507E+03  0.50003783654E+03  0.68580690642E+03  0.89280398317E+02 0.  0.
         13    1    3    3    0    0 -0.28775927613E+03  0.46879869077E+02  0.32425912042E+03  0.43605859732E+03  0.00000000000E+00 0.  1.
        -13    1    3    3    0    0 -0.15148985267E+03  0.92341135993E+02  0.17577871612E+03  0.24974830910E+03  0.00000000000E+00 0. -1.
         22    1    1    2    0    0  0.43924912880E+03 -0.13922100507E+03 -0.89911087879E+03  0.10103081994E+04  0.00000000000E+00 0. -1.
<mgrwt>
<rscale>  0 0.16484985E+04</rscale>
<asrwt>0</asrwt>
<pdfrwt beam="1">  1        1 0.16116832E+00 0.16484985E+04</pdfrwt>
<pdfrwt beam="2">  1       -1 0.99772466E-01 0.16484985E+04</pdfrwt>
<totfact> 0.12728728E+01</totfact>
</mgrwt>
</event>
<event>
 6    1  0.1585031E-006  0.3668858E+04  0.7818608E-02  0.8074899E-01
          2   -1    0    0  501    0  0.00000000000E+00  0.00000000000E+00  0.29513243618E+04  0.29513243618E+04  0.00000000000E+00 0. -1.
         -2   -1    0    0    0  501 -0.00000000000E+00 -0.00000000000E+00 -0.11402098760E+04  0.11402098760E+04  0.00000000000E+00 0.  1.
         23    2    1    2    0    0 -0.12218506976E+03 -0.98479039844E+03 -0.81308299369E+03  0.12859765871E+04  0.88828529985E+02 0.  0.
         13    1    3    3    0    0 -0.11440116179E+03 -0.57134252545E+03 -0.46637899238E+03  0.74634393663E+03  0.00000000000E+00 0.  1.
        -13    1    3    3    0    0 -0.77839079739E+01 -0.41344787299E+03 -0.34670400131E+03  0.53963265045E+03  0.00000000000E+00 0. -1.
         22    1    1    2    0    0  0.12218506976E+03  0.98479039844E+03  0.26241974795E+04  0.28055576508E+04  0.00000000000E+00 0. -1.
<mgrwt>
<rscale>  0 0.36688577E+04</rscale>
<asrwt>0</asrwt>
<pdfrwt beam="1">  1        2 0.45404990E+00 0.36688577E+04</pdfrwt>
<pdfrwt beam="2">  1       -2 0.17541690E+00 0.36688577E+04</pdfrwt>
<totfact> 0.29518564E-01</totfact>
</mgrwt>
</event>
<event>
 6    1  0.1585031E-006  0.3774093E+04  0.7818608E-02  0.8051737E-01
         -2   -1    0    0    0  501 -0.00000000000E+00  0.00000000000E+00  0.14174783988E+04  0.14174783988E+04  0.00000000000E+00 0.  1.
          2   -1    0    0  501    0  0.00000000000E+00 -0.00000000000E+00 -0.25121689259E+04  0.25121689259E+04  0.00000000000E+00 0. -1.
         23    2    1    2    0    0  0.55294020516E+01 -0.18447381297E+04 -0.95583513337E+03  0.20796824164E+04  0.91481195332E+02 0.  0.
         13    1    3    3    0    0 -0.13241006568E+02 -0.10704632296E+04 -0.50709523857E+03  0.11845726787E+04  0.00000000000E+00 0. -1.
        -13    1    3    3    0    0  0.18770408619E+02 -0.77427490014E+03 -0.44873989480E+03  0.89510973764E+03  0.00000000000E+00 0.  1.
         22    1    1    2    0    0 -0.55294020516E+01  0.18447381297E+04 -0.13885539369E+03  0.18499649083E+04  0.00000000000E+00 0.  1.
<mgrwt>
<rscale>  0 0.37740934E+04</rscale>
<asrwt>0</asrwt>
<pdfrwt beam="1">  1        2 0.38648752E+00 0.37740934E+04</pdfrwt>
<pdfrwt beam="2">  1       -2 0.21807360E+00 0.37740934E+04</pdfrwt>
<totfact> 0.27974979E-01</totfact>
</mgrwt>
</event>
<event>
 6    1  0.1585031E-006  0.1337963E+04  0.7818608E-02  0.8999991E-01
          2   -1    0    0  501    0  0.00000000000E+00  0.00000000000E+00  0.95870962960E+03  0.95870962960E+03  0.00000000000E+00 0. -1.
         -2   -1    0    0    0  501 -0.00000000000E+00 -0.00000000000E+00 -0.46681073566E+03  0.46681073566E+03  0.00000000000E+00 0.  1.
         23    2    1    2    0    0  0.19697845936E+03  0.45490747026E+03 -0.22838660292E+03  0.55113342750E+03  0.76461065687E+02 0.  0.
         13    1    3    3    0    0  0.66373351062E+02  0.23946583322E+03 -0.13208404787E+03  0.28141695527E+03  0.00000000000E+00 0.  1.
        -13    1    3    3    0    0  0.13060510830E+03  0.21544163703E+03 -0.96302555046E+02  0.26971647222E+03  0.00000000000E+00 0. -1.
         22    1    1    2    0    0 -0.19697845936E+03 -0.45490747026E+03  0.72028549686E+03  0.87438693776E+03  0.00000000000E+00 0. -1.
<mgrwt>
<rscale>  0 0.13379626E+04</rscale>
<asrwt>0</asrwt>
<pdfrwt beam="1">  1        2 0.14749379E+00 0.13379626E+04</pdfrwt>
<pdfrwt beam="2">  1       -2 0.71817036E-01 0.13379626E+04</pdfrwt>
<totfact> 0.46044760E+01</totfact>
</mgrwt>
</event>
<event>
 6    1  0.1585031E-006  0.2579759E+04  0.7818608E-02  0.8375109E-01
         -1   -1    0    0    0  501 -0.00000000000E+00  0.00000000000E+00  0.54289396489E+03  0.54289396489E+03  0.00000000000E+00 0.  1.
          1   -1    0    0  501    0  0.00000000000E+00 -0.00000000000E+00 -0.30646662681E+04  0.30646662681E+04  0.00000000000E+00 0. -1.
         23    2    1    2    0    0  0.10702583454E+04  0.38153049339E+03 -0.21114441000E+04  0.23995090429E+04  0.91809674206E+02 0.  0.
         13    1    3    3    0    0  0.34939927281E+03  0.15487842020E+03 -0.77916434313E+03  0.86785036181E+03  0.00000000000E+00 0. -1.
        -13    1    3    3    0    0  0.72085907264E+03  0.22665207319E+03 -0.13322797569E+04  0.15316586811E+04  0.00000000000E+00 0.  1.
         22    1    1    2    0    0 -0.10702583454E+04 -0.38153049339E+03 -0.41032820315E+03  0.12080511900E+04  0.00000000000E+00 0.  1.
<mgrwt>
<rscale>  0 0.25797588E+04</rscale>
<asrwt>0</asrwt>
<pdfrwt beam="1">  1        1 0.47148713E+00 0.25797588E+04</pdfrwt>
<pdfrwt beam="2">  1       -1 0.83522147E-01 0.25797588E+04</pdfrwt>
<totfact> 0.67229734E-01</totfact>
</mgrwt>
</event>
<event>
 6    1  0.1585031E-006  0.3656712E+04  0.7818608E-02  0.8077623E-01
          2   -1    0    0  501    0  0.00000000000E+00  0.00000000000E+00  0.12968195904E+04  0.12968195904E+04  0.00000000000E+00 0. -1.
         -2   -1    0    0    0  501 -0.00000000000E+00 -0.00000000000E+00 -0.25777574671E+04  0.25777574671E+04  0.00000000000E+00 0.  1.
         23    2    1    2    0    0  0.53506425900E+03  0.41456022564E+03  0.11574997528E+04  0.13439384001E+04  0.90613484571E+02 0.  0.
         11    1    3    3    0    0  0.19106826756E+03  0.15065530790E+03  0.50447770727E+03  0.56009094065E+03  0.00000000000E+00 0.  1.
        -11    1    3    3    0    0  0.34399599144E+03  0.26390491773E+03  0.65302204551E+03  0.78384745943E+03  0.00000000000E+00 0. -1.
         22    1    1    2    0    0 -0.53506425900E+03 -0.41456022564E+03 -0.24384376295E+04  0.25306386575E+04  0.00000000000E+00 0.  1.
<mgrwt>
<rscale>  0 0.36567124E+04</rscale>
<asrwt>0</asrwt>
<pdfrwt beam="1">  1        2 0.19951071E+00 0.36567124E+04</pdfrwt>
<pdfrwt beam="2">  1       -2 0.39657807E+00 0.36567124E+04</pdfrwt>
<totfact> 0.10517458E-01</totfact>
</mgrwt>
</event>
<event>
 6    1  0.1585031E-006  0.1732606E+04  0.7818608E-02  0.8742984E-01
         -1   -1    0    0    0  501 -0.00000000000E+00  0.00000000000E+00  0.70417022069E+03  0.70417022069E+03  0.00000000000E+00 0.  1.
          1   -1    0    0  501    0  0.00000000000E+00 -0.00000000000E+00 -0.10657656885E+04  0.10657656885E+04  0.00000000000E+00 0. -1.
         23    2    1    2    0    0  0.30304299135E+03 -0.66474371702E+03  0.28977446821E+03  0.79116011388E+03  0.90806494482E+02 0.  0.
         13    1    3    3    0    0  0.13029080567E+02 -0.65451024953E+02  0.50508925402E+02  0.83694355563E+02  0.00000000000E+00 0. -1.
        -13    1    3    3    0    0  0.29001391078E+03 -0.59929269207E+03  0.23926554281E+03  0.70746575832E+03  0.00000000000E+00 0.  1.
         22    1    1    2    0    0 -0.30304299135E+03  0.66474371702E+03 -0.65136993601E+03  0.97877579530E+03  0.00000000000E+00 0. -1.
<mgrwt>
<rscale>  0 0.17326055E+04</rscale>
<asrwt>0</asrwt>
<pdfrwt beam="1">  1        1 0.16396395E+00 0.17326055E+04</pdfrwt>
<pdfrwt beam="2">  1       -1 0.10833388E+00 0.17326055E+04</pdfrwt>
<totfact> 0.10108297E+01</totfact>
</mgrwt>
</event>
<event>
 6    1  0.1585031E-006  0.1585313E+04  0.7818608E-02  0.8829622E-01
         -2   -1    0    0    0  501 -0.00000000000E+00  0.00000000000E+00  0.33215371346E+03  0.33215371346E+03  0.00000000000E+00 0.  1.
          2   -1    0    0  501    0  0.00000000000E+00 -0.00000000000E+00 -0.18916059287E+04  0.18916059287E+04  0.00000000000E+00 0. -1.
         23    2    1    2    0    0  0.28775721013E+03 -0.54311752295E+03 -0.86375450154E+02  0.62759673958E+03  0.92930583904E+02 0.  0.
         11    1    3    3    0    0  0.12392500291E+03 -0.21999680983E+03  0.10059578542E+02  0.25269981757E+03  0.00000000000E+00 0.  1.
        -11    1    3    3    0    0  0.16383220722E+03 -0.32312071312E+03 -0.96435028696E+02  0.37489692201E+03  0.00000000000E+00 0. -1.
         22    1    1    2    0    0 -0.28775721013E+03  0.54311752295E+03 -0.14730767651E+04  0.15961629026E+04  0.00000000000E+00 0. -1.
<mgrwt>
<rscale>  0 0.15853125E+04</rscale>
<asrwt>0</asrwt>
<pdfrwt beam="1">  1        2 0.29101630E+00 0.15853125E+04</pdfrwt>
<pdfrwt beam="2">  1       -2 0.51100571E-01 0.15853125E+04</pdfrwt>
<totfact> 0.26669519E+01</totfact>
</mgrwt>
</event>
<event>
 6    1  0.1585031E-006  0.3247260E+04  0.7818608E-02  0.8176446E-01
          2   -1    0    0  501    0  0.00000000000E+00  0.00000000000E+00  0.14310863934E+04  0.14310863934E+04  0.00000000000E+00 0. -1.
         -2   -1    0    0    0  501 -0.00000000000E+00 -0.00000000000E+00 -0.18420786342E+04  0.18420786342E+04  0.00000000000E+00 0.  1.
         23    2    1    2    0    0  0.23691176946E+03  0.14972780274E+04  0.37629313411E+03  0.15650119491E+04  0.98474364301E+02 0.  0.
         13    1    3    3    0    0  0.19951915617E+03  0.10805290966E+04  0.30712413923E+03  0.11409102765E+04  0.00000000000E+00 0. -1.
        -13    1    3    3    0    0  0.37392613288E+02  0.41674893081E+03  0.69168994878E+02  0.42410167261E+03  0.00000000000E+00 0.  1.
         22    1    1    2    0    0 -0.23691176946E+03 -0.14972780274E+04 -0.78728537497E+03  0.17081530784E+04  0.00000000000E+00 0.  1.
<mgrwt>
<rscale>  0 0.32472596E+04</rscale>
<asrwt>0</asrwt>
<pdfrwt beam="1">  1        2 0.22016714E+00 0.32472596E+04</pdfrwt>
<pdfrwt beam="2">  1       -2 0.28339671E+00 0.32472596E+04</pdfrwt>
<totfact> 0.46777915E-01</totfact>
</mgrwt>
</event>
<event>
 6    1  0.1585031E-006  0.1812840E+04  0.7818608E-02  0.8699501E-01
         -2   -1    0    0    0  501 -0.00000000000E+00  0.00000000000E+00  0.45132219039E+03  0.45132219039E+03  0.00000000000E+00 0.  1.
          2   -1    0    0  501    0  0.00000000000E+00 -0.00000000000E+00 -0.18204231517E+04  0.18204231517E+04  0.00000000000E+00 0. -1.
         23    2    1    2    0    0  0.24912497828E+03 -0.80597125616E+03 -0.27861230297E+03  0.89304362144E+03  0.90824962803E+02 0.  0.
         13    1    3    3    0    0  0.18662004959E+03 -0.48922251643E+03 -0.20199721450E+03  0.56122062342E+03  0.00000000000E+00 0.  1.
        -13    1    3    3    0    0  0.62504928699E+02 -0.31674873973E+03 -0.76615088471E+02  0.33182299802E+03  0.00000000000E+00 0. -1.
         22    1    1    2    0    0 -0.24912497828E+03  0.80597125616E+03 -0.10904886583E+04  0.13787017206E+04  0.00000000000E+00 0. -1.
<mgrwt>
<rscale>  0 0.18128402E+04</rscale>
<asrwt>0</asrwt>
<pdfrwt beam="1">  1        2 0.28006510E+00 0.18128402E+04</pdfrwt>
<pdfrwt beam="2">  1       -2 0.69434184E-01 0.18128402E+04</pdfrwt>
<totfact> 0.14999829E+01</totfact>
</mgrwt>
</event>
<event>
 6    1  0.1585031E-006  0.3790585E+04  0.7818608E-02  0.8048178E-01
         -2   -1    0    0    0  501 -0.00000000000E+00  0.00000000000E+00  0.11992330652E+04  0.11992330652E+04  0.00000000000E+00 0.  1.
          2   -1    0    0  501    0  0.00000000000E+00 -0.00000000000E+00 -0.29953589878E+04  0.29953589878E+04  0.00000000000E+00 0. -1.
         23    2    1    2    0    0  0.14699018010E+04  0.50276294055E+03 -0.20979566387E+04  0.26120360002E+04  0.89040045848E+02 0.  0.
         13    1    3    3    0    0  0.60143913819E+03  0.22110419228E+03 -0.93514925896E+03  0.11336314380E+04  0.00000000000E+00 0.  1.
        -13    1    3    3    0    0  0.86846266280E+03  0.28165874827E+03 -0.11628073797E+04  0.14784045622E+04  0.00000000000E+00 0. -1.
         22    1    1    2    0    0 -0.14699018010E+04 -0.50276294055E+03  0.30183071609E+03  0.15825560528E+04  0.00000000000E+00 0.  1.
<mgrwt>
<rscale>  0 0.37905849E+04</rscale>
<asrwt>0</asrwt>
<pdfrwt beam="1">  1        2 0.46082446E+00 0.37905849E+04</pdfrwt>
<pdfrwt beam="2">  1       -2 0.18449739E+00 0.37905849E+04</pdfrwt>
<totfact> 0.23738439E-01</totfact>
</mgrwt>
</event>
<event>
 6    1  0.1585031E-006  0.4126333E+04  0.7818608E-02  0.7979535E-01
          2   -1    0    0  501    0  0.00000000000E+00  0.00000000000E+00  0.28007233936E+04  0.28007233936E+04  0.00000000000E+00 0. -1.
         -2   -1    0    0    0  501 -0.00000000000E+00 -0.00000000000E+00 -0.15198415156E+04  0.15198415156E+04  0.00000000000E+00 0.  1.
         23    2    1    2    0    0  0.37971612942E+03 -0.16060470080E+04 -0.65396154344E+03  0.17774977854E+04  0.90891946871E+02 0.  0.
         11    1    3    3    0    0  0.17119022370E+03 -0.66216220274E+03 -0.22547544573E+03  0.72014168887E+03  0.00000000000E+00 0.  1.
        -11    1    3    3    0    0  0.20852590572E+03 -0.94388480525E+03 -0.42848609772E+03  0.10573560965E+04  0.00000000000E+00 0. -1.
         22    1    1    2    0    0 -0.37971612942E+03  0.16060470080E+04  0.19348434215E+04  0.25430671238E+04  0.00000000000E+00 0. -1.
<mgrwt>
<rscale>  0 0.41263328E+04</rscale>
<asrwt>0</asrwt>
<pdfrwt beam="1">  1        2 0.43088052E+00 0.41263328E+04</pdfrwt>
<pdfrwt beam="2">  1       -2 0.23382177E+00 0.41263328E+04</pdfrwt>
<totfact> 0.14594118E-01</totfact>
</mgrwt>
</event>
<event>
 6    1  0.1585031E-006  0.8785489E+03  0.7818608E-02  0.9452801E-01
          2   -1    0    0  501    0  0.00000000000E+00  0.00000000000E+00  0.97034374062E+03  0.97034374062E+03  0.00000000000E+00 0. -1.
         -2   -1    0    0    0  501 -0.00000000000E+00 -0.00000000000E+00 -0.19885945811E+03  0.19885945811E+03  0.00000000000E+00 0.  1.
         23    2    1    2    0    0 -0.96407058747E+02 -0.18573914321E+03 -0.11662701653E+03  0.25676962319E+03  0.92387380685E+02 0.  0.
         11    1    3    3    0    0 -0.38621118448E+02 -0.36937299408E+02 -0.74483291687E+02  0.91671782018E+02  0.00000000000E+00 0.  1.
        -11    1    3    3    0    0 -0.57785940298E+02 -0.14880184380E+03 -0.42143724844E+02  0.16509784117E+03  0.00000000000E+00 0. -1.
         22    1    1    2    0    0  0.96407058747E+02  0.18573914321E+03  0.88811129904E+03  0.91243357554E+03  0.00000000000E+00 0.  1.
<mgrwt>
<rscale>  0 0.87854887E+03</rscale>
<asrwt>0</asrwt>
<pdfrwt beam="1">  1        2 0.14928365E+00 0.87854887E+03</pdfrwt>
<pdfrwt beam="2">  1       -2 0.30593763E-01 0.87854887E+03</pdfrwt>
<totfact> 0.26076751E+02</totfact>
</mgrwt>
</event>
<event>
 6    1  0.1585031E-006  0.2750054E+04  0.7818608E-02  0.8318944E-01
         -1   -1    0    0    0  501 -0.00000000000E+00  0.00000000000E+00  0.13347041951E+04  0.13347041951E+04  0.00000000000E+00 0.  1.
          1   -1    0    0  501    0  0.00000000000E+00 -0.00000000000E+00 -0.14165683046E+04  0.14165683046E+04  0.00000000000E+00 0. -1.
         23    2    1    2    0    0  0.12162382521E+04  0.60418067711E+03 -0.23956526331E+03  0.13841077582E+04  0.11871391810E+03 0.  0.
         13    1    3    3    0    0  0.33544359979E+03  0.13682639122E+03 -0.11007299136E+03  0.37862901817E+03  0.00000000000E+00 0.  1.
        -13    1    3    3    0    0  0.88079465233E+03  0.46735428589E+03 -0.12949227195E+03  0.10054787400E+04  0.00000000000E+00 0. -1.
         22    1    1    2    0    0 -0.12162382521E+04 -0.60418067711E+03  0.15770115385E+03  0.13671647415E+04  0.00000000000E+00 0.  1.
<mgrwt>
<rscale>  0 0.27500543E+04</rscale>
<asrwt>0</asrwt>
<pdfrwt beam="1">  1        1 0.21793358E+00 0.27500543E+04</pdfrwt>
<pdfrwt beam="2">  1       -1 0.20533911E+00 0.27500543E+04</pdfrwt>
<totfact> 0.89949515E-01</totfact>
</mgrwt>
</event>
<event>
 6    1  0.1585031E-006  0.1533050E+04  0.7818608E-02  0.8862767E-01
          2   -1    0    0  501    0  0.00000000000E+00  0.00000000000E+00  0.27651716221E+04  0.27651716221E+04  0.00000000000E+00 0. -1.
         -2   -1    0    0    0  501 -0.00000000000E+00 -0.00000000000E+00 -0.21248623728E+03  0.21248623728E+03  0.00000000000E+00 0.  1.
         23    2    1    2    0    0  0.36275764015E+03  0.13636484332E+03  0.25593601492E+04  0.25900588030E+04  0.88835544901E+02 0.  0.
         11    1    3    3    0    0  0.14713374239E+03  0.42745310330E+02  0.74982620374E+03  0.76532008697E+03  0.00000000000E+00 0.  1.
        -11    1    3    3    0    0  0.21562389776E+03  0.93619532988E+02  0.18095339454E+04  0.18247387161E+04  0.00000000000E+00 0. -1.
         22    1    1    2    0    0 -0.36275764015E+03 -0.13636484332E+03 -0.66747643837E+01  0.38759905632E+03  0.00000000000E+00 0.  1.
<mgrwt>
<rscale>  0 0.15330504E+04</rscale>
<asrwt>0</asrwt>
<pdfrwt beam="1">  1        2 0.42541099E+00 0.15330504E+04</pdfrwt>
<pdfrwt beam="2">  1       -2 0.32690192E-01 0.15330504E+04</pdfrwt>
<totfact> 0.20503161E+01</totfact>
</mgrwt>
</event>
<event>
 6    1  0.1585031E-006  0.1298367E+04  0.7818608E-02  0.9030861E-01
         -1   -1    0    0    0  501 -0.00000000000E+00  0.00000000000E+00  0.44127291402E+03  0.44127291402E+03  0.00000000000E+00 0.  1.
          1   -1    0    0  501    0  0.00000000000E+00 -0.00000000000E+00 -0.95505401278E+03  0.95505401278E+03  0.00000000000E+00 0. -1.
         23    2    1    2    0    0  0.27543890520E+03  0.21244363889E+03 -0.84391205049E+03  0.91675906352E+03  0.85209984137E+02 0.  0.
         13    1    3    3    0    0  0.95197271316E+02  0.30573983363E+02 -0.19461054137E+03  0.21879339967E+03  0.00000000000E+00 0. -1.
        -13    1    3    3    0    0  0.18024163388E+03  0.18186965552E+03 -0.64930150911E+03  0.69796566386E+03  0.00000000000E+00 0.  1.
         22    1    1    2    0    0 -0.27543890520E+03 -0.21244363889E+03  0.33013095173E+03  0.47956786328E+03  0.00000000000E+00 0.  1.
<mgrwt>
<rscale>  0 0.12983674E+04</rscale>
<asrwt>0</asrwt>
<pdfrwt beam="1">  1        1 0.14693138E+00 0.12983674E+04</pdfrwt>
<pdfrwt beam="2">  1       -1 0.67888142E-01 0.12983674E+04</pdfrwt>
<totfact> 0.35456115E+01</totfact>
</mgrwt>
</event>
<event>
 6    1  0.1585031E-006  0.1865200E+04  0.7818608E-02  0.8672375E-01
         -2   -1    0    0    0  501 -0.00000000000E+00  0.00000000000E+00  0.28484810521E+03  0.28484810521E+03  0.00000000000E+00 0.  1.
          2   -1    0    0  501    0  0.00000000000E+00 -0.00000000000E+00 -0.30533571991E+04  0.30533571991E+04  0.00000000000E+00 0. -1.
         23    2    1    2    0    0  0.20850363007E+03 -0.56815393358E+03 -0.12282170584E+03  0.62417980494E+03  0.90788773949E+02 0.  0.
         11    1    3    3    0    0  0.15010284000E+03 -0.40679915432E+03 -0.12924658095E+03  0.45246115106E+03  0.00000000000E+00 0. -1.
        -11    1    3    3    0    0  0.58400790065E+02 -0.16135477927E+03  0.64248751025E+01  0.17171865389E+03  0.00000000000E+00 0.  1.
         22    1    1    2    0    0 -0.20850363007E+03  0.56815393358E+03 -0.26456873881E+04  0.27140254994E+04  0.00000000000E+00 0. -1.
<mgrwt>
<rscale>  0 0.18652003E+04</rscale>
<asrwt>0</asrwt>
<pdfrwt beam="1">  1        2 0.46974727E+00 0.18652003E+04</pdfrwt>
<pdfrwt beam="2">  1       -2 0.43822785E-01 0.18652003E+04</pdfrwt>
<totfact> 0.75001016E+00</totfact>
</mgrwt>
</event>
<event>
 6    1  0.1585031E-006  0.1751176E+04  0.7818608E-02  0.8732703E-01
         -1   -1    0    0    0  501 -0.00000000000E+00  0.00000000000E+00  0.57999343138E+03  0.57999343138E+03  0.00000000000E+00 0.  1.
          1   -1    0    0  501    0  0.00000000000E+00 -0.00000000000E+00 -0.13218334427E+04  0.13218334427E+04  0.00000000000E+00 0. -1.
         23    2    1    2    0    0  0.16665453489E+03 -0.22176869152E+03 -0.12711937234E+04  0.13041894932E+04  0.89563749356E+02 0.  0.
         11    1    3    3    0    0  0.86493337377E+02 -0.75929417783E+02 -0.69419031874E+03  0.70366652082E+03  0.00000000000E+00 0. -1.
        -11    1    3    3    0    0  0.80161197513E+02 -0.14583927374E+03 -0.57700340465E+03  0.60052297236E+03  0.00000000000E+00 0.  1.
         22    1    1    2    0    0 -0.16665453489E+03  0.22176869152E+03  0.52935371208E+03  0.59763738088E+03  0.00000000000E+00 0.  1.
<mgrwt>
<rscale>  0 0.17511764E+04</rscale>
<asrwt>0</asrwt>
<pdfrwt beam="1">  1        1 0.20335899E+00 0.17511764E+04</pdfrwt>
<pdfrwt beam="2">  1       -1 0.89229760E-01 0.17511764E+04</pdfrwt>
<totfact> 0.10179795E+01</totfact>
</mgrwt>
</event>
<event>
 6    1  0.1585031E-006  0.1572835E+04  0.7818608E-02  0.8837412E-01
         -2   -1    0    0    0  501 -0.00000000000E+00  0.00000000000E+00  0.24658909393E+03  0.24658909393E+03  0.00000000000E+00 0.  1.
          2   -1    0    0  501    0  0.00000000000E+00 -0.00000000000E+00 -0.25080297967E+04  0.25080297967E+04  0.00000000000E+00 0. -1.
         23    2    1    2    0    0  0.70700919144E+02  0.58667434170E+03 -0.20362413633E+04  0.21222423053E+04  0.91913599729E+02 0.  0.
         13    1    3    3    0    0  0.34124409027E+01  0.39048210043E+03 -0.13097680550E+04  0.13667407484E+04  0.00000000000E+00 0. -1.
        -13    1    3    3    0    0  0.67288478241E+02  0.19619224127E+03 -0.72647330826E+03  0.75550155688E+03  0.00000000000E+00 0.  1.
         22    1    1    2    0    0 -0.70700919144E+02 -0.58667434170E+03 -0.22519933954E+03  0.63237658535E+03  0.00000000000E+00 0.  1.
<mgrwt>
<rscale>  0 0.15728354E+04</rscale>
<asrwt>0</asrwt>
<pdfrwt beam="1">  1        2 0.38585075E+00 0.15728354E+04</pdfrwt>
<pdfrwt beam="2">  1       -2 0.37936782E-01 0.15728354E+04</pdfrwt>
<totfact> 0.21754346E+01</totfact>
</mgrwt>
</event>
<event>
 6    1  0.1585031E-006  0.1342701E+04  0.7818608E-02  0.8996372E-01
          1   -1    0    0  501    0  0.00000000000E+00  0.00000000000E+00  0.13605456240E+04  0.13605456240E+04  0.00000000000E+00 0. -1.
         -1   -1    0    0    0  501 -0.00000000000E+00 -0.00000000000E+00 -0.33127272802E+03  0.33127272802E+03  0.00000000000E+00 0.  1.
         23    2    1    2    0    0  0.13823879979E+03  0.51138172950E+03  0.37409508488E+01  0.53754931514E+03  0.91236135699E+02 0.  0.
         13    1    3    3    0    0  0.13761173506E+03  0.40923288423E+03  0.27659563135E+02  0.43263563722E+03  0.00000000000E+00 0.  1.
        -13    1    3    3    0    0  0.62706473322E+00  0.10214884527E+03 -0.23918612286E+02  0.10491367792E+03  0.00000000000E+00 0. -1.
         22    1    1    2    0    0 -0.13823879979E+03 -0.51138172950E+03  0.10255319452E+04  0.11542690369E+04  0.00000000000E+00 0. -1.
<mgrwt>
<rscale>  0 0.13427012E+04</rscale>
<asrwt>0</asrwt>
<pdfrwt beam="1">  1        1 0.20931471E+00 0.13427012E+04</pdfrwt>
<pdfrwt beam="2">  1       -1 0.50965036E-01 0.13427012E+04</pdfrwt>
<totfact> 0.31041146E+01</totfact>
</mgrwt>
</event>
<event>
 6    1  0.1585031E-006  0.2234890E+04  0.7818608E-02  0.8504045E-01
          1   -1    0    0  501    0  0.00000000000E+00  0.00000000000E+00  0.16816570715E+04  0.16816570715E+04  0.00000000000E+00 0. -1.
         -1   -1    0    0    0  501 -0.00000000000E+00 -0.00000000000E+00 -0.74253154525E+03  0.74253154525E+03  0.00000000000E+00 0.  1.
         23    2    1    2    0    0 -0.34922095778E+03 -0.74865927902E+03  0.12835896189E+04  0.15291458778E+04  0.90767904605E+02 0.  0.
         13    1    3    3    0    0 -0.20985829826E+02 -0.59114459958E+02  0.60069936674E+02  0.86852298310E+02  0.00000000000E+00 0. -1.
        -13    1    3    3    0    0 -0.32823512795E+03 -0.68954481906E+03  0.12235196822E+04  0.14422935795E+04  0.00000000000E+00 0.  1.
         22    1    1    2    0    0  0.34922095778E+03  0.74865927902E+03 -0.34446409264E+03  0.89504273894E+03  0.00000000000E+00 0.  1.
<mgrwt>
<rscale>  0 0.22348901E+04</rscale>
<asrwt>0</asrwt>
<pdfrwt beam="1">  1        1 0.25871647E+00 0.22348901E+04</pdfrwt>
<pdfrwt beam="2">  1       -1 0.11423562E+00 0.22348901E+04</pdfrwt>
<totfact> 0.31097732E+00</totfact>
</mgrwt>
</event>
<event>
 6    1  0.1585031E-006  0.3163779E+04  0.7818608E-02  0.8198449E-01
          1   -1    0    0  501    0  0.00000000000E+00  0.00000000000E+00  0.38953582115E+04  0.38953582115E+04  0.00000000000E+00 0. -1.
         -1   -1    0    0    0  501 -0.00000000000E+00 -0.00000000000E+00 -0.64239888593E+03  0.64239888593E+03  0.00000000000E+00 0.  1.
         23    2    1    2    0    0 -0.10588519203E+04  0.48396548458E+02  0.33093358656E+04  0.34763015264E+04  0.97256442848E+02 0.  0.
         11    1    3    3    0    0 -0.99183009057E+03  0.68949731167E+02  0.30803295804E+04  0.32368057276E+04  0.00000000000E+00 0. -1.
        -11    1    3    3    0    0 -0.67021829738E+02 -0.20553182709E+02  0.22900628522E+03  0.23949579882E+03  0.00000000000E+00 0.  1.
         22    1    1    2    0    0  0.10588519203E+04 -0.48396548458E+02 -0.56376540060E+02  0.10614555711E+04  0.00000000000E+00 0.  1.
<mgrwt>
<rscale>  0 0.31637786E+04</rscale>
<asrwt>0</asrwt>
<pdfrwt beam="1">  1        1 0.59928587E+00 0.31637786E+04</pdfrwt>
<pdfrwt beam="2">  1       -1 0.98830600E-01 0.31637786E+04</pdfrwt>
<totfact> 0.97070080E-02</totfact>
</mgrwt>
</event>
<event>
 6    1  0.1585031E-006  0.2084363E+04  0.7818608E-02  0.8568163E-01
         -2   -1    0    0    0  501 -0.00000000000E+00  0.00000000000E+00  0.50616273126E+03  0.50616273126E+03  0.00000000000E+00 0.  1.
          2   -1    0    0  501    0  0.00000000000E+00 -0.00000000000E+00 -0.21458366301E+04  0.21458366301E+04  0.00000000000E+00 0. -1.
         23    2    1    2    0    0 -0.17527660262E+03  0.31532339666E+03  0.41946179744E+03  0.56149929018E+03  0.95825473934E+02 0.  0.
         13    1    3    3    0    0  0.82481393888E+01  0.44102961917E+02  0.38410403398E+02  0.59063204641E+02  0.00000000000E+00 0.  1.
        -13    1    3    3    0    0 -0.18352474201E+03  0.27122043474E+03  0.38105139404E+03  0.50243608554E+03  0.00000000000E+00 0. -1.
         22    1    1    2    0    0  0.17527660262E+03 -0.31532339666E+03 -0.20591356963E+04  0.20905000712E+04  0.00000000000E+00 0. -1.
<mgrwt>
<rscale>  0 0.20843632E+04</rscale>
<asrwt>0</asrwt>
<pdfrwt beam="1">  1        2 0.33012871E+00 0.20843632E+04</pdfrwt>
<pdfrwt beam="2">  1       -2 0.77871190E-01 0.20843632E+04</pdfrwt>
<totfact> 0.75047369E+00</totfact>
</mgrwt>
</event>
<event>
 6    1  0.1585031E-006  0.3613475E+04  0.7818608E-02  0.8087412E-01
          2   -1    0    0  501    0  0.00000000000E+00  0.00000000000E+00  0.48006282724E+04  0.48006282724E+04  0.00000000000E+00 0. -1.
         -2   -1    0    0    0  501 -0.00000000000E+00 -0.00000000000E+00 -0.67997361379E+03  0.67997361379E+03  0.00000000000E+00 0.  1.
         23    2    1    2    0    0 -0.64288540322E+03 -0.35300851143E+03  0.45641003880E+04  0.46235366812E+04  0.90346225378E+02 0.  0.
         13    1    3    3    0    0 -0.19984659639E+03 -0.15366297826E+03  0.14440143602E+04  0.14658541692E+04  0.00000000000E+00 0. -1.
        -13    1    3    3    0    0 -0.44303880682E+03 -0.19934553316E+03  0.31200860278E+04  0.31576825120E+04  0.00000000000E+00 0.  1.
         22    1    1    2    0    0  0.64288540322E+03  0.35300851143E+03 -0.44344572930E+03  0.85706520501E+03  0.00000000000E+00 0.  1.
<mgrwt>
<rscale>  0 0.36134751E+04</rscale>
<asrwt>0</asrwt>
<pdfrwt beam="1">  1        2 0.73855818E+00 0.36134751E+04</pdfrwt>
<pdfrwt beam="2">  1       -2 0.10461133E+00 0.36134751E+04</pdfrwt>
<totfact> 0.35624744E-02</totfact>
</mgrwt>
</event>
<event>
 6    1  0.1585031E-006  0.3687900E+04  0.7818608E-02  0.8070649E-01
          2   -1    0    0  501    0  0.00000000000E+00  0.00000000000E+00  0.15893995655E+04  0.15893995655E+04  0.00000000000E+00 0. -1.
         -2   -1    0    0    0  501 -0.00000000000E+00 -0.00000000000E+00 -0.21392683532E+04  0.21392683532E+04  0.00000000000E+00 0.  1.
         23    2    1    2    0    0  0.71588468595E+03  0.57195730351E+03  0.13418533955E+04  0.16267072009E+04  0.77328790965E+02 0.  0.
         13    1    3    3    0    0  0.88886993574E+02  0.56884601997E+02  0.19654161319E+03  0.22308151265E+03  0.00000000000E+00 0.  1.
        -13    1    3    3    0    0  0.62699769238E+03  0.51507270152E+03  0.11453117823E+04  0.14036256883E+04  0.00000000000E+00 0. -1.
         22    1    1    2    0    0 -0.71588468595E+03 -0.57195730351E+03 -0.18917221832E+04  0.21019607178E+04  0.00000000000E+00 0.  1.
<mgrwt>
<rscale>  0 0.36879003E+04</rscale>
<asrwt>0</asrwt>
<pdfrwt beam="1">  1        2 0.24452301E+00 0.36879003E+04</pdfrwt>
<pdfrwt beam="2">  1       -2 0.32911821E+00 0.36879003E+04</pdfrwt>
<totfact> 0.19227541E-01</totfact>
</mgrwt>
</event>
<event>
 6    1  0.1585031E-006  0.7945130E+03  0.7818608E-02  0.9567993E-01
          2   -1    0    0  501    0  0.00000000000E+00  0.00000000000E+00  0.17103628971E+04  0.17103628971E+04  0.00000000000E+00 0.  1.
         -2   -1    0    0    0  501 -0.00000000000E+00 -0.00000000000E+00 -0.92268559024E+02  0.92268559024E+02  0.00000000000E+00 0. -1.
         23    2    1    2    0    0 -0.30158067865E+03 -0.23487256422E+03  0.10179007150E+04  0.10910498288E+04  0.90287519455E+02 0.  0.
         11    1    3    3    0    0 -0.27778358688E+03 -0.18058676537E+03  0.90085785655E+03  0.95985424866E+03  0.00000000000E+00 0.  1.
        -11    1    3    3    0    0 -0.23797091773E+02 -0.54285798853E+02  0.11704285844E+03  0.13119558013E+03  0.00000000000E+00 0. -1.
         22    1    1    2    0    0  0.30158067865E+03  0.23487256422E+03  0.60019362308E+03  0.71158162732E+03  0.00000000000E+00 0.  1.
<mgrwt>
<rscale>  0 0.79451298E+03</rscale>
<asrwt>0</asrwt>
<pdfrwt beam="1">  1        2 0.26313273E+00 0.79451298E+03</pdfrwt>
<pdfrwt beam="2">  1       -2 0.14195164E-01 0.79451298E+03</pdfrwt>
<totfact> 0.37728785E+02</totfact>
</mgrwt>
</event>
<event>
 6    1  0.1585031E-006  0.3490346E+04  0.7818608E-02  0.8116082E-01
          2   -1    0    0  501    0  0.00000000000E+00  0.00000000000E+00  0.22773576678E+04  0.22773576678E+04  0.00000000000E+00 0. -1.
         -2   -1    0    0    0  501 -0.00000000000E+00 -0.00000000000E+00 -0.13373520158E+04  0.13373520158E+04  0.00000000000E+00 0.  1.
         23    2    1    2    0    0 -0.29424125249E+03  0.50958349182E+03  0.21704850097E+04  0.22507695457E+04  0.93301236414E+02 0.  0.
         11    1    3    3    0    0 -0.12166825633E+03  0.30187904610E+03  0.12197008056E+04  0.12623803620E+04  0.00000000000E+00 0. -1.
        -11    1    3    3    0    0 -0.17257299616E+03  0.20770444572E+03  0.95078420413E+03  0.98838918377E+03  0.00000000000E+00 0.  1.
         22    1    1    2    0    0  0.29424125249E+03 -0.50958349182E+03 -0.12304793577E+04  0.13639401378E+04  0.00000000000E+00 0.  1.
<mgrwt>
<rscale>  0 0.34903460E+04</rscale>
<asrwt>0</asrwt>
<pdfrwt beam="1">  1        2 0.35036272E+00 0.34903460E+04</pdfrwt>
<pdfrwt beam="2">  1       -2 0.20574646E+00 0.34903460E+04</pdfrwt>
<totfact> 0.46846302E-01</totfact>
</mgrwt>
</event>
<event>
 6    1  0.2137545E-006  0.3323442E+04  0.7818608E-02  0.8156956E-01
          2   -1    0    0  501    0  0.00000000000E+00  0.00000000000E+00  0.23405343035E+04  0.23405343035E+04  0.00000000000E+00 0.  1.
         -2   -1    0    0    0  501 -0.00000000000E+00 -0.00000000000E+00 -0.11797805040E+04  0.11797805040E+04  0.00000000000E+00 0. -1.
         23    2    1    2    0    0 -0.45344885967E+03 -0.10010706821E+04 -0.73803157651E+03  0.13264268698E+04  0.83422143512E+02 0.  0.
         13    1    3    3    0    0 -0.21202299761E+03 -0.41140413544E+03 -0.35155478176E+03  0.58120381860E+03  0.00000000000E+00 0. -1.
        -13    1    3    3    0    0 -0.24142586206E+03 -0.58966654667E+03 -0.38647679475E+03  0.74522305118E+03  0.00000000000E+00 0.  1.
         22    1    1    2    0    0  0.45344885967E+03  0.10010706821E+04  0.18987853760E+04  0.21938879377E+04  0.00000000000E+00 0.  1.
<mgrwt>
<rscale>  0 0.33234420E+04</rscale>
<asrwt>0</asrwt>
<pdfrwt beam="1">  1        2 0.36008220E+00 0.33234420E+04</pdfrwt>
<pdfrwt beam="2">  1       -2 0.18150469E+00 0.33234420E+04</pdfrwt>
<totfact> 0.63447133E-01</totfact>
</mgrwt>
</event>
<event>
 6    1  0.1585031E-006  0.2244198E+04  0.7818608E-02  0.8500254E-01
         -2   -1    0    0    0  501 -0.00000000000E+00  0.00000000000E+00  0.71043085183E+03  0.71043085183E+03  0.00000000000E+00 0. -1.
          2   -1    0    0  501    0  0.00000000000E+00 -0.00000000000E+00 -0.17723132590E+04  0.17723132590E+04  0.00000000000E+00 0.  1.
         23    2    1    2    0    0 -0.11154566524E+04 -0.57375644027E+02 -0.63132821627E+03  0.12857009123E+04  0.83162559953E+02 0.  0.
         13    1    3    3    0    0 -0.20596338844E+03 -0.95252255719E+01 -0.80553927731E+02  0.22136075210E+03  0.00000000000E+00 0. -1.
        -13    1    3    3    0    0 -0.90949326394E+03 -0.47850418455E+02 -0.55077428854E+03  0.10643401602E+04  0.00000000000E+00 0.  1.
         22    1    1    2    0    0  0.11154566524E+04  0.57375644027E+02 -0.43055419089E+03  0.11970431985E+04  0.00000000000E+00 0. -1.
<mgrwt>
<rscale>  0 0.22441979E+04</rscale>
<asrwt>0</asrwt>
<pdfrwt beam="1">  1        2 0.27266358E+00 0.22441979E+04</pdfrwt>
<pdfrwt beam="2">  1       -2 0.10929705E+00 0.22441979E+04</pdfrwt>
<totfact> 0.54333258E+00</totfact>
</mgrwt>
</event>
<event>
 6    1  0.1585031E-006  0.9320882E+03  0.7818608E-02  0.9386335E-01
          1   -1    0    0  501    0  0.00000000000E+00  0.00000000000E+00  0.11489998107E+04  0.11489998107E+04  0.00000000000E+00 0. -1.
         -1   -1    0    0    0  501 -0.00000000000E+00 -0.00000000000E+00 -0.18903146036E+03  0.18903146036E+03  0.00000000000E+00 0.  1.
         23    2    1    2    0    0  0.80484192391E+02 -0.45474520531E+03  0.45933040492E+03  0.65692242558E+03  0.85391717210E+02 0.  0.
         13    1    3    3    0    0  0.10348411614E+02 -0.26462826095E+03  0.22868150569E+03  0.34990061040E+03  0.00000000000E+00 0.  1.
        -13    1    3    3    0    0  0.70135780777E+02 -0.19011694437E+03  0.23064889923E+03  0.30702181518E+03  0.00000000000E+00 0. -1.
         22    1    1    2    0    0 -0.80484192391E+02  0.45474520531E+03  0.50063794540E+03  0.68110884545E+03  0.00000000000E+00 0.  1.
<mgrwt>
<rscale>  0 0.93208822E+03</rscale>
<asrwt>0</asrwt>
<pdfrwt beam="1">  1        1 0.17676920E+00 0.93208822E+03</pdfrwt>
<pdfrwt beam="2">  1       -1 0.29081764E-01 0.93208822E+03</pdfrwt>
<totfact> 0.12618227E+02</totfact>
</mgrwt>
</event>
<event>
 6    1  0.1585031E-006  0.1825446E+04  0.7818608E-02  0.8692884E-01
         -2   -1    0    0    0  501 -0.00000000000E+00  0.00000000000E+00  0.45718713208E+03  0.45718713208E+03  0.00000000000E+00 0.  1.
          2   -1    0    0  501    0  0.00000000000E+00 -0.00000000000E+00 -0.18221488271E+04  0.18221488271E+04  0.00000000000E+00 0. -1.
         23    2    1    2    0    0  0.67130767924E+03 -0.59492972208E+03 -0.48949310505E+03  0.10259243642E+04  0.91224595106E+02 0.  0.
         11    1    3    3    0    0  0.43560963502E+03 -0.36067917325E+03 -0.35303321096E+03  0.66669158400E+03  0.00000000000E+00 0.  1.
        -11    1    3    3    0    0  0.23569804422E+03 -0.23425054882E+03 -0.13645989410E+03  0.35923278020E+03  0.00000000000E+00 0. -1.
         22    1    1    2    0    0 -0.67130767924E+03  0.59492972208E+03 -0.87546859001E+03  0.12534115950E+04  0.00000000000E+00 0.  1.
<mgrwt>
<rscale>  0 0.18254457E+04</rscale>
<asrwt>0</asrwt>
<pdfrwt beam="1">  1        2 0.28033059E+00 0.18254457E+04</pdfrwt>
<pdfrwt beam="2">  1       -2 0.70336483E-01 0.18254457E+04</pdfrwt>
<totfact> 0.14535619E+01</totfact>
</mgrwt>
</event>
<event>
 6    1  0.1585031E-006  0.1144383E+04  0.7818608E-02  0.9162981E-01
         -1   -1    0    0    0  501 -0.00000000000E+00  0.00000000000E+00  0.45227865338E+03  0.45227865338E+03  0.00000000000E+00 0.  1.
          1   -1    0    0  501    0  0.00000000000E+00 -0.00000000000E+00 -0.72389721486E+03  0.72389721486E+03  0.00000000000E+00 0. -1.
         23    2    1    2    0    0  0.45285016234E+03  0.30907265479E+03  0.18290375003E+02  0.55597721705E+03  0.90426503818E+02 0.  0.
         13    1    3    3    0    0  0.13779279454E+03  0.69186725128E+02 -0.29926887247E+02  0.15706455915E+03  0.00000000000E+00 0. -1.
        -13    1    3    3    0    0  0.31505736781E+03  0.23988592966E+03  0.48217262250E+02  0.39891265791E+03  0.00000000000E+00 0.  1.
         22    1    1    2    0    0 -0.45285016234E+03 -0.30907265479E+03 -0.28990893649E+03  0.62019865118E+03  0.00000000000E+00 0. -1.
<mgrwt>
<rscale>  0 0.11443833E+04</rscale>
<asrwt>0</asrwt>
<pdfrwt beam="1">  1        1 0.11136880E+00 0.11443833E+04</pdfrwt>
<pdfrwt beam="2">  1       -1 0.69581331E-01 0.11443833E+04</pdfrwt>
<totfact> 0.53724238E+01</totfact>
</mgrwt>
</event>
<event>
 6    1  0.1585031E-006  0.2068992E+04  0.7818608E-02  0.8575027E-01
          2   -1    0    0  501    0  0.00000000000E+00  0.00000000000E+00  0.16634588448E+04  0.16634588448E+04  0.00000000000E+00 0. -1.
         -2   -1    0    0    0  501 -0.00000000000E+00 -0.00000000000E+00 -0.64334758973E+03  0.64334758973E+03  0.00000000000E+00 0.  1.
         23    2    1    2    0    0  0.23486416925E+03 -0.39069069646E+03  0.15438886800E+04  0.16124411207E+04  0.92594347340E+02 0.  0.
         13    1    3    3    0    0  0.72336305002E+02 -0.19140108432E+03  0.78184765859E+03  0.80817861723E+03  0.00000000000E+00 0. -1.
        -13    1    3    3    0    0  0.16252786424E+03 -0.19928961214E+03  0.76204102141E+03  0.80426250346E+03  0.00000000000E+00 0.  1.
         22    1    1    2    0    0 -0.23486416925E+03  0.39069069646E+03 -0.52377742488E+03  0.69436531388E+03  0.00000000000E+00 0.  1.
<mgrwt>
<rscale>  0 0.20689923E+04</rscale>
<asrwt>0</asrwt>
<pdfrwt beam="1">  1        2 0.25591674E+00 0.20689923E+04</pdfrwt>
<pdfrwt beam="2">  1       -2 0.98976553E-01 0.20689923E+04</pdfrwt>
<totfact> 0.80368572E+00</totfact>
</mgrwt>
</event>
<event>
 6    1  0.1585031E-006  0.2381312E+04  0.7818608E-02  0.8446533E-01
          2   -1    0    0  501    0  0.00000000000E+00  0.00000000000E+00  0.23318802251E+04  0.23318802251E+04  0.00000000000E+00 0.  1.
         -2   -1    0    0    0  501 -0.00000000000E+00 -0.00000000000E+00 -0.60794774868E+03  0.60794774868E+03  0.00000000000E+00 0. -1.
         23    2    1    2    0    0 -0.11210153282E+04 -0.38940341412E+03  0.95101350716E+03  0.15235956065E+04  0.92771204002E+02 0.  0.
         13    1    3    3    0    0 -0.57876249211E+03 -0.15355822416E+03  0.46336933280E+03  0.75713756283E+03  0.00000000000E+00 0. -1.
        -13    1    3    3    0    0 -0.54225283612E+03 -0.23584518996E+03  0.48764417436E+03  0.76645804366E+03  0.00000000000E+00 0.  1.
         22    1    1    2    0    0  0.11210153282E+04  0.38940341412E+03  0.77291896922E+03  0.14162323672E+04  0.00000000000E+00 0. -1.
<mgrwt>
<rscale>  0 0.23813117E+04</rscale>
<asrwt>0</asrwt>
<pdfrwt beam="1">  1        2 0.35875080E+00 0.23813117E+04</pdfrwt>
<pdfrwt beam="2">  1       -2 0.93530424E-01 0.23813117E+04</pdfrwt>
<totfact> 0.37845886E+00</totfact>
</mgrwt>
</event>
<event>
 6    1  0.1585031E-006  0.4822966E+04  0.7818608E-02  0.7856412E-01
         -2   -1    0    0    0  501 -0.00000000000E+00  0.00000000000E+00  0.27942616728E+04  0.27942616728E+04  0.00000000000E+00 0.  1.
          2   -1    0    0  501    0  0.00000000000E+00 -0.00000000000E+00 -0.20811397634E+04  0.20811397634E+04  0.00000000000E+00 0. -1.
         23    2    1    2    0    0 -0.70908334359E+03  0.11503492121E+04  0.23746656719E+04  0.27337128098E+04  0.89700476252E+02 0.  0.
         13    1    3    3    0    0 -0.82201198292E+02  0.14605291042E+03  0.23989900000E+03  0.29264316128E+03  0.00000000000E+00 0. -1.
        -13    1    3    3    0    0 -0.62688214530E+03  0.10042963017E+04  0.21347666719E+04  0.24410696485E+04  0.00000000000E+00 0.  1.
         22    1    1    2    0    0  0.70908334359E+03 -0.11503492121E+04 -0.16615437624E+04  0.21416886264E+04  0.00000000000E+00 0. -1.
<mgrwt>
<rscale>  0 0.48229655E+04</rscale>
<asrwt>0</asrwt>
<pdfrwt beam="1">  1        2 0.32017535E+00 0.48229655E+04</pdfrwt>
<pdfrwt beam="2">  1       -2 0.42988641E+00 0.48229655E+04</pdfrwt>
<totfact> 0.20992943E-02</totfact>
</mgrwt>
</event>
<event>
 6    1  0.1585031E-006  0.2143955E+04  0.7818608E-02  0.8542124E-01
         -1   -1    0    0    0  501 -0.00000000000E+00  0.00000000000E+00  0.62609139239E+03  0.62609139239E+03  0.00000000000E+00 0.  1.
          1   -1    0    0  501    0  0.00000000000E+00 -0.00000000000E+00 -0.18354116632E+04  0.18354116632E+04  0.00000000000E+00 0. -1.
         23    2    1    2    0    0  0.20441886352E+03 -0.58905070576E+03 -0.16041483527E+04  0.17234942346E+04  0.91502095931E+02 0.  0.
         11    1    3    3    0    0  0.12500312853E+03 -0.35435440101E+03 -0.84084415754E+03  0.92098410460E+03  0.00000000000E+00 0. -1.
        -11    1    3    3    0    0  0.79415734983E+02 -0.23469630475E+03 -0.76330419512E+03  0.80251012998E+03  0.00000000000E+00 0.  1.
         22    1    1    2    0    0 -0.20441886352E+03  0.58905070576E+03  0.39482808183E+03  0.73800882103E+03  0.00000000000E+00 0.  1.
<mgrwt>
<rscale>  0 0.21439547E+04</rscale>
<asrwt>0</asrwt>
<pdfrwt beam="1">  1        1 0.28237102E+00 0.21439547E+04</pdfrwt>
<pdfrwt beam="2">  1       -1 0.96321754E-01 0.21439547E+04</pdfrwt>
<totfact> 0.36646840E+00</totfact>
</mgrwt>
</event>
<event>
 6    1  0.1585031E-006  0.4360718E+04  0.7818608E-02  0.7935485E-01
          2   -1    0    0  501    0  0.00000000000E+00  0.00000000000E+00  0.32189753454E+04  0.32189753454E+04  0.00000000000E+00 0. -1.
         -2   -1    0    0    0  501 -0.00000000000E+00 -0.00000000000E+00 -0.14768567790E+04  0.14768567790E+04  0.00000000000E+00 0.  1.
         23    2    1    2    0    0  0.14130301330E+04  0.80694886471E+03  0.24326628197E+04  0.29281579483E+04  0.91869194743E+02 0.  0.
         13    1    3    3    0    0  0.20374658841E+03  0.13493505693E+03  0.41864109304E+03  0.48474787948E+03  0.00000000000E+00 0.  1.
        -13    1    3    3    0    0  0.12092835446E+04  0.67201380778E+03  0.20140217266E+04  0.24434100688E+04  0.00000000000E+00 0. -1.
         22    1    1    2    0    0 -0.14130301330E+04 -0.80694886471E+03 -0.69054425322E+03  0.17676741761E+04  0.00000000000E+00 0.  1.
<mgrwt>
<rscale>  0 0.43607181E+04</rscale>
<asrwt>0</asrwt>
<pdfrwt beam="1">  1        2 0.49522698E+00 0.43607181E+04</pdfrwt>
<pdfrwt beam="2">  1       -2 0.22720874E+00 0.43607181E+04</pdfrwt>
<totfact> 0.85868263E-02</totfact>
</mgrwt>
</event>
<event>
 6    1  0.1585031E-006  0.3639276E+04  0.7818608E-02  0.8081554E-01
         -2   -1    0    0    0  501 -0.00000000000E+00  0.00000000000E+00  0.19967787601E+04  0.19967787601E+04  0.00000000000E+00 0.  1.
          2   -1    0    0  501    0  0.00000000000E+00 -0.00000000000E+00 -0.16582121070E+04  0.16582121070E+04  0.00000000000E+00 0. -1.
         23    2    1    2    0    0 -0.41647184912E+03  0.78862032116E+03 -0.14220112157E+04  0.16814141029E+04  0.98319254475E+02 0.  0.
         13    1    3    3    0    0 -0.94906429367E+02  0.27749684830E+03 -0.45328971835E+03  0.53989193355E+03  0.00000000000E+00 0.  1.
        -13    1    3    3    0    0 -0.32156541975E+03  0.51112347287E+03 -0.96872149732E+03  0.11415221693E+04  0.00000000000E+00 0. -1.
         22    1    1    2    0    0  0.41647184912E+03 -0.78862032116E+03  0.17605778688E+04  0.19735767642E+04  0.00000000000E+00 0.  1.
<mgrwt>
<rscale>  0 0.36392761E+04</rscale>
<asrwt>0</asrwt>
<pdfrwt beam="1">  1        2 0.25510956E+00 0.36392761E+04</pdfrwt>
<pdfrwt beam="2">  1       -2 0.30719673E+00 0.36392761E+04</pdfrwt>
<totfact> 0.24133390E-01</totfact>
</mgrwt>
</event>
<event>
 6    1  0.1585031E-006  0.2910614E+04  0.7818608E-02  0.8269727E-01
         -2   -1    0    0    0  501 -0.00000000000E+00  0.00000000000E+00  0.16837279848E+04  0.16837279848E+04  0.00000000000E+00 0.  1.
          2   -1    0    0  501    0  0.00000000000E+00 -0.00000000000E+00 -0.12578743638E+04  0.12578743638E+04  0.00000000000E+00 0. -1.
         23    2    1    2    0    0 -0.75773911866E+03  0.81593268131E+03 -0.73203771093E+03  0.13351693283E+04  0.82965128978E+02 0.  0.
         11    1    3    3    0    0 -0.51798787606E+03  0.54095204267E+03 -0.53613800078E+03  0.92107790555E+03  0.00000000000E+00 0.  1.
        -11    1    3    3    0    0 -0.23975124260E+03  0.27498063864E+03 -0.19589971015E+03  0.41409142275E+03  0.00000000000E+00 0. -1.
         22    1    1    2    0    0  0.75773911866E+03 -0.81593268131E+03  0.11578913319E+04  0.16064330203E+04  0.00000000000E+00 0.  1.
<mgrwt>
<rscale>  0 0.29106139E+04</rscale>
<asrwt>0</asrwt>
<pdfrwt beam="1">  1        2 0.19351913E+00 0.29106139E+04</pdfrwt>
<pdfrwt beam="2">  1       -2 0.25903507E+00 0.29106139E+04</pdfrwt>
<totfact> 0.85343669E-01</totfact>
</mgrwt>
</event>
<event>
 6    1  0.1585031E-006  0.2024658E+04  0.7818608E-02  0.8595178E-01
          1   -1    0    0  501    0  0.00000000000E+00  0.00000000000E+00  0.24140755034E+04  0.24140755034E+04  0.00000000000E+00 0.  1.
         -1   -1    0    0    0  501 -0.00000000000E+00 -0.00000000000E+00 -0.42451436996E+03  0.42451436996E+03  0.00000000000E+00 0. -1.
         23    2    1    2    0    0 -0.46040456911E+03  0.42005670801E+03 -0.11814422468E+03  0.64067224936E+03  0.89904772257E+02 0.  0.
         11    1    3    3    0    0 -0.25156400016E+03  0.28888334740E+03 -0.72646604557E+02  0.38989173335E+03  0.00000000000E+00 0.  1.
        -11    1    3    3    0    0 -0.20884056896E+03  0.13117336061E+03 -0.45497620126E+02  0.25078051602E+03  0.00000000000E+00 0. -1.
         22    1    1    2    0    0  0.46040456911E+03 -0.42005670801E+03  0.21077053582E+04  0.21979176240E+04  0.00000000000E+00 0.  1.
<mgrwt>
<rscale>  0 0.20246577E+04</rscale>
<asrwt>0</asrwt>
<pdfrwt beam="1">  1        1 0.37139622E+00 0.20246577E+04</pdfrwt>
<pdfrwt beam="2">  1       -1 0.65309905E-01 0.20246577E+04</pdfrwt>
<totfact> 0.34189722E+00</totfact>
</mgrwt>
</event>
<event>
 6    1  0.1585031E-006  0.2578359E+04  0.7818608E-02  0.8375589E-01
         -1   -1    0    0    0  501 -0.00000000000E+00  0.00000000000E+00  0.73214661719E+03  0.73214661719E+03  0.00000000000E+00 0.  1.
          1   -1    0    0  501    0  0.00000000000E+00 -0.00000000000E+00 -0.22700152741E+04  0.22700152741E+04  0.00000000000E+00 0. -1.
         23    2    1    2    0    0  0.16069780939E+03  0.93730901413E+03 -0.17805407572E+04  0.20207029151E+04  0.92427858929E+02 0.  0.
         11    1    3    3    0    0  0.99115861749E+02  0.32621712307E+03 -0.66145812136E+03  0.74415617429E+03  0.00000000000E+00 0.  1.
        -11    1    3    3    0    0  0.61581947641E+02  0.61109189106E+03 -0.11190826358E+04  0.12765467408E+04  0.00000000000E+00 0. -1.
         22    1    1    2    0    0 -0.16069780939E+03 -0.93730901413E+03  0.24267210020E+03  0.98145897628E+03  0.00000000000E+00 0.  1.
<mgrwt>
<rscale>  0 0.25783592E+04</rscale>
<asrwt>0</asrwt>
<pdfrwt beam="1">  1        1 0.34923311E+00 0.25783592E+04</pdfrwt>
<pdfrwt beam="2">  1       -1 0.11263795E+00 0.25783592E+04</pdfrwt>
<totfact> 0.12416840E+00</totfact>
</mgrwt>
</event>
<event>
 6    1  0.1585031E-006  0.1265389E+04  0.7818608E-02  0.9057472E-01
          1   -1    0    0  501    0  0.00000000000E+00  0.00000000000E+00  0.35708155882E+03  0.35708155882E+03  0.00000000000E+00 0. -1.
         -1   -1    0    0    0  501 -0.00000000000E+00 -0.00000000000E+00 -0.11210381935E+04  0.11210381935E+04  0.00000000000E+00 0.  1.
         23    2    1    2    0    0 -0.34513562147E+03 -0.32887044891E+03 -0.86404875122E+03  0.99099266295E+03  0.90619226174E+02 0.  0.
         11    1    3    3    0    0 -0.15799676250E+03 -0.21283711737E+03 -0.46955177215E+03  0.53920449017E+03  0.00000000000E+00 0. -1.
        -11    1    3    3    0    0 -0.18713885896E+03 -0.11603333155E+03 -0.39449697907E+03  0.45178817278E+03  0.00000000000E+00 0.  1.
         22    1    1    2    0    0  0.34513562147E+03  0.32887044891E+03  0.10009211656E+03  0.48712708934E+03  0.00000000000E+00 0. -1.
<mgrwt>
<rscale>  0 0.12653886E+04</rscale>
<asrwt>0</asrwt>
<pdfrwt beam="1">  1        1 0.54935625E-01 0.12653886E+04</pdfrwt>
<pdfrwt beam="2">  1       -1 0.17246741E+00 0.12653886E+04</pdfrwt>
<totfact> 0.16215433E+01</totfact>
</mgrwt>
</event>
<event>
 6    1  0.1585031E-006  0.3233942E+04  0.7818608E-02  0.8179910E-01
          2   -1    0    0  501    0  0.00000000000E+00  0.00000000000E+00  0.25198230991E+04  0.25198230991E+04  0.00000000000E+00 0. -1.
         -2   -1    0    0    0  501 -0.00000000000E+00 -0.00000000000E+00 -0.10376103304E+04  0.10376103304E+04  0.00000000000E+00 0.  1.
         23    2    1    2    0    0 -0.84821913387E+03  0.13404954969E+04  0.40542505297E+03  0.16401761017E+04  0.96975743730E+02 0.  0.
         11    1    3    3    0    0 -0.47088105484E+03  0.71054209795E+03  0.17142548672E+03  0.86947440345E+03  0.00000000000E+00 0.  1.
        -11    1    3    3    0    0 -0.37733807903E+03  0.62995339891E+03  0.23399956625E+03  0.77070169825E+03  0.00000000000E+00 0. -1.
         22    1    1    2    0    0  0.84821913387E+03 -0.13404954969E+04  0.10767877158E+04  0.19172573278E+04  0.00000000000E+00 0. -1.
<mgrwt>
<rscale>  0 0.32339415E+04</rscale>
<asrwt>0</asrwt>
<pdfrwt beam="1">  1        2 0.38766509E+00 0.32339415E+04</pdfrwt>
<pdfrwt beam="2">  1       -2 0.15963236E+00 0.32339415E+04</pdfrwt>
<totfact> 0.72141006E-01</totfact>
</mgrwt>
</event>
<event>
 6    1  0.1585031E-006  0.3713255E+04  0.7818608E-02  0.8065031E-01
         -1   -1    0    0    0  501 -0.00000000000E+00  0.00000000000E+00  0.19399773003E+04  0.19399773003E+04  0.00000000000E+00 0.  1.
          1   -1    0    0  501    0  0.00000000000E+00 -0.00000000000E+00 -0.17768592324E+04  0.17768592324E+04  0.00000000000E+00 0. -1.
         23    2    1    2    0    0  0.11035735208E+04 -0.13963211760E+04  0.60831160756E+03  0.18822290461E+04  0.71804091459E+02 0.  0.
         13    1    3    3    0    0  0.77094012719E+03 -0.92325290796E+03  0.42040125250E+03  0.12741592620E+04  0.00000000000E+00 0. -1.
        -13    1    3    3    0    0  0.33263339363E+03 -0.47306826805E+03  0.18791035505E+03  0.60806978409E+03  0.00000000000E+00 0.  1.
         22    1    1    2    0    0 -0.11035735208E+04  0.13963211760E+04 -0.44519353960E+03  0.18346074867E+04  0.00000000000E+00 0.  1.
<mgrwt>
<rscale>  0 0.37132555E+04</rscale>
<asrwt>0</asrwt>
<pdfrwt beam="1">  1        1 0.27336296E+00 0.37132555E+04</pdfrwt>
<pdfrwt beam="2">  1       -1 0.29845805E+00 0.37132555E+04</pdfrwt>
<totfact> 0.11440542E-01</totfact>
</mgrwt>
</event>
<event>
 6    1  0.1585031E-006  0.1704308E+04  0.7818608E-02  0.8758911E-01
          2   -1    0    0  501    0  0.00000000000E+00  0.00000000000E+00  0.31371529346E+03  0.31371529346E+03  0.00000000000E+00 0. -1.
         -2   -1    0    0    0  501 -0.00000000000E+00 -0.00000000000E+00 -0.23147297075E+04  0.23147297075E+04  0.00000000000E+00 0.  1.
         23    2    1    2    0    0 -0.69615605525E+03 -0.48567943710E+03 -0.10647324749E+04  0.13646643086E+04  0.90197910976E+02 0.  0.
         13    1    3    3    0    0 -0.24884791263E+03 -0.18290527506E+03 -0.45721251063E+03  0.55174532453E+03  0.00000000000E+00 0. -1.
        -13    1    3    3    0    0 -0.44730814262E+03 -0.30277416204E+03 -0.60751996425E+03  0.81291898405E+03  0.00000000000E+00 0.  1.
         22    1    1    2    0    0  0.69615605525E+03  0.48567943710E+03 -0.93628193920E+03  0.12637806924E+04  0.00000000000E+00 0. -1.
<mgrwt>
<rscale>  0 0.17043076E+04</rscale>
<asrwt>0</asrwt>
<pdfrwt beam="1">  1        2 0.48263892E-01 0.17043076E+04</pdfrwt>
<pdfrwt beam="2">  1       -2 0.35611225E+00 0.17043076E+04</pdfrwt>
<totfact> 0.14210347E+00</totfact>
</mgrwt>
</event>
<event>
 6    1  0.1585031E-006  0.4029283E+04  0.7818608E-02  0.7998665E-01
          2   -1    0    0  501    0  0.00000000000E+00  0.00000000000E+00  0.35998705863E+04  0.35998705863E+04  0.00000000000E+00 0. -1.
         -2   -1    0    0    0  501 -0.00000000000E+00 -0.00000000000E+00 -0.11274794474E+04  0.11274794474E+04  0.00000000000E+00 0.  1.
         23    2    1    2    0    0 -0.99282021536E+03 -0.10057459682E+04  0.29197066526E+04  0.32450180529E+04  0.90765047204E+02 0.  0.
         11    1    3    3    0    0 -0.48950567666E+03 -0.51131912613E+03  0.13612631805E+04  0.15343078254E+04  0.00000000000E+00 0. -1.
        -11    1    3    3    0    0 -0.50331453871E+03 -0.49442684207E+03  0.15584434721E+04  0.17107102276E+04  0.00000000000E+00 0.  1.
         22    1    1    2    0    0  0.99282021536E+03  0.10057459682E+04 -0.44731551369E+03  0.14823319808E+04  0.00000000000E+00 0.  1.
<mgrwt>
<rscale>  0 0.40292829E+04</rscale>
<asrwt>0</asrwt>
<pdfrwt beam="1">  1        2 0.55382624E+00 0.40292829E+04</pdfrwt>
<pdfrwt beam="2">  1       -2 0.17345838E+00 0.40292829E+04</pdfrwt>
<totfact> 0.10924982E-01</totfact>
</mgrwt>
</event>
<event>
 6    1  0.1585031E-006  0.4732768E+04  0.7818608E-02  0.7871107E-01
          2   -1    0    0  501    0  0.00000000000E+00  0.00000000000E+00  0.28590883652E+04  0.28590883652E+04  0.00000000000E+00 0. -1.
         -2   -1    0    0    0  501 -0.00000000000E+00 -0.00000000000E+00 -0.19585871391E+04  0.19585871391E+04  0.00000000000E+00 0.  1.
         23    2    1    2    0    0 -0.18636343640E+04  0.14446230963E+04  0.25829435317E+03  0.23738059086E+04  0.90385759958E+02 0.  0.
         13    1    3    3    0    0 -0.11440501991E+04  0.93838964735E+03  0.17786314722E+03  0.14903225448E+04  0.00000000000E+00 0.  1.
        -13    1    3    3    0    0 -0.71958416487E+03  0.50623344899E+03  0.80431205947E+02  0.88348336379E+03  0.00000000000E+00 0. -1.
         22    1    1    2    0    0  0.18636343640E+04 -0.14446230963E+04  0.64220687300E+03  0.24438695957E+04  0.00000000000E+00 0. -1.
<mgrwt>
<rscale>  0 0.47327682E+04</rscale>
<asrwt>0</asrwt>
<pdfrwt beam="1">  1        2 0.43985975E+00 0.47327682E+04</pdfrwt>
<pdfrwt beam="2">  1       -2 0.30132110E+00 0.47327682E+04</pdfrwt>
<totfact> 0.49368659E-02</totfact>
</mgrwt>
</event>
<event>
 6    1  0.1585031E-006  0.1604471E+04  0.7818608E-02  0.8817806E-01
          1   -1    0    0  501    0  0.00000000000E+00  0.00000000000E+00  0.11787010580E+04  0.11787010580E+04  0.00000000000E+00 0. -1.
         -1   -1    0    0    0  501 -0.00000000000E+00 -0.00000000000E+00 -0.54600935875E+03  0.54600935875E+03  0.00000000000E+00 0.  1.
         23    2    1    2    0    0  0.49536694762E+03 -0.48624815378E+02  0.99026869010E+03  0.11118367840E+04  0.88295923561E+02 0.  0.
         11    1    3    3    0    0  0.90316932803E+02 -0.27606126577E+02  0.25802507624E+03  0.27476569390E+03  0.00000000000E+00 0.  1.
        -11    1    3    3    0    0  0.40505001482E+03 -0.21018688801E+02  0.73224361386E+03  0.83707109006E+03  0.00000000000E+00 0. -1.
         22    1    1    2    0    0 -0.49536694762E+03  0.48624815378E+02 -0.35757699080E+03  0.61287363283E+03  0.00000000000E+00 0.  1.
<mgrwt>
<rscale>  0 0.16044710E+04</rscale>
<asrwt>0</asrwt>
<pdfrwt beam="1">  1        1 0.18133862E+00 0.16044710E+04</pdfrwt>
<pdfrwt beam="2">  1       -1 0.84001440E-01 0.16044710E+04</pdfrwt>
<totfact> 0.14926245E+01</totfact>
</mgrwt>
</event>
<event>
 6    1  0.1585031E-006  0.3096605E+04  0.7818608E-02  0.8216670E-01
         -1   -1    0    0    0  501 -0.00000000000E+00  0.00000000000E+00  0.11125283584E+04  0.11125283584E+04  0.00000000000E+00 0.  1.
          1   -1    0    0  501    0  0.00000000000E+00 -0.00000000000E+00 -0.21547677893E+04  0.21547677893E+04  0.00000000000E+00 0. -1.
         23    2    1    2    0    0 -0.10082766740E+04 -0.48777449136E+02  0.71472082121E+03  0.12409915264E+04  0.10115841824E+03 0.  0.
         13    1    3    3    0    0 -0.29908843423E+03  0.77942209376E+01  0.26224374415E+03  0.39785226243E+03  0.00000000000E+00 0.  1.
        -13    1    3    3    0    0 -0.70918823975E+03 -0.56571670074E+02  0.45247707705E+03  0.84313926401E+03  0.00000000000E+00 0. -1.
         22    1    1    2    0    0  0.10082766740E+04  0.48777449136E+02 -0.17569602521E+04  0.20263046213E+04  0.00000000000E+00 0. -1.
<mgrwt>
<rscale>  0 0.30966048E+04</rscale>
<asrwt>0</asrwt>
<pdfrwt beam="1">  1        1 0.33150274E+00 0.30966048E+04</pdfrwt>
<pdfrwt beam="2">  1       -1 0.17115821E+00 0.30966048E+04</pdfrwt>
<totfact> 0.47630146E-01</totfact>
</mgrwt>
</event>
<event>
 6    1  0.1585031E-006  0.2519104E+04  0.7818608E-02  0.8396211E-01
          1   -1    0    0  501    0  0.00000000000E+00  0.00000000000E+00  0.10529916471E+04  0.10529916471E+04  0.00000000000E+00 0. -1.
         -1   -1    0    0    0  501 -0.00000000000E+00 -0.00000000000E+00 -0.15066318316E+04  0.15066318316E+04  0.00000000000E+00 0.  1.
         23    2    1    2    0    0  0.97659608092E+03 -0.18286892531E+01 -0.10326738895E+04  0.14242718676E+04  0.91606449258E+02 0.  0.
         11    1    3    3    0    0  0.70553137213E+03  0.39746318030E+02 -0.74442610435E+03  0.10264134214E+04  0.00000000000E+00 0.  1.
        -11    1    3    3    0    0  0.27106470878E+03 -0.41575007283E+02 -0.28824778515E+03  0.39785844621E+03  0.00000000000E+00 0. -1.
         22    1    1    2    0    0 -0.97659608092E+03  0.18286892531E+01  0.57903370499E+03  0.11353516111E+04  0.00000000000E+00 0. -1.
<mgrwt>
<rscale>  0 0.25191036E+04</rscale>
<asrwt>0</asrwt>
<pdfrwt beam="1">  1        1 0.16199872E+00 0.25191036E+04</pdfrwt>
<pdfrwt beam="2">  1       -1 0.23178951E+00 0.25191036E+04</pdfrwt>
<totfact> 0.11214026E+00</totfact>
</mgrwt>
</event>
<event>
 6    1  0.1585031E-006  0.4113312E+04  0.7818608E-02  0.7982070E-01
          4   -1    0    0  501    0  0.00000000000E+00  0.00000000000E+00  0.28193100002E+04  0.28193100002E+04  0.00000000000E+00 0. -1.
         -4   -1    0    0    0  501 -0.00000000000E+00 -0.00000000000E+00 -0.15003083222E+04  0.15003083222E+04  0.00000000000E+00 0.  1.
         23    2    1    2    0    0  0.73653351591E+03 -0.18630879042E+04  0.17643123525E+03  0.20133127538E+04  0.93392210682E+02 0.  0.
         13    1    3    3    0    0  0.62202075910E+03 -0.14831678741E+04  0.15836288995E+03  0.16160988746E+04  0.00000000000E+00 0. -1.
        -13    1    3    3    0    0  0.11451275681E+03 -0.37992003010E+03  0.18068345303E+02  0.39721387922E+03  0.00000000000E+00 0.  1.
         22    1    1    2    0    0 -0.73653351591E+03  0.18630879042E+04  0.11425704428E+04  0.23063055686E+04  0.00000000000E+00 0. -1.
<mgrwt>
<rscale>  0 0.41133122E+04</rscale>
<asrwt>0</asrwt>
<pdfrwt beam="1">  1        4 0.43374000E+00 0.41133122E+04</pdfrwt>
<pdfrwt beam="2">  1       -4 0.23081667E+00 0.41133122E+04</pdfrwt>
<totfact> 0.49669494E-04</totfact>
</mgrwt>
</event>
<event>
 6    1  0.1585031E-006  0.1217737E+04  0.7818608E-02  0.9097471E-01
         -2   -1    0    0    0  501 -0.00000000000E+00  0.00000000000E+00  0.25549727645E+03  0.25549727645E+03  0.00000000000E+00 0.  1.
          2   -1    0    0  501    0  0.00000000000E+00 -0.00000000000E+00 -0.14509777149E+04  0.14509777149E+04  0.00000000000E+00 0. -1.
         23    2    1    2    0    0  0.15339924516E+03 -0.48579442175E+03 -0.14204766386E+03  0.53632621483E+03  0.89110724840E+02 0.  0.
         11    1    3    3    0    0  0.40327799198E+02 -0.15461851396E+03 -0.87420435809E+02  0.18214156265E+03  0.00000000000E+00 0.  1.
        -11    1    3    3    0    0  0.11307144596E+03 -0.33117590779E+03 -0.54627228051E+02  0.35418465218E+03  0.00000000000E+00 0. -1.
         22    1    1    2    0    0 -0.15339924516E+03  0.48579442175E+03 -0.10534327746E+04  0.11701487765E+04  0.00000000000E+00 0. -1.
<mgrwt>
<rscale>  0 0.12177370E+04</rscale>
<asrwt>0</asrwt>
<pdfrwt beam="1">  1        2 0.22322734E+00 0.12177370E+04</pdfrwt>
<pdfrwt beam="2">  1       -2 0.39307273E-01 0.12177370E+04</pdfrwt>
<totfact> 0.81582932E+01</totfact>
</mgrwt>
</event>
<event>
 6    1  0.1585031E-006  0.3939302E+04  0.7818608E-02  0.8016904E-01
          2   -1    0    0  501    0  0.00000000000E+00  0.00000000000E+00  0.34535536780E+04  0.34535536780E+04  0.00000000000E+00 0. -1.
         -2   -1    0    0    0  501 -0.00000000000E+00 -0.00000000000E+00 -0.11233428898E+04  0.11233428898E+04  0.00000000000E+00 0.  1.
         23    2    1    2    0    0  0.54910801629E+03  0.17873070721E+04  0.18813033193E+04  0.26540070496E+04  0.92005740928E+02 0.  0.
         13    1    3    3    0    0  0.31905521479E+03  0.11689618822E+04  0.11873841775E+04  0.16965109186E+04  0.00000000000E+00 0. -1.
        -13    1    3    3    0    0  0.23005280150E+03  0.61834518995E+03  0.69391914184E+03  0.95749613097E+03  0.00000000000E+00 0.  1.
         22    1    1    2    0    0 -0.54910801629E+03 -0.17873070721E+04  0.44890746880E+03  0.19228895182E+04  0.00000000000E+00 0.  1.
<mgrwt>
<rscale>  0 0.39393020E+04</rscale>
<asrwt>0</asrwt>
<pdfrwt beam="1">  1        2 0.53131594E+00 0.39393020E+04</pdfrwt>
<pdfrwt beam="2">  1       -2 0.17282199E+00 0.39393020E+04</pdfrwt>
<totfact> 0.14108980E-01</totfact>
</mgrwt>
</event>
<event>
 6    1  0.1585031E-006  0.2414741E+04  0.7818608E-02  0.8434005E-01
          1   -1    0    0  501    0  0.00000000000E+00  0.00000000000E+00  0.13148140371E+04  0.13148140371E+04  0.00000000000E+00 0. -1.
         -1   -1    0    0    0  501 -0.00000000000E+00 -0.00000000000E+00 -0.11087066643E+04  0.11087066643E+04  0.00000000000E+00 0.  1.
         23    2    1    2    0    0 -0.69281657249E+03  0.96419034687E+03 -0.10475920105E+03  0.11962082495E+04  0.10139949575E+03 0.  0.
         13    1    3    3    0    0 -0.12740628009E+03  0.19504262772E+03  0.18374543265E+02  0.23369127214E+03  0.00000000000E+00 0.  1.
        -13    1    3    3    0    0 -0.56541029240E+03  0.76914771915E+03 -0.12313374431E+03  0.96251697731E+03  0.00000000000E+00 0. -1.
         22    1    1    2    0    0  0.69281657249E+03 -0.96419034687E+03  0.31086657384E+03  0.12273124520E+04  0.00000000000E+00 0. -1.
<mgrwt>
<rscale>  0 0.24147406E+04</rscale>
<asrwt>0</asrwt>
<pdfrwt beam="1">  1        1 0.20227908E+00 0.24147406E+04</pdfrwt>
<pdfrwt beam="2">  1       -1 0.17057026E+00 0.24147406E+04</pdfrwt>
<totfact> 0.19255147E+00</totfact>
</mgrwt>
</event>
<event>
 6    1  0.1585031E-006  0.3579567E+04  0.7818608E-02  0.8095188E-01
          3   -1    0    0  501    0  0.00000000000E+00  0.00000000000E+00  0.15334730241E+04  0.15334730241E+04  0.00000000000E+00 0.  1.
         -3   -1    0    0    0  501 -0.00000000000E+00 -0.00000000000E+00 -0.20889342639E+04  0.20889342639E+04  0.00000000000E+00 0. -1.
         23    2    1    2    0    0 -0.16476825379E+03 -0.15669845937E+04 -0.11346490697E+04  0.19437030744E+04  0.89240324489E+02 0.  0.
         11    1    3    3    0    0 -0.10152444836E+03 -0.56247486330E+03 -0.42074141498E+03  0.70972425895E+03  0.00000000000E+00 0.  1.
        -11    1    3    3    0    0 -0.63243805436E+02 -0.10045097304E+04 -0.71390765472E+03  0.12339788154E+04  0.00000000000E+00 0. -1.
         22    1    1    2    0    0  0.16476825379E+03  0.15669845937E+04  0.57918782991E+03  0.16787042136E+04  0.00000000000E+00 0.  1.
<mgrwt>
<rscale>  0 0.35795666E+04</rscale>
<asrwt>0</asrwt>
<pdfrwt beam="1">  1        3 0.23591893E+00 0.35795666E+04</pdfrwt>
<pdfrwt beam="2">  1       -3 0.32137450E+00 0.35795666E+04</pdfrwt>
<totfact> 0.54248616E-03</totfact>
</mgrwt>
</event>
<event>
 6    1  0.1585031E-006  0.1225771E+04  0.7818608E-02  0.9090594E-01
         -1   -1    0    0    0  501 -0.00000000000E+00  0.00000000000E+00  0.30025619551E+03  0.30025619551E+03  0.00000000000E+00 0.  1.
          1   -1    0    0  501    0  0.00000000000E+00 -0.00000000000E+00 -0.12510268284E+04  0.12510268284E+04  0.00000000000E+00 0. -1.
         23    2    1    2    0    0 -0.27578106684E+03 -0.52756481881E+03 -0.64303705823E+03  0.88114886729E+03  0.92449084333E+02 0.  0.
         13    1    3    3    0    0 -0.25326351853E+03 -0.40451819754E+03 -0.51540218620E+03  0.70243632843E+03  0.00000000000E+00 0.  1.
        -13    1    3    3    0    0 -0.22517548319E+02 -0.12304662127E+03 -0.12763487203E+03  0.17871253886E+03  0.00000000000E+00 0. -1.
         22    1    1    2    0    0  0.27578106684E+03  0.52756481881E+03 -0.30773357463E+03  0.67013415659E+03  0.00000000000E+00 0.  1.
<mgrwt>
<rscale>  0 0.12257709E+04</rscale>
<asrwt>0</asrwt>
<pdfrwt beam="1">  1        1 0.19246567E+00 0.12257709E+04</pdfrwt>
<pdfrwt beam="2">  1       -1 0.46193261E-01 0.12257709E+04</pdfrwt>
<totfact> 0.45174455E+01</totfact>
</mgrwt>
</event>
<event>
 6    1  0.1585031E-006  0.2559602E+04  0.7818608E-02  0.8382054E-01
          1   -1    0    0  501    0  0.00000000000E+00  0.00000000000E+00  0.19689730735E+04  0.19689730735E+04  0.00000000000E+00 0. -1.
         -1   -1    0    0    0  501 -0.00000000000E+00 -0.00000000000E+00 -0.83185045115E+03  0.83185045115E+03  0.00000000000E+00 0.  1.
         23    2    1    2    0    0 -0.12065508062E+04  0.32773837709E+03  0.27920250191E+03  0.12845108179E+04  0.94003789291E+02 0.  0.
         13    1    3    3    0    0 -0.15965617410E+03  0.74793759616E+02  0.51635448270E+02  0.18371287359E+03  0.00000000000E+00 0.  1.
        -13    1    3    3    0    0 -0.10468946321E+04  0.25294461748E+03  0.22756705364E+03  0.11007979443E+04  0.00000000000E+00 0. -1.
         22    1    1    2    0    0  0.12065508062E+04 -0.32773837709E+03  0.85792012045E+03  0.15163127068E+04  0.00000000000E+00 0.  1.
<mgrwt>
<rscale>  0 0.25596024E+04</rscale>
<asrwt>0</asrwt>
<pdfrwt beam="1">  1        1 0.30291893E+00 0.25596024E+04</pdfrwt>
<pdfrwt beam="2">  1       -1 0.12797699E+00 0.25596024E+04</pdfrwt>
<totfact> 0.14584471E+00</totfact>
</mgrwt>
</event>
<event>
 6    1  0.1585031E-006  0.1069580E+04  0.7818608E-02  0.9235359E-01
         -1   -1    0    0    0  501 -0.00000000000E+00  0.00000000000E+00  0.44450069994E+03  0.44450069994E+03  0.00000000000E+00 0.  1.
          1   -1    0    0  501    0  0.00000000000E+00 -0.00000000000E+00 -0.64341966921E+03  0.64341966921E+03  0.00000000000E+00 0. -1.
         23    2    1    2    0    0 -0.69043101971E+02 -0.50268920975E+03  0.58942608553E+02  0.51874905502E+03  0.90349097676E+02 0.  0.
         11    1    3    3    0    0 -0.40107189882E+02 -0.39342144343E+03  0.80775294045E+02  0.40362565201E+03  0.00000000000E+00 0.  1.
        -11    1    3    3    0    0 -0.28935912089E+02 -0.10926776631E+03 -0.21832685491E+02  0.11512340300E+03  0.00000000000E+00 0. -1.
         22    1    1    2    0    0  0.69043101971E+02  0.50268920975E+03 -0.25786157782E+03  0.56917131414E+03  0.00000000000E+00 0. -1.
<mgrwt>
<rscale>  0 0.10695803E+04</rscale>
<asrwt>0</asrwt>
<pdfrwt beam="1">  1        1 0.98987641E-01 0.10695803E+04</pdfrwt>
<pdfrwt beam="2">  1       -1 0.68384723E-01 0.10695803E+04</pdfrwt>
<totfact> 0.66842520E+01</totfact>
</mgrwt>
</event>
<event>
 6    1  0.1585031E-006  0.2343677E+04  0.7818608E-02  0.8460896E-01
          1   -1    0    0  501    0  0.00000000000E+00  0.00000000000E+00  0.15316213322E+04  0.15316213322E+04  0.00000000000E+00 0. -1.
         -1   -1    0    0    0  501 -0.00000000000E+00 -0.00000000000E+00 -0.89656980840E+03  0.89656980840E+03  0.00000000000E+00 0.  1.
         23    2    1    2    0    0  0.25981913746E+03 -0.11050077554E+04  0.61179499690E+03  0.12928105922E+04  0.92292931398E+02 0.  0.
         11    1    3    3    0    0  0.21738876075E+03 -0.80216027360E+03  0.41286985755E+03  0.92799811267E+03  0.00000000000E+00 0. -1.
        -11    1    3    3    0    0  0.42430376709E+02 -0.30284748184E+03  0.19892513935E+03  0.36481247948E+03  0.00000000000E+00 0.  1.
         22    1    1    2    0    0 -0.25981913746E+03  0.11050077554E+04  0.23256526911E+02  0.11353805485E+04  0.00000000000E+00 0.  1.
<mgrwt>
<rscale>  0 0.23436770E+04</rscale>
<asrwt>0</asrwt>
<pdfrwt beam="1">  1        1 0.23563405E+00 0.23436770E+04</pdfrwt>
<pdfrwt beam="2">  1       -1 0.13793382E+00 0.23436770E+04</pdfrwt>
<totfact> 0.24406606E+00</totfact>
</mgrwt>
</event>
<event>
 6    1  0.1585031E-006  0.2269601E+04  0.7818608E-02  0.8490004E-01
          2   -1    0    0  501    0  0.00000000000E+00  0.00000000000E+00  0.16722840749E+04  0.16722840749E+04  0.00000000000E+00 0. -1.
         -2   -1    0    0    0  501 -0.00000000000E+00 -0.00000000000E+00 -0.77006762752E+03  0.77006762752E+03  0.00000000000E+00 0.  1.
         23    2    1    2    0    0 -0.79883903544E+03 -0.46265071117E+03  0.11593395078E+04  0.14840710790E+04  0.78799670691E+02 0.  0.
         13    1    3    3    0    0 -0.23722752645E+03 -0.10657125048E+03  0.28939141267E+03  0.38907803904E+03  0.00000000000E+00 0.  1.
        -13    1    3    3    0    0 -0.56161150899E+03 -0.35607946069E+03  0.86994809508E+03  0.10949930399E+04  0.00000000000E+00 0. -1.
         22    1    1    2    0    0  0.79883903544E+03  0.46265071117E+03 -0.25712306038E+03  0.95828062344E+03  0.00000000000E+00 0.  1.
<mgrwt>
<rscale>  0 0.22696007E+04</rscale>
<asrwt>0</asrwt>
<pdfrwt beam="1">  1        2 0.25727447E+00 0.22696007E+04</pdfrwt>
<pdfrwt beam="2">  1       -2 0.11847194E+00 0.22696007E+04</pdfrwt>
<totfact> 0.50634151E+00</totfact>
</mgrwt>
</event>
<event>
 6    1  0.1585031E-006  0.2488982E+04  0.7818608E-02  0.8406921E-01
         -2   -1    0    0    0  501 -0.00000000000E+00  0.00000000000E+00  0.17910777762E+04  0.17910777762E+04  0.00000000000E+00 0.  1.
          2   -1    0    0  501    0  0.00000000000E+00 -0.00000000000E+00 -0.86470743786E+03  0.86470743786E+03  0.00000000000E+00 0. -1.
         23    2    1    2    0    0  0.45303259896E+03 -0.14386125065E+02 -0.77192976172E+03  0.89803986101E+03  0.71795115479E+02 0.  0.
         13    1    3    3    0    0  0.20828643059E+03  0.16173458391E+02 -0.30047527121E+03  0.36596476133E+03  0.00000000000E+00 0.  1.
        -13    1    3    3    0    0  0.24474616837E+03 -0.30559583456E+02 -0.47145449052E+03  0.53207509968E+03  0.00000000000E+00 0. -1.
         22    1    1    2    0    0 -0.45303259896E+03  0.14386125065E+02  0.16983001001E+04  0.17577453531E+04  0.00000000000E+00 0.  1.
<mgrwt>
<rscale>  0 0.24889823E+04</rscale>
<asrwt>0</asrwt>
<pdfrwt beam="1">  1        2 0.13303191E+00 0.24889823E+04</pdfrwt>
<pdfrwt beam="2">  1       -2 0.27555043E+00 0.24889823E+04</pdfrwt>
<totfact> 0.12405559E+00</totfact>
</mgrwt>
</event>
<event>
 6    1  0.1585031E-006  0.9030718E+03  0.7818608E-02  0.9421750E-01
          2   -1    0    0  501    0  0.00000000000E+00  0.00000000000E+00  0.17542653763E+04  0.17542653763E+04  0.00000000000E+00 0. -1.
         -2   -1    0    0    0  501 -0.00000000000E+00 -0.00000000000E+00 -0.11622224322E+03  0.11622224322E+03  0.00000000000E+00 0.  1.
         23    2    1    2    0    0  0.12885148923E+03 -0.25423378498E+03  0.11268647376E+03  0.31873040210E+03  0.87483164975E+02 0.  0.
         13    1    3    3    0    0  0.53030879707E+02 -0.28899427540E+02  0.22248667074E+02  0.64361901007E+02  0.00000000000E+00 0. -1.
        -13    1    3    3    0    0  0.75820609518E+02 -0.22533435744E+03  0.90437806685E+02  0.25436850109E+03  0.00000000000E+00 0.  1.
         22    1    1    2    0    0 -0.12885148923E+03  0.25423378498E+03  0.15253566593E+04  0.15517572175E+04  0.00000000000E+00 0. -1.
<mgrwt>
<rscale>  0 0.90307177E+03</rscale>
<asrwt>0</asrwt>
<pdfrwt beam="1">  1        2 0.26988696E+00 0.90307177E+03</pdfrwt>
<pdfrwt beam="2">  1       -2 0.17880346E-01 0.90307177E+03</pdfrwt>
<totfact> 0.23904416E+02</totfact>
</mgrwt>
</event>
<event>
 6    1  0.1585031E-006  0.1696131E+04  0.7818608E-02  0.8763574E-01
          1   -1    0    0  501    0  0.00000000000E+00  0.00000000000E+00  0.71630659450E+03  0.71630659450E+03  0.00000000000E+00 0. -1.
         -1   -1    0    0    0  501 -0.00000000000E+00 -0.00000000000E+00 -0.10040601001E+04  0.10040601001E+04  0.00000000000E+00 0.  1.
         23    2    1    2    0    0 -0.66737090287E+03  0.13936287093E+02 -0.67116760517E+03  0.95057158300E+03  0.86846059601E+02 0.  0.
         13    1    3    3    0    0 -0.33342771581E+03 -0.44167726920E+01 -0.27591674737E+03  0.43280896597E+03  0.00000000000E+00 0.  1.
        -13    1    3    3    0    0 -0.33394318707E+03  0.18353059785E+02 -0.39525085780E+03  0.51776261702E+03  0.00000000000E+00 0. -1.
         22    1    1    2    0    0  0.66737090287E+03 -0.13936287093E+02  0.38341409958E+03  0.76979511161E+03  0.00000000000E+00 0. -1.
<mgrwt>
<rscale>  0 0.16961307E+04</rscale>
<asrwt>0</asrwt>
<pdfrwt beam="1">  1        1 0.11020101E+00 0.16961307E+04</pdfrwt>
<pdfrwt beam="2">  1       -1 0.15447078E+00 0.16961307E+04</pdfrwt>
<totfact> 0.80653554E+00</totfact>
</mgrwt>
</event>
<event>
 6    1  0.1585031E-006  0.1895195E+04  0.7818608E-02  0.8657252E-01
         -1   -1    0    0    0  501 -0.00000000000E+00  0.00000000000E+00  0.21280811032E+04  0.21280811032E+04  0.00000000000E+00 0.  1.
          1   -1    0    0  501    0  0.00000000000E+00 -0.00000000000E+00 -0.42194851404E+03  0.42194851404E+03  0.00000000000E+00 0. -1.
         23    2    1    2    0    0 -0.47898442452E+03  0.29778209340E+03  0.18757919856E+04  0.19610605476E+04  0.95197920605E+02 0.  0.
         11    1    3    3    0    0 -0.94051282345E+02  0.50608012828E+02  0.24382949702E+03  0.26619473753E+03  0.00000000000E+00 0. -1.
        -11    1    3    3    0    0 -0.38493314218E+03  0.24717408057E+03  0.16319624886E+04  0.16948658101E+04  0.00000000000E+00 0.  1.
         22    1    1    2    0    0  0.47898442452E+03 -0.29778209340E+03 -0.16965939650E+03  0.58896906957E+03  0.00000000000E+00 0. -1.
<mgrwt>
<rscale>  0 0.18951946E+04</rscale>
<asrwt>0</asrwt>
<pdfrwt beam="1">  1        1 0.64915157E-01 0.18951946E+04</pdfrwt>
<pdfrwt beam="2">  1       -1 0.32739709E+00 0.18951946E+04</pdfrwt>
<totfact> 0.11463841E+00</totfact>
</mgrwt>
</event>
<event>
 6    1  0.1585031E-006  0.1371336E+04  0.7818608E-02  0.8974832E-01
          2   -1    0    0  501    0  0.00000000000E+00  0.00000000000E+00  0.15590239982E+04  0.15590239982E+04  0.00000000000E+00 0. -1.
         -2   -1    0    0    0  501 -0.00000000000E+00 -0.00000000000E+00 -0.30156079240E+03  0.30156079240E+03  0.00000000000E+00 0.  1.
         23    2    1    2    0    0  0.20990862659E+03 -0.64269298428E+03  0.75947201635E+03  0.10208758361E+04  0.90960570887E+02 0.  0.
         13    1    3    3    0    0  0.11112392135E+03 -0.28354399651E+03  0.27981386917E+03  0.41357166880E+03  0.00000000000E+00 0.  1.
        -13    1    3    3    0    0  0.98784705233E+02 -0.35914898777E+03  0.47965814718E+03  0.60730416725E+03  0.00000000000E+00 0. -1.
         22    1    1    2    0    0 -0.20990862659E+03  0.64269298428E+03  0.49799118941E+03  0.83970895451E+03  0.00000000000E+00 0.  1.
<mgrwt>
<rscale>  0 0.13713359E+04</rscale>
<asrwt>0</asrwt>
<pdfrwt beam="1">  1        2 0.23984984E+00 0.13713359E+04</pdfrwt>
<pdfrwt beam="2">  1       -2 0.46393969E-01 0.13713359E+04</pdfrwt>
<totfact> 0.50499959E+01</totfact>
</mgrwt>
</event>
<event>
 6    1  0.2207325E-006  0.4653411E+04  0.7818608E-02  0.7884316E-01
         -2   -1    0    0    0  501 -0.00000000000E+00  0.00000000000E+00  0.24302623899E+04  0.24302623899E+04  0.00000000000E+00 0. -1.
          2   -1    0    0  501    0  0.00000000000E+00 -0.00000000000E+00 -0.22275612393E+04  0.22275612393E+04  0.00000000000E+00 0.  1.
         23    2    1    2    0    0  0.19853343560E+04  0.96449612967E+03  0.83530801766E+03  0.23617407174E+04  0.90963961626E+02 0.  0.
         11    1    3    3    0    0  0.55127869223E+03  0.24373986518E+03  0.26490974281E+03  0.65840298466E+03  0.00000000000E+00 0. -1.
        -11    1    3    3    0    0  0.14340556638E+04  0.72075626449E+03  0.57039827485E+03  0.17033377327E+04  0.00000000000E+00 0.  1.
         22    1    1    2    0    0 -0.19853343560E+04 -0.96449612967E+03 -0.63260686707E+03  0.22960829118E+04  0.00000000000E+00 0.  1.
<mgrwt>
<rscale>  0 0.46534109E+04</rscale>
<asrwt>0</asrwt>
<pdfrwt beam="1">  1        2 0.34270173E+00 0.46534109E+04</pdfrwt>
<pdfrwt beam="2">  1       -2 0.37388652E+00 0.46534109E+04</pdfrwt>
<totfact> 0.40879566E-02</totfact>
</mgrwt>
</event>
<event>
 6    1  0.1585031E-006  0.3491765E+04  0.7818608E-02  0.8115744E-01
          1   -1    0    0  501    0  0.00000000000E+00  0.00000000000E+00  0.15764180059E+04  0.15764180059E+04  0.00000000000E+00 0. -1.
         -1   -1    0    0    0  501 -0.00000000000E+00 -0.00000000000E+00 -0.19335639396E+04  0.19335639396E+04  0.00000000000E+00 0.  1.
         23    2    1    2    0    0  0.14272659167E+04 -0.89138739550E+03  0.28447321760E+03  0.17090559001E+04  0.91036103351E+02 0.  0.
         13    1    3    3    0    0  0.34014975379E+03 -0.25879770349E+03  0.67477889982E+02  0.43270240578E+03  0.00000000000E+00 0. -1.
        -13    1    3    3    0    0  0.10871161630E+04 -0.63258969201E+03  0.21699532762E+03  0.12763534943E+04  0.00000000000E+00 0.  1.
         22    1    1    2    0    0 -0.14272659167E+04  0.89138739550E+03 -0.64161915128E+03  0.18009260455E+04  0.00000000000E+00 0.  1.
<mgrwt>
<rscale>  0 0.34917646E+04</rscale>
<asrwt>0</asrwt>
<pdfrwt beam="1">  1        1 0.24252585E+00 0.34917646E+04</pdfrwt>
<pdfrwt beam="2">  1       -1 0.29747137E+00 0.34917646E+04</pdfrwt>
<totfact> 0.16216580E-01</totfact>
</mgrwt>
</event>
<event>
 6    1  0.1585031E-006  0.3457141E+04  0.7818608E-02  0.8124023E-01
         -2   -1    0    0    0  501 -0.00000000000E+00  0.00000000000E+00  0.10302170398E+04  0.10302170398E+04  0.00000000000E+00 0.  1.
          2   -1    0    0  501    0  0.00000000000E+00 -0.00000000000E+00 -0.29003161803E+04  0.29003161803E+04  0.00000000000E+00 0. -1.
         23    2    1    2    0    0 -0.61630638735E+03  0.93727933397E+03 -0.24291223312E+04  0.26772044362E+04  0.91990109285E+02 0.  0.
         13    1    3    3    0    0 -0.24832953013E+03  0.44942338065E+03 -0.11648545556E+04  0.12730023827E+04  0.00000000000E+00 0. -1.
        -13    1    3    3    0    0 -0.36797685721E+03  0.48785595332E+03 -0.12642677756E+04  0.14042020535E+04  0.00000000000E+00 0.  1.
         22    1    1    2    0    0  0.61630638735E+03 -0.93727933397E+03  0.55902319071E+03  0.12533287840E+04  0.00000000000E+00 0.  1.
<mgrwt>
<rscale>  0 0.34571405E+04</rscale>
<asrwt>0</asrwt>
<pdfrwt beam="1">  1        2 0.44620248E+00 0.34571405E+04</pdfrwt>
<pdfrwt beam="2">  1       -2 0.15849493E+00 0.34571405E+04</pdfrwt>
<totfact> 0.42773182E-01</totfact>
</mgrwt>
</event>
<event>
 6    1  0.1585031E-006  0.1153653E+04  0.7818608E-02  0.9154420E-01
          1   -1    0    0  501    0  0.00000000000E+00  0.00000000000E+00  0.11878161146E+04  0.11878161146E+04  0.00000000000E+00 0. -1.
         -1   -1    0    0    0  501 -0.00000000000E+00 -0.00000000000E+00 -0.28011806001E+03  0.28011806001E+03  0.00000000000E+00 0.  1.
         23    2    1    2    0    0 -0.43642048844E+03  0.37010534329E+03  0.49579089408E+03  0.76287508720E+03  0.93429011320E+02 0.  0.
         11    1    3    3    0    0 -0.22083528701E+03  0.18744162808E+03  0.31234891823E+03  0.42598642542E+03  0.00000000000E+00 0. -1.
        -11    1    3    3    0    0 -0.21558520144E+03  0.18266371521E+03  0.18344197586E+03  0.33688866179E+03  0.00000000000E+00 0.  1.
         22    1    1    2    0    0  0.43642048844E+03 -0.37010534329E+03  0.41190716053E+03  0.70505908742E+03  0.00000000000E+00 0.  1.
<mgrwt>
<rscale>  0 0.11536529E+04</rscale>
<asrwt>0</asrwt>
<pdfrwt beam="1">  1        1 0.18274094E+00 0.11536529E+04</pdfrwt>
<pdfrwt beam="2">  1       -1 0.43095087E-01 0.11536529E+04</pdfrwt>
<totfact> 0.57463992E+01</totfact>
</mgrwt>
</event>
<event>
 6    1  0.2314663E-006  0.3888587E+04  0.7818608E-02  0.8027407E-01
         -2   -1    0    0    0  501 -0.00000000000E+00  0.00000000000E+00  0.21963947619E+04  0.21963947619E+04  0.00000000000E+00 0. -1.
          2   -1    0    0  501    0  0.00000000000E+00 -0.00000000000E+00 -0.17211282965E+04  0.17211282965E+04  0.00000000000E+00 0.  1.
         23    2    1    2    0    0  0.11007013649E+04  0.43935233109E+03  0.17893664197E+04  0.21479376111E+04  0.85028417821E+02 0.  0.
         11    1    3    3    0    0  0.55246128080E+03  0.18515642696E+03  0.82962244930E+03  0.10137898094E+04  0.00000000000E+00 0. -1.
        -11    1    3    3    0    0  0.54824008410E+03  0.25419590413E+03  0.95974397041E+03  0.11341478018E+04  0.00000000000E+00 0.  1.
         22    1    1    2    0    0 -0.11007013649E+04 -0.43935233109E+03 -0.13140999543E+04  0.17695854473E+04  0.00000000000E+00 0.  1.
<mgrwt>
<rscale>  0 0.38885870E+04</rscale>
<asrwt>0</asrwt>
<pdfrwt beam="1">  1        2 0.26478897E+00 0.38885870E+04</pdfrwt>
<pdfrwt beam="2">  1       -2 0.33790689E+00 0.38885870E+04</pdfrwt>
<totfact> 0.14076983E-01</totfact>
</mgrwt>
</event>
<event>
 6    1  0.1585031E-006  0.2497831E+04  0.7818608E-02  0.8403759E-01
         -2   -1    0    0    0  501 -0.00000000000E+00  0.00000000000E+00  0.66151450891E+03  0.66151450891E+03  0.00000000000E+00 0.  1.
          2   -1    0    0  501    0  0.00000000000E+00 -0.00000000000E+00 -0.23579075029E+04  0.23579075029E+04  0.00000000000E+00 0. -1.
         23    2    1    2    0    0  0.66091513820E+03  0.57376346580E+03 -0.19235291805E+04  0.21152073350E+04  0.90134496392E+02 0.  0.
         13    1    3    3    0    0  0.27028293029E+03  0.19433957217E+03 -0.80652730652E+03  0.87252909859E+03  0.00000000000E+00 0.  1.
        -13    1    3    3    0    0  0.39063220791E+03  0.37942389363E+03 -0.11170018740E+04  0.12426782364E+04  0.00000000000E+00 0. -1.
         22    1    1    2    0    0 -0.66091513820E+03 -0.57376346580E+03  0.22713618645E+03  0.90421467682E+03  0.00000000000E+00 0.  1.
<mgrwt>
<rscale>  0 0.24978311E+04</rscale>
<asrwt>0</asrwt>
<pdfrwt beam="1">  1        2 0.36275500E+00 0.24978311E+04</pdfrwt>
<pdfrwt beam="2">  1       -2 0.10177146E+00 0.24978311E+04</pdfrwt>
<totfact> 0.29689867E+00</totfact>
</mgrwt>
</event>
<event>
 6    1  0.1585031E-006  0.7027059E+03  0.7818608E-02  0.9712616E-01
         -2   -1    0    0    0  501 -0.00000000000E+00  0.00000000000E+00  0.71625416998E+02  0.71625416998E+02  0.00000000000E+00 0.  1.
          2   -1    0    0  501    0  0.00000000000E+00 -0.00000000000E+00 -0.17235348883E+04  0.17235348883E+04  0.00000000000E+00 0. -1.
         23    2    1    2    0    0  0.32998266847E+03  0.11108820353E+02 -0.58976150618E+03  0.68287874599E+03  0.97430899433E+02 0.  0.
         13    1    3    3    0    0  0.25564728455E+03 -0.32865000026E+02 -0.43362362730E+03  0.50444533150E+03  0.00000000000E+00 0. -1.
        -13    1    3    3    0    0  0.74335383918E+02  0.43973820379E+02 -0.15613787889E+03  0.17843341448E+03  0.00000000000E+00 0.  1.
         22    1    1    2    0    0 -0.32998266847E+03 -0.11108820353E+02 -0.10621479651E+04  0.11122815593E+04  0.00000000000E+00 0. -1.
<mgrwt>
<rscale>  0 0.70270593E+03</rscale>
<asrwt>0</asrwt>
<pdfrwt beam="1">  1        2 0.26515916E+00 0.70270593E+03</pdfrwt>
<pdfrwt beam="2">  1       -2 0.11019297E-01 0.70270593E+03</pdfrwt>
<totfact> 0.56837335E+02</totfact>
</mgrwt>
</event>
<event>
 6    1  0.1585031E-006  0.1091550E+04  0.7818608E-02  0.9213467E-01
          2   -1    0    0  501    0  0.00000000000E+00  0.00000000000E+00  0.13003925542E+04  0.13003925542E+04  0.00000000000E+00 0. -1.
         -2   -1    0    0    0  501 -0.00000000000E+00 -0.00000000000E+00 -0.22906197792E+03  0.22906197792E+03  0.00000000000E+00 0.  1.
         23    2    1    2    0    0  0.40406838441E+03 -0.12901207907E+03  0.10121621353E+04  0.11011832626E+04  0.90647746711E+02 0.  0.
         11    1    3    3    0    0  0.18611551017E+03 -0.10682080471E+03  0.49090106451E+03  0.53575509571E+03  0.00000000000E+00 0. -1.
        -11    1    3    3    0    0  0.21795287424E+03 -0.22191274358E+02  0.52126107077E+03  0.56542816692E+03  0.00000000000E+00 0.  1.
         22    1    1    2    0    0 -0.40406838441E+03  0.12901207907E+03  0.59168440954E+02  0.42827126945E+03  0.00000000000E+00 0.  1.
<mgrwt>
<rscale>  0 0.10915503E+04</rscale>
<asrwt>0</asrwt>
<pdfrwt beam="1">  1        2 0.20006039E+00 0.10915503E+04</pdfrwt>
<pdfrwt beam="2">  1       -2 0.35240305E-01 0.10915503E+04</pdfrwt>
<totfact> 0.12397578E+02</totfact>
</mgrwt>
</event>
<event>
 6    1  0.1585031E-006  0.2379827E+04  0.7818608E-02  0.8447095E-01
         -1   -1    0    0    0  501 -0.00000000000E+00  0.00000000000E+00  0.71727485909E+03  0.71727485909E+03  0.00000000000E+00 0.  1.
          1   -1    0    0  501    0  0.00000000000E+00 -0.00000000000E+00 -0.19739907823E+04  0.19739907823E+04  0.00000000000E+00 0. -1.
         23    2    1    2    0    0  0.11872078208E+03  0.23516781403E+03 -0.19396800787E+04  0.19592556944E+04  0.83219849927E+02 0.  0.
         13    1    3    3    0    0  0.94044507010E+02  0.11250220337E+03 -0.86831624271E+03  0.88061013645E+03  0.00000000000E+00 0.  1.
        -13    1    3    3    0    0  0.24676275072E+02  0.12266561067E+03 -0.10713638360E+04  0.10786455579E+04  0.00000000000E+00 0. -1.
         22    1    1    2    0    0 -0.11872078208E+03 -0.23516781403E+03  0.68296415548E+03  0.73200994701E+03  0.00000000000E+00 0.  1.
<mgrwt>
<rscale>  0 0.23798269E+04</rscale>
<asrwt>0</asrwt>
<pdfrwt beam="1">  1        1 0.30369089E+00 0.23798269E+04</pdfrwt>
<pdfrwt beam="2">  1       -1 0.11034998E+00 0.23798269E+04</pdfrwt>
<totfact> 0.21099574E+00</totfact>
</mgrwt>
</event>
<event>
 6    1  0.1585031E-006  0.7122409E+03  0.7818608E-02  0.9696525E-01
         -2   -1    0    0    0  501 -0.00000000000E+00  0.00000000000E+00  0.11543604210E+03  0.11543604210E+03  0.00000000000E+00 0.  1.
          2   -1    0    0  501    0  0.00000000000E+00 -0.00000000000E+00 -0.10986323387E+04  0.10986323387E+04  0.00000000000E+00 0. -1.
         23    2    1    2    0    0 -0.25681898355E+03  0.10773578477E+03 -0.13725993907E+03  0.32346672426E+03  0.90705243509E+02 0.  0.
         11    1    3    3    0    0 -0.15169419245E+03  0.46799697340E+02 -0.12360030829E+03  0.20119238531E+03  0.00000000000E+00 0. -1.
        -11    1    3    3    0    0 -0.10512479109E+03  0.60936087425E+02 -0.13659630776E+02  0.12227433895E+03  0.00000000000E+00 0.  1.
         22    1    1    2    0    0  0.25681898355E+03 -0.10773578477E+03 -0.84593635757E+03  0.89060165658E+03  0.00000000000E+00 0. -1.
<mgrwt>
<rscale>  0 0.71224088E+03</rscale>
<asrwt>0</asrwt>
<pdfrwt beam="1">  1        2 0.16902036E+00 0.71224088E+03</pdfrwt>
<pdfrwt beam="2">  1       -2 0.17759391E-01 0.71224088E+03</pdfrwt>
<totfact> 0.57737860E+02</totfact>
</mgrwt>
</event>
<event>
 6    1  0.1585031E-006  0.3128193E+04  0.7818608E-02  0.8208043E-01
         -1   -1    0    0    0  501 -0.00000000000E+00  0.00000000000E+00  0.11936796344E+04  0.11936796344E+04  0.00000000000E+00 0.  1.
          1   -1    0    0  501    0  0.00000000000E+00 -0.00000000000E+00 -0.20494595239E+04  0.20494595239E+04  0.00000000000E+00 0. -1.
         23    2    1    2    0    0  0.13853604538E+04 -0.69917546663E+03 -0.23667034976E+03  0.15724008358E+04  0.91441860648E+02 0.  0.
         11    1    3    3    0    0  0.10306272148E+04 -0.52261052029E+03 -0.21633150169E+03  0.11756332466E+04  0.00000000000E+00 0.  1.
        -11    1    3    3    0    0  0.35473323898E+03 -0.17656494634E+03 -0.20338848073E+02  0.39676758922E+03  0.00000000000E+00 0. -1.
         22    1    1    2    0    0 -0.13853604538E+04  0.69917546663E+03 -0.61910953979E+03  0.16707383225E+04  0.00000000000E+00 0. -1.
<mgrwt>
<rscale>  0 0.31281931E+04</rscale>
<asrwt>0</asrwt>
<pdfrwt beam="1">  1        1 0.31530146E+00 0.31281931E+04</pdfrwt>
<pdfrwt beam="2">  1       -1 0.18364302E+00 0.31281931E+04</pdfrwt>
<totfact> 0.45503815E-01</totfact>
</mgrwt>
</event>
<event>
 6    1  0.1585031E-006  0.1320541E+04  0.7818608E-02  0.9013432E-01
          2   -1    0    0  501    0  0.00000000000E+00  0.00000000000E+00  0.22991740328E+04  0.22991740328E+04  0.00000000000E+00 0. -1.
         -2   -1    0    0    0  501 -0.00000000000E+00 -0.00000000000E+00 -0.18961479043E+03  0.18961479043E+03  0.00000000000E+00 0.  1.
         23    2    1    2    0    0  0.10582878126E+02 -0.90261831219E+02  0.22863627555E+04  0.22899957707E+04  0.91470131520E+02 0.  0.
         13    1    3    3    0    0 -0.38217098339E+02 -0.54032156212E+02  0.99056221297E+03  0.99277062722E+03  0.00000000000E+00 0.  1.
        -13    1    3    3    0    0  0.48799976465E+02 -0.36229675007E+02  0.12958005425E+04  0.12972251435E+04  0.00000000000E+00 0. -1.
         22    1    1    2    0    0 -0.10582878126E+02  0.90261831219E+02 -0.17680351308E+03  0.19879305250E+03  0.00000000000E+00 0.  1.
<mgrwt>
<rscale>  0 0.13205414E+04</rscale>
<asrwt>0</asrwt>
<pdfrwt beam="1">  1        2 0.35371906E+00 0.13205414E+04</pdfrwt>
<pdfrwt beam="2">  1       -2 0.29171508E-01 0.13205414E+04</pdfrwt>
<totfact> 0.48124495E+01</totfact>
</mgrwt>
</event>
<event>
 6    1  0.1585031E-006  0.2134845E+04  0.7818608E-02  0.8546047E-01
          3   -1    0    0  501    0  0.00000000000E+00  0.00000000000E+00  0.13898782504E+04  0.13898782504E+04  0.00000000000E+00 0. -1.
         -3   -1    0    0    0  501 -0.00000000000E+00 -0.00000000000E+00 -0.81977726419E+03  0.81977726419E+03  0.00000000000E+00 0.  1.
         23    2    1    2    0    0  0.17641737780E+03  0.14687317314E+03 -0.79133731073E+03  0.82900021489E+03  0.91278676356E+02 0.  0.
         13    1    3    3    0    0  0.68217866191E+02  0.11198707271E+03 -0.47869124890E+03  0.49632659963E+03  0.00000000000E+00 0. -1.
        -13    1    3    3    0    0  0.10819951161E+03  0.34886100423E+02 -0.31264606183E+03  0.33267361527E+03  0.00000000000E+00 0.  1.
         22    1    1    2    0    0 -0.17641737780E+03 -0.14687317314E+03  0.13614382970E+04  0.13806552997E+04  0.00000000000E+00 0. -1.
<mgrwt>
<rscale>  0 0.21348448E+04</rscale>
<asrwt>0</asrwt>
<pdfrwt beam="1">  1        3 0.21382742E+00 0.21348448E+04</pdfrwt>
<pdfrwt beam="2">  1       -3 0.12611958E+00 0.21348448E+04</pdfrwt>
<totfact> 0.14511802E-01</totfact>
</mgrwt>
</event>
<event>
 6    1  0.1585031E-006  0.7025779E+03  0.7818608E-02  0.9712834E-01
         -2   -1    0    0    0  501 -0.00000000000E+00  0.00000000000E+00  0.10938797334E+03  0.10938797334E+03  0.00000000000E+00 0. -1.
          2   -1    0    0  501    0  0.00000000000E+00 -0.00000000000E+00 -0.11281307793E+04  0.11281307793E+04  0.00000000000E+00 0.  1.
         23    2    1    2    0    0  0.29550528123E+03 -0.14309144051E+03 -0.33605893953E+03  0.47998605166E+03  0.98246971304E+02 0.  0.
         13    1    3    3    0    0  0.22047400904E+03 -0.14500706777E+03 -0.28921642581E+03  0.39151242550E+03  0.00000000000E+00 0.  1.
        -13    1    3    3    0    0  0.75031272186E+02  0.19156272622E+01 -0.46842513723E+02  0.88473626158E+02  0.00000000000E+00 0. -1.
         22    1    1    2    0    0 -0.29550528123E+03  0.14309144051E+03 -0.68268386644E+03  0.75753270100E+03  0.00000000000E+00 0.  1.
<mgrwt>
<rscale>  0 0.70257794E+03</rscale>
<asrwt>0</asrwt>
<pdfrwt beam="1">  1        2 0.17355857E+00 0.70257794E+03</pdfrwt>
<pdfrwt beam="2">  1       -2 0.16828920E-01 0.70257794E+03</pdfrwt>
<totfact> 0.60789592E+02</totfact>
</mgrwt>
</event>
<event>
 6    1  0.1585031E-006  0.2123755E+04  0.7818608E-02  0.8550851E-01
          2   -1    0    0  501    0  0.00000000000E+00  0.00000000000E+00  0.17583494401E+04  0.17583494401E+04  0.00000000000E+00 0. -1.
         -2   -1    0    0    0  501 -0.00000000000E+00 -0.00000000000E+00 -0.64127380121E+03  0.64127380121E+03  0.00000000000E+00 0.  1.
         23    2    1    2    0    0 -0.59556964887E+03  0.73457029034E+03  0.10994172080E+04  0.14537857614E+04  0.10236271205E+03 0.  0.
         11    1    3    3    0    0 -0.86589597787E+02  0.12777532871E+03  0.23746635914E+03  0.28322175904E+03  0.00000000000E+00 0. -1.
        -11    1    3    3    0    0 -0.50898005108E+03  0.60679496163E+03  0.86195084884E+03  0.11705640024E+04  0.00000000000E+00 0.  1.
         22    1    1    2    0    0  0.59556964887E+03 -0.73457029034E+03  0.17658430877E+02  0.94583747985E+03  0.00000000000E+00 0.  1.
<mgrwt>
<rscale>  0 0.21237546E+04</rscale>
<asrwt>0</asrwt>
<pdfrwt beam="1">  1        2 0.27051530E+00 0.21237546E+04</pdfrwt>
<pdfrwt beam="2">  1       -2 0.98657508E-01 0.21237546E+04</pdfrwt>
<totfact> 0.71389622E+00</totfact>
</mgrwt>
</event>
<event>
 6    1  0.1585031E-006  0.1107593E+04  0.7818608E-02  0.9197822E-01
          2   -1    0    0  501    0  0.00000000000E+00  0.00000000000E+00  0.80126230560E+03  0.80126230560E+03  0.00000000000E+00 0. -1.
         -2   -1    0    0    0  501 -0.00000000000E+00 -0.00000000000E+00 -0.38275950181E+03  0.38275950181E+03  0.00000000000E+00 0.  1.
         23    2    1    2    0    0  0.34607123365E+02  0.13953982080E+03  0.77827650038E+03  0.79658648721E+03  0.90369828925E+02 0.  0.
         13    1    3    3    0    0  0.33408934425E+02  0.19822350614E+02  0.34137073418E+03  0.34357395221E+03  0.00000000000E+00 0. -1.
        -13    1    3    3    0    0  0.11981889396E+01  0.11971747018E+03  0.43690576620E+03  0.45301253500E+03  0.00000000000E+00 0.  1.
         22    1    1    2    0    0 -0.34607123365E+02 -0.13953982080E+03 -0.35977369659E+03  0.38743532020E+03  0.00000000000E+00 0.  1.
<mgrwt>
<rscale>  0 0.11075934E+04</rscale>
<asrwt>0</asrwt>
<pdfrwt beam="1">  1        2 0.12327112E+00 0.11075934E+04</pdfrwt>
<pdfrwt beam="2">  1       -2 0.58886077E-01 0.11075934E+04</pdfrwt>
<totfact> 0.91949026E+01</totfact>
</mgrwt>
</event>
<event>
 6    1  0.1585031E-006  0.1633668E+04  0.7818608E-02  0.8800127E-01
          1   -1    0    0  501    0  0.00000000000E+00  0.00000000000E+00  0.37101232653E+03  0.37101232653E+03  0.00000000000E+00 0. -1.
         -1   -1    0    0    0  501 -0.00000000000E+00 -0.00000000000E+00 -0.17983708637E+04  0.17983708637E+04  0.00000000000E+00 0.  1.
         23    2    1    2    0    0 -0.23387178068E+03  0.37697049036E+03 -0.16227371928E+04  0.16846403930E+04  0.89075789987E+02 0.  0.
         11    1    3    3    0    0 -0.96806742501E+02  0.22286493065E+03 -0.77624465385E+03  0.81338556991E+03  0.00000000000E+00 0. -1.
        -11    1    3    3    0    0 -0.13706503818E+03  0.15410555971E+03 -0.84649253892E+03  0.87125482304E+03  0.00000000000E+00 0.  1.
         22    1    1    2    0    0  0.23387178068E+03 -0.37697049036E+03  0.19537865563E+03  0.48474279724E+03  0.00000000000E+00 0. -1.
<mgrwt>
<rscale>  0 0.16336680E+04</rscale>
<asrwt>0</asrwt>
<pdfrwt beam="1">  1        1 0.57078820E-01 0.16336680E+04</pdfrwt>
<pdfrwt beam="2">  1       -1 0.27667244E+00 0.16336680E+04</pdfrwt>
<totfact> 0.29705959E+00</totfact>
</mgrwt>
</event>
<event>
 6    1  0.1585031E-006  0.2815818E+04  0.7818608E-02  0.8298374E-01
          2   -1    0    0  501    0  0.00000000000E+00  0.00000000000E+00  0.11151713194E+04  0.11151713194E+04  0.00000000000E+00 0. -1.
         -2   -1    0    0    0  501 -0.00000000000E+00 -0.00000000000E+00 -0.17774915665E+04  0.17774915665E+04  0.00000000000E+00 0.  1.
         23    2    1    2    0    0 -0.22375088585E+03  0.40169720188E+03 -0.16969906796E+04  0.17604226265E+04  0.88799528845E+02 0.  0.
         13    1    3    3    0    0 -0.11999713141E+03  0.26843857244E+03 -0.12008550670E+04  0.12363298389E+04  0.00000000000E+00 0. -1.
        -13    1    3    3    0    0 -0.10375375443E+03  0.13325862944E+03 -0.49613561266E+03  0.52409278761E+03  0.00000000000E+00 0.  1.
         22    1    1    2    0    0  0.22375088585E+03 -0.40169720188E+03  0.10346704326E+04  0.11322402594E+04  0.00000000000E+00 0. -1.
<mgrwt>
<rscale>  0 0.28158179E+04</rscale>
<asrwt>0</asrwt>
<pdfrwt beam="1">  1        2 0.17156482E+00 0.28158179E+04</pdfrwt>
<pdfrwt beam="2">  1       -2 0.27346024E+00 0.28158179E+04</pdfrwt>
<totfact> 0.85539841E-01</totfact>
</mgrwt>
</event>
<event>
 6    1  0.1585031E-006  0.1191746E+04  0.7818608E-02  0.9120112E-01
          2   -1    0    0  501    0  0.00000000000E+00  0.00000000000E+00  0.56743358986E+03  0.56743358986E+03  0.00000000000E+00 0. -1.
         -2   -1    0    0    0  501 -0.00000000000E+00 -0.00000000000E+00 -0.62573732244E+03  0.62573732244E+03  0.00000000000E+00 0.  1.
         23    2    1    2    0    0  0.94350893315E+02  0.48431972795E+03 -0.35747544284E+03  0.61613416982E+03  0.91460007876E+02 0.  0.
         13    1    3    3    0    0  0.83734110773E+02  0.19406195538E+03 -0.15336366542E+03  0.26113570745E+03  0.00000000000E+00 0.  1.
        -13    1    3    3    0    0  0.10616782541E+02  0.29025777256E+03 -0.20411177742E+03  0.35499846237E+03  0.00000000000E+00 0. -1.
         22    1    1    2    0    0 -0.94350893315E+02 -0.48431972795E+03  0.29917171026E+03  0.57703674248E+03  0.00000000000E+00 0. -1.
<mgrwt>
<rscale>  0 0.11917456E+04</rscale>
<asrwt>0</asrwt>
<pdfrwt beam="1">  1        2 0.87297475E-01 0.11917456E+04</pdfrwt>
<pdfrwt beam="2">  1       -2 0.96267281E-01 0.11917456E+04</pdfrwt>
<totfact> 0.47329852E+01</totfact>
</mgrwt>
</event>
<event>
 6    1  0.2563972E-006  0.3720332E+04  0.7818608E-02  0.8063471E-01
         -2   -1    0    0    0  501 -0.00000000000E+00  0.00000000000E+00  0.17393213483E+04  0.17393213483E+04  0.00000000000E+00 0. -1.
          2   -1    0    0  501    0  0.00000000000E+00 -0.00000000000E+00 -0.19894071545E+04  0.19894071545E+04  0.00000000000E+00 0.  1.
         23    2    1    2    0    0 -0.99268061779E+03 -0.24030667121E+03 -0.16822771625E+04  0.19696565354E+04  0.79550682020E+02 0.  0.
         13    1    3    3    0    0 -0.33537451447E+03 -0.97790099959E+02 -0.51079735211E+03  0.61883188632E+03  0.00000000000E+00 0. -1.
        -13    1    3    3    0    0 -0.65730610332E+03 -0.14251657125E+03 -0.11714798104E+04  0.13508246491E+04  0.00000000000E+00 0.  1.
         22    1    1    2    0    0  0.99268061779E+03  0.24030667121E+03  0.14321913563E+04  0.17590719673E+04  0.00000000000E+00 0. -1.
<mgrwt>
<rscale>  0 0.37203324E+04</rscale>
<asrwt>0</asrwt>
<pdfrwt beam="1">  1        2 0.30606264E+00 0.37203324E+04</pdfrwt>
<pdfrwt beam="2">  1       -2 0.26758790E+00 0.37203324E+04</pdfrwt>
<totfact> 0.27407241E-01</totfact>
</mgrwt>
</event>
<event>
 6    1  0.1585031E-006  0.1114315E+04  0.7818608E-02  0.9191351E-01
         -2   -1    0    0    0  501 -0.00000000000E+00  0.00000000000E+00  0.47814301638E+03  0.47814301638E+03  0.00000000000E+00 0.  1.
          2   -1    0    0  501    0  0.00000000000E+00 -0.00000000000E+00 -0.64922942744E+03  0.64922942744E+03  0.00000000000E+00 0. -1.
         23    2    1    2    0    0  0.35563739358E+03  0.38421096027E+03  0.96269044641E+02  0.53951620511E+03  0.87829316947E+02 0.  0.
         11    1    3    3    0    0  0.16891600568E+03  0.20015847614E+03  0.51786770212E+01  0.26195963667E+03  0.00000000000E+00 0. -1.
        -11    1    3    3    0    0  0.18672138790E+03  0.18405248413E+03  0.91090367620E+02  0.27755656844E+03  0.00000000000E+00 0.  1.
         22    1    1    2    0    0 -0.35563739358E+03 -0.38421096027E+03 -0.26735545570E+03  0.58785623871E+03  0.00000000000E+00 0. -1.
<mgrwt>
<rscale>  0 0.11143151E+04</rscale>
<asrwt>0</asrwt>
<pdfrwt beam="1">  1        2 0.99881451E-01 0.11143151E+04</pdfrwt>
<pdfrwt beam="2">  1       -2 0.73560464E-01 0.11143151E+04</pdfrwt>
<totfact> 0.74503037E+01</totfact>
</mgrwt>
</event>
<event>
 6    1  0.1585031E-006  0.3351820E+04  0.7818608E-02  0.8149833E-01
          2   -1    0    0  501    0  0.00000000000E+00  0.00000000000E+00  0.18621152231E+04  0.18621152231E+04  0.00000000000E+00 0. -1.
         -2   -1    0    0    0  501 -0.00000000000E+00 -0.00000000000E+00 -0.15083249021E+04  0.15083249021E+04  0.00000000000E+00 0.  1.
         23    2    1    2    0    0  0.44522724730E+03 -0.13309704500E+04  0.10956843392E+04  0.17829526844E+04  0.93201198047E+02 0.  0.
         11    1    3    3    0    0  0.29564578311E+03 -0.92878462708E+03  0.81128629920E+03  0.12681611774E+04  0.00000000000E+00 0.  1.
        -11    1    3    3    0    0  0.14958146418E+03 -0.40218582290E+03  0.28439803998E+03  0.51479150703E+03  0.00000000000E+00 0. -1.
         22    1    1    2    0    0 -0.44522724730E+03  0.13309704500E+04 -0.74189401815E+03  0.15874874408E+04  0.00000000000E+00 0.  1.
<mgrwt>
<rscale>  0 0.33518203E+04</rscale>
<asrwt>0</asrwt>
<pdfrwt beam="1">  1        2 0.28647927E+00 0.33518203E+04</pdfrwt>
<pdfrwt beam="2">  1       -2 0.23204998E+00 0.33518203E+04</pdfrwt>
<totfact> 0.55029994E-01</totfact>
</mgrwt>
</event>
<event>
 6    1  0.1585031E-006  0.1143526E+04  0.7818608E-02  0.9163777E-01
          1   -1    0    0  501    0  0.00000000000E+00  0.00000000000E+00  0.14863007569E+04  0.14863007569E+04  0.00000000000E+00 0. -1.
         -1   -1    0    0    0  501 -0.00000000000E+00 -0.00000000000E+00 -0.21995056164E+03  0.21995056164E+03  0.00000000000E+00 0.  1.
         23    2    1    2    0    0 -0.96107469231E+02 -0.55897889808E+03  0.58993029480E+03  0.82350677118E+03  0.91932558507E+02 0.  0.
         13    1    3    3    0    0 -0.71986230890E+02 -0.17392426443E+03  0.17686559497E+03  0.25828880324E+03  0.00000000000E+00 0.  1.
        -13    1    3    3    0    0 -0.24121238341E+02 -0.38505463365E+03  0.41306469984E+03  0.56521796795E+03  0.00000000000E+00 0. -1.
         22    1    1    2    0    0  0.96107469231E+02  0.55897889808E+03  0.67641990042E+03  0.88274454732E+03  0.00000000000E+00 0. -1.
<mgrwt>
<rscale>  0 0.11435256E+04</rscale>
<asrwt>0</asrwt>
<pdfrwt beam="1">  1        1 0.22866165E+00 0.11435256E+04</pdfrwt>
<pdfrwt beam="2">  1       -1 0.33838549E-01 0.11435256E+04</pdfrwt>
<totfact> 0.54751136E+01</totfact>
</mgrwt>
</event>
<event>
 6    1  0.1585031E-006  0.9011008E+03  0.7818608E-02  0.9424206E-01
         -2   -1    0    0    0  501 -0.00000000000E+00  0.00000000000E+00  0.11931072112E+03  0.11931072112E+03  0.00000000000E+00 0.  1.
          2   -1    0    0  501    0  0.00000000000E+00 -0.00000000000E+00 -0.17014033393E+04  0.17014033393E+04  0.00000000000E+00 0. -1.
         23    2    1    2    0    0 -0.13820641479E+03  0.23817126581E+03 -0.90697455552E+02  0.30411058684E+03  0.91818601803E+02 0.  0.
         11    1    3    3    0    0 -0.30017932973E+02  0.72603950113E+02  0.14808575601E+02  0.79948131832E+02  0.00000000000E+00 0.  1.
        -11    1    3    3    0    0 -0.10818848182E+03  0.16556731569E+03 -0.10550603115E+03  0.22416245501E+03  0.00000000000E+00 0. -1.
         22    1    1    2    0    0  0.13820641479E+03 -0.23817126581E+03 -0.14913951627E+04  0.15166034736E+04  0.00000000000E+00 0. -1.
<mgrwt>
<rscale>  0 0.90110079E+03</rscale>
<asrwt>0</asrwt>
<pdfrwt beam="1">  1        2 0.26175436E+00 0.90110079E+03</pdfrwt>
<pdfrwt beam="2">  1       -2 0.18355496E-01 0.90110079E+03</pdfrwt>
<totfact> 0.24426650E+02</totfact>
</mgrwt>
</event>
<event>
 6    1  0.1585031E-006  0.1453116E+04  0.7818608E-02  0.8916243E-01
         -1   -1    0    0    0  501 -0.00000000000E+00  0.00000000000E+00  0.10851079191E+04  0.10851079191E+04  0.00000000000E+00 0.  1.
          1   -1    0    0  501    0  0.00000000000E+00 -0.00000000000E+00 -0.48648282018E+03  0.48648282018E+03  0.00000000000E+00 0. -1.
         23    2    1    2    0    0  0.46767469779E+03  0.48419823687E+02 -0.29457681190E+03  0.56219797342E+03  0.90702596029E+02 0.  0.
         11    1    3    3    0    0  0.44865518011E+02  0.29127320864E+02 -0.17332027225E+02  0.56229126748E+02  0.00000000000E+00 0.  1.
        -11    1    3    3    0    0  0.42280917978E+03  0.19292502823E+02 -0.27724478467E+03  0.50596884667E+03  0.00000000000E+00 0. -1.
         22    1    1    2    0    0 -0.46767469779E+03 -0.48419823687E+02  0.89320191083E+03  0.10093927659E+04  0.00000000000E+00 0.  1.
<mgrwt>
<rscale>  0 0.14531158E+04</rscale>
<asrwt>0</asrwt>
<pdfrwt beam="1">  1        1 0.74843511E-01 0.14531158E+04</pdfrwt>
<pdfrwt beam="2">  1       -1 0.16693968E+00 0.14531158E+04</pdfrwt>
<totfact> 0.11585135E+01</totfact>
</mgrwt>
</event>
<event>
 6    1  0.1585031E-006  0.1477892E+04  0.7818608E-02  0.8899289E-01
         -2   -1    0    0    0  501 -0.00000000000E+00  0.00000000000E+00  0.16774995405E+03  0.16774995405E+03  0.00000000000E+00 0.  1.
          2   -1    0    0  501    0  0.00000000000E+00 -0.00000000000E+00 -0.32550906610E+04  0.32550906610E+04  0.00000000000E+00 0. -1.
         23    2    1    2    0    0 -0.53781182075E+03 -0.45505125360E+03 -0.20439584367E+04  0.21638887654E+04  0.91297863896E+02 0.  0.
         11    1    3    3    0    0 -0.42131413146E+03 -0.39028043955E+03 -0.17290364843E+04  0.18219197520E+04  0.00000000000E+00 0.  1.
        -11    1    3    3    0    0 -0.11649768929E+03 -0.64770814048E+02 -0.31492195245E+03  0.34196901335E+03  0.00000000000E+00 0. -1.
         22    1    1    2    0    0  0.53781182075E+03  0.45505125360E+03 -0.10433822702E+04  0.12589518497E+04  0.00000000000E+00 0.  1.
<mgrwt>
<rscale>  0 0.14778922E+04</rscale>
<asrwt>0</asrwt>
<pdfrwt beam="1">  1        2 0.50078322E+00 0.14778922E+04</pdfrwt>
<pdfrwt beam="2">  1       -2 0.25807683E-01 0.14778922E+04</pdfrwt>
<totfact> 0.15806415E+01</totfact>
</mgrwt>
</event>
<event>
 6    1  0.1585031E-006  0.9699778E+03  0.7818608E-02  0.9342100E-01
         -2   -1    0    0    0  501 -0.00000000000E+00  0.00000000000E+00  0.22606363025E+03  0.22606363025E+03  0.00000000000E+00 0.  1.
          2   -1    0    0  501    0  0.00000000000E+00 -0.00000000000E+00 -0.10404779188E+04  0.10404779188E+04  0.00000000000E+00 0. -1.
         23    2    1    2    0    0 -0.23765911565E+03  0.25695620435E+02 -0.95533601907E+03  0.98905091082E+03  0.91720633935E+02 0.  0.
         11    1    3    3    0    0 -0.14799797382E+03  0.40396736529E+02 -0.44530652566E+03  0.47099171794E+03  0.00000000000E+00 0. -1.
        -11    1    3    3    0    0 -0.89661141831E+02 -0.14701116094E+02 -0.51002949341E+03  0.51805919287E+03  0.00000000000E+00 0.  1.
         22    1    1    2    0    0  0.23765911565E+03 -0.25695620435E+02  0.14092173054E+03  0.27749063822E+03  0.00000000000E+00 0.  1.
<mgrwt>
<rscale>  0 0.96997776E+03</rscale>
<asrwt>0</asrwt>
<pdfrwt beam="1">  1        2 0.16007353E+00 0.96997776E+03</pdfrwt>
<pdfrwt beam="2">  1       -2 0.34779020E-01 0.96997776E+03</pdfrwt>
<totfact> 0.18377418E+02</totfact>
</mgrwt>
</event>
<event>
 6    1  0.1585031E-006  0.3989374E+04  0.7818608E-02  0.8006694E-01
         -2   -1    0    0    0  501 -0.00000000000E+00  0.00000000000E+00  0.24462821267E+04  0.24462821267E+04  0.00000000000E+00 0.  1.
          2   -1    0    0  501    0  0.00000000000E+00 -0.00000000000E+00 -0.16264583061E+04  0.16264583061E+04  0.00000000000E+00 0. -1.
         23    2    1    2    0    0 -0.19008062245E+04  0.23265291275E+02 -0.20326443441E+03  0.19139641233E+04  0.91305302049E+02 0.  0.
         11    1    3    3    0    0 -0.47220289567E+02  0.14851686205E+02 -0.34618082034E+01  0.49621693300E+02  0.00000000000E+00 0.  1.
        -11    1    3    3    0    0 -0.18535859349E+04  0.84136050700E+01 -0.19980262621E+03  0.18643424300E+04  0.00000000000E+00 0. -1.
         22    1    1    2    0    0  0.19008062245E+04 -0.23265291275E+02  0.10230882550E+04  0.21587763095E+04  0.00000000000E+00 0.  1.
<mgrwt>
<rscale>  0 0.39893738E+04</rscale>
<asrwt>0</asrwt>
<pdfrwt beam="1">  1        2 0.25022435E+00 0.39893738E+04</pdfrwt>
<pdfrwt beam="2">  1       -2 0.37635110E+00 0.39893738E+04</pdfrwt>
<totfact> 0.89909136E-02</totfact>
</mgrwt>
</event>
<event>
 6    1  0.1585031E-006  0.2244591E+04  0.7818608E-02  0.8500094E-01
         -3   -1    0    0    0  501 -0.00000000000E+00  0.00000000000E+00  0.51974098369E+03  0.51974098369E+03  0.00000000000E+00 0.  1.
          3   -1    0    0  501    0  0.00000000000E+00 -0.00000000000E+00 -0.24234138348E+04  0.24234138348E+04  0.00000000000E+00 0. -1.
         23    2    1    2    0    0  0.66436650254E+03  0.72567787707E+03 -0.16564391882E+04  0.19287014115E+04  0.90039543829E+02 0.  0.
         13    1    3    3    0    0  0.43228388887E+03  0.49337239388E+03 -0.11798848905E+04  0.13499681606E+04  0.00000000000E+00 0. -1.
        -13    1    3    3    0    0  0.23208261366E+03  0.23230548319E+03 -0.47655429765E+03  0.57873325090E+03  0.00000000000E+00 0.  1.
         22    1    1    2    0    0 -0.66436650254E+03 -0.72567787707E+03 -0.24723366293E+03  0.10144534070E+04  0.00000000000E+00 0.  1.
<mgrwt>
<rscale>  0 0.22445913E+04</rscale>
<asrwt>0</asrwt>
<pdfrwt beam="1">  1        3 0.37283289E+00 0.22445913E+04</pdfrwt>
<pdfrwt beam="2">  1       -3 0.79960152E-01 0.22445913E+04</pdfrwt>
<totfact> 0.53822565E-02</totfact>
</mgrwt>
</event>
<event>
 6    1  0.1585031E-006  0.1053282E+04  0.7818608E-02  0.9251962E-01
          1   -1    0    0  501    0  0.00000000000E+00  0.00000000000E+00  0.78639259799E+03  0.78639259799E+03  0.00000000000E+00 0. -1.
         -1   -1    0    0    0  501 -0.00000000000E+00 -0.00000000000E+00 -0.35268735785E+03  0.35268735785E+03  0.00000000000E+00 0.  1.
         23    2    1    2    0    0  0.34201077091E+03  0.33190881785E+03 -0.38255287139E+01  0.49211163786E+03  0.12257405378E+03 0.  0.
         13    1    3    3    0    0  0.64022286594E+01  0.52311666615E+02  0.15299484234E+02  0.54877802559E+02  0.00000000000E+00 0. -1.
        -13    1    3    3    0    0  0.33560854225E+03  0.27959715124E+03 -0.19125012948E+02  0.43723383530E+03  0.00000000000E+00 0.  1.
         22    1    1    2    0    0 -0.34201077091E+03 -0.33190881785E+03  0.43753076885E+03  0.64696831798E+03  0.00000000000E+00 0. -1.
<mgrwt>
<rscale>  0 0.10532820E+04</rscale>
<asrwt>0</asrwt>
<pdfrwt beam="1">  1        1 0.12098348E+00 0.10532820E+04</pdfrwt>
<pdfrwt beam="2">  1       -1 0.54259594E-01 0.10532820E+04</pdfrwt>
<totfact> 0.77898042E+01</totfact>
</mgrwt>
</event>
<event>
 6    1  0.1585031E-006  0.8546575E+03  0.7818608E-02  0.9484107E-01
          2   -1    0    0  501    0  0.00000000000E+00  0.00000000000E+00  0.42912497213E+03  0.42912497213E+03  0.00000000000E+00 0. -1.
         -2   -1    0    0    0  501 -0.00000000000E+00 -0.00000000000E+00 -0.42554007704E+03  0.42554007704E+03  0.00000000000E+00 0.  1.
         23    2    1    2    0    0 -0.55655224263E+02 -0.38117103525E+03 -0.17030522034E+03  0.43202260650E+03  0.96181091425E+02 0.  0.
         11    1    3    3    0    0 -0.92983090726E+01 -0.82981005257E+02  0.38753564566E+01  0.83590215771E+02  0.00000000000E+00 0. -1.
        -11    1    3    3    0    0 -0.46356915191E+02 -0.29819002999E+03 -0.17418057680E+03  0.34843239073E+03  0.00000000000E+00 0.  1.
         22    1    1    2    0    0  0.55655224263E+02  0.38117103525E+03  0.17389011543E+03  0.42264244267E+03  0.00000000000E+00 0.  1.
<mgrwt>
<rscale>  0 0.85465753E+03</rscale>
<asrwt>0</asrwt>
<pdfrwt beam="1">  1        2 0.66019227E-01 0.85465753E+03</pdfrwt>
<pdfrwt beam="2">  1       -2 0.65467704E-01 0.85465753E+03</pdfrwt>
<totfact> 0.15876993E+02</totfact>
</mgrwt>
</event>
<event>
 6    1  0.1585031E-006  0.5719700E+03  0.7818608E-02  0.9965329E-01
         -2   -1    0    0    0  501 -0.00000000000E+00  0.00000000000E+00  0.10895269619E+03  0.10895269619E+03  0.00000000000E+00 0.  1.
          2   -1    0    0  501    0  0.00000000000E+00 -0.00000000000E+00 -0.75066916579E+03  0.75066916579E+03  0.00000000000E+00 0. -1.
         23    2    1    2    0    0 -0.71666980601E+02  0.25495259213E+03 -0.19603823959E+03  0.34119533387E+03  0.88579253375E+02 0.  0.
         13    1    3    3    0    0 -0.84791541102E+02  0.21853928657E+03 -0.13983144523E+03  0.27295028538E+03  0.00000000000E+00 0.  1.
        -13    1    3    3    0    0  0.13124560501E+02  0.36413305567E+02 -0.56206794360E+02  0.68245048487E+02  0.00000000000E+00 0. -1.
         22    1    1    2    0    0  0.71666980601E+02 -0.25495259213E+03 -0.44567823001E+03  0.51842652811E+03  0.00000000000E+00 0. -1.
<mgrwt>
<rscale>  0 0.57197003E+03</rscale>
<asrwt>0</asrwt>
<pdfrwt beam="1">  1        2 0.11548757E+00 0.57197003E+03</pdfrwt>
<pdfrwt beam="2">  1       -2 0.16761953E-01 0.57197003E+03</pdfrwt>
<totfact> 0.10907598E+03</totfact>
</mgrwt>
</event>
<event>
 6    1  0.1585031E-006  0.1098095E+04  0.7818608E-02  0.9207051E-01
         -2   -1    0    0    0  501 -0.00000000000E+00  0.00000000000E+00  0.32965590239E+03  0.32965590239E+03  0.00000000000E+00 0.  1.
          2   -1    0    0  501    0  0.00000000000E+00 -0.00000000000E+00 -0.91444786378E+03  0.91444786378E+03  0.00000000000E+00 0. -1.
         23    2    1    2    0    0  0.41013394556E+03 -0.33324755705E+03 -0.44645686380E+03  0.69784340077E+03  0.91640019590E+02 0.  0.
         11    1    3    3    0    0  0.27650317744E+03 -0.18158830807E+03 -0.23831159134E+03  0.40770177254E+03  0.00000000000E+00 0.  1.
        -11    1    3    3    0    0  0.13363076812E+03 -0.15165924898E+03 -0.20814527246E+03  0.29014162824E+03  0.00000000000E+00 0. -1.
         22    1    1    2    0    0 -0.41013394556E+03  0.33324755705E+03 -0.13833509759E+03  0.54626036540E+03  0.00000000000E+00 0. -1.
<mgrwt>
<rscale>  0 0.10980950E+04</rscale>
<asrwt>0</asrwt>
<pdfrwt beam="1">  1        2 0.14068429E+00 0.10980950E+04</pdfrwt>
<pdfrwt beam="2">  1       -2 0.50716292E-01 0.10980950E+04</pdfrwt>
<totfact> 0.10463426E+02</totfact>
</mgrwt>
</event>
<event>
 6    1  0.1585031E-006  0.2297714E+04  0.7818608E-02  0.8478823E-01
          1   -1    0    0  501    0  0.00000000000E+00  0.00000000000E+00  0.94841720402E+03  0.94841720402E+03  0.00000000000E+00 0. -1.
         -1   -1    0    0    0  501 -0.00000000000E+00 -0.00000000000E+00 -0.13916581197E+04  0.13916581197E+04  0.00000000000E+00 0.  1.
         23    2    1    2    0    0 -0.22633758408E+03  0.37979138295E+03 -0.12998961311E+04  0.13760585424E+04  0.91306976154E+02 0.  0.
         11    1    3    3    0    0 -0.11916105728E+03  0.27973428608E+03 -0.91387276290E+03  0.96312722688E+03  0.00000000000E+00 0. -1.
        -11    1    3    3    0    0 -0.10717652680E+03  0.10005709686E+03 -0.38602336817E+03  0.41293131548E+03  0.00000000000E+00 0.  1.
         22    1    1    2    0    0  0.22633758408E+03 -0.37979138295E+03  0.85665521544E+03  0.96401678132E+03  0.00000000000E+00 0. -1.
<mgrwt>
<rscale>  0 0.22977141E+04</rscale>
<asrwt>0</asrwt>
<pdfrwt beam="1">  1        1 0.14591034E+00 0.22977141E+04</pdfrwt>
<pdfrwt beam="2">  1       -1 0.21410125E+00 0.22977141E+04</pdfrwt>
<totfact> 0.18121436E+00</totfact>
</mgrwt>
</event>
<event>
 6    1  0.1585031E-006  0.2614736E+04  0.7818608E-02  0.8363213E-01
          2   -1    0    0  501    0  0.00000000000E+00  0.00000000000E+00  0.29770784097E+04  0.29770784097E+04  0.00000000000E+00 0. -1.
         -2   -1    0    0    0  501 -0.00000000000E+00 -0.00000000000E+00 -0.57412380766E+03  0.57412380766E+03  0.00000000000E+00 0.  1.
         23    2    1    2    0    0  0.11383353204E+04  0.63005579333E+03  0.10528957652E+04  0.16762524934E+04  0.91952839709E+02 0.  0.
         11    1    3    3    0    0  0.51164613202E+03  0.24543299862E+03  0.41840066141E+03  0.70503775408E+03  0.00000000000E+00 0. -1.
        -11    1    3    3    0    0  0.62668918843E+03  0.38462279471E+03  0.63449510375E+03  0.97121473927E+03  0.00000000000E+00 0.  1.
         22    1    1    2    0    0 -0.11383353204E+04 -0.63005579333E+03  0.13500588369E+04  0.18749497240E+04  0.00000000000E+00 0.  1.
<mgrwt>
<rscale>  0 0.26147364E+04</rscale>
<asrwt>0</asrwt>
<pdfrwt beam="1">  1        2 0.45801206E+00 0.26147364E+04</pdfrwt>
<pdfrwt beam="2">  1       -2 0.88326741E-01 0.26147364E+04</pdfrwt>
<totfact> 0.17543117E+00</totfact>
</mgrwt>
</event>
<event>
 6    1  0.1585031E-006  0.2546652E+04  0.7818608E-02  0.8386552E-01
          2   -1    0    0  501    0  0.00000000000E+00  0.00000000000E+00  0.29317020481E+04  0.29317020481E+04  0.00000000000E+00 0. -1.
         -2   -1    0    0    0  501 -0.00000000000E+00 -0.00000000000E+00 -0.55304360196E+03  0.55304360196E+03  0.00000000000E+00 0.  1.
         23    2    1    2    0    0 -0.42635210063E+03 -0.11636587615E+04  0.15810367096E+04  0.20109484247E+04  0.91425722608E+02 0.  0.
         11    1    3    3    0    0 -0.21334250548E+03 -0.71252670425E+03  0.94734800201E+03  0.12044407689E+04  0.00000000000E+00 0. -1.
        -11    1    3    3    0    0 -0.21300959515E+03 -0.45113205725E+03  0.63368870757E+03  0.80650765576E+03  0.00000000000E+00 0.  1.
         22    1    1    2    0    0  0.42635210063E+03  0.11636587615E+04  0.79762173657E+03  0.14737972254E+04  0.00000000000E+00 0.  1.
<mgrwt>
<rscale>  0 0.25466520E+04</rscale>
<asrwt>0</asrwt>
<pdfrwt beam="1">  1        2 0.45103108E+00 0.25466520E+04</pdfrwt>
<pdfrwt beam="2">  1       -2 0.85083633E-01 0.25466520E+04</pdfrwt>
<totfact> 0.20512517E+00</totfact>
</mgrwt>
</event>
<event>
 6    1  0.1585031E-006  0.2359332E+04  0.7818608E-02  0.8454888E-01
          2   -1    0    0  501    0  0.00000000000E+00  0.00000000000E+00  0.68689823908E+03  0.68689823908E+03  0.00000000000E+00 0.  1.
         -2   -1    0    0    0  501 -0.00000000000E+00 -0.00000000000E+00 -0.20259362302E+04  0.20259362302E+04  0.00000000000E+00 0. -1.
         23    2    1    2    0    0  0.52277758320E+03  0.93843064509E+03 -0.12261637249E+04  0.16327006456E+04  0.91024396136E+02 0.  0.
         13    1    3    3    0    0  0.28840565709E+03  0.59293378662E+03 -0.78837811239E+03  0.10277588951E+04  0.00000000000E+00 0. -1.
        -13    1    3    3    0    0  0.23437192611E+03  0.34549685848E+03 -0.43778561250E+03  0.60494175049E+03  0.00000000000E+00 0.  1.
         22    1    1    2    0    0 -0.52277758320E+03 -0.93843064509E+03 -0.11287426623E+03  0.10801338237E+04  0.00000000000E+00 0.  1.
<mgrwt>
<rscale>  0 0.23593321E+04</rscale>
<asrwt>0</asrwt>
<pdfrwt beam="1">  1        2 0.10567665E+00 0.23593321E+04</pdfrwt>
<pdfrwt beam="2">  1       -2 0.31168250E+00 0.23593321E+04</pdfrwt>
<totfact> 0.10206564E+00</totfact>
</mgrwt>
</event>
<event>
 6    1  0.1585031E-006  0.5707919E+03  0.7818608E-02  0.9967928E-01
         -1   -1    0    0    0  501 -0.00000000000E+00  0.00000000000E+00  0.74079242908E+02  0.74079242908E+02  0.00000000000E+00 0.  1.
          1   -1    0    0  501    0  0.00000000000E+00 -0.00000000000E+00 -0.10995096183E+04  0.10995096183E+04  0.00000000000E+00 0. -1.
         23    2    1    2    0    0  0.98900701459E+02 -0.23830458859E+03 -0.31253209444E+03  0.41543690765E+03  0.91329559806E+02 0.  0.
         13    1    3    3    0    0  0.67179805493E+02 -0.18084908878E+03 -0.28524349580E+03  0.34435936328E+03  0.00000000000E+00 0. -1.
        -13    1    3    3    0    0  0.31720895966E+02 -0.57455499805E+02 -0.27288598636E+02  0.71077544374E+02  0.00000000000E+00 0.  1.
         22    1    1    2    0    0 -0.98900701459E+02  0.23830458859E+03 -0.71289828095E+03  0.75815195355E+03  0.00000000000E+00 0.  1.
<mgrwt>
<rscale>  0 0.57079187E+03</rscale>
<asrwt>0</asrwt>
<pdfrwt beam="1">  1        1 0.16915533E+00 0.57079187E+03</pdfrwt>
<pdfrwt beam="2">  1       -1 0.11396807E-01 0.57079187E+03</pdfrwt>
<totfact> 0.66137833E+02</totfact>
</mgrwt>
</event>
<event>
 6    1  0.1585031E-006  0.2069590E+04  0.7818608E-02  0.8574759E-01
          1   -1    0    0  501    0  0.00000000000E+00  0.00000000000E+00  0.15584219043E+04  0.15584219043E+04  0.00000000000E+00 0. -1.
         -1   -1    0    0    0  501 -0.00000000000E+00 -0.00000000000E+00 -0.68710567768E+03  0.68710567768E+03  0.00000000000E+00 0.  1.
         23    2    1    2    0    0  0.51958113220E+03  0.59691058343E+03 -0.28311467074E+03  0.84589281021E+03  0.95466915842E+02 0.  0.
         11    1    3    3    0    0  0.21842751210E+03  0.22998956903E+03 -0.66309325694E+02  0.32404121123E+03  0.00000000000E+00 0. -1.
        -11    1    3    3    0    0  0.30115362010E+03  0.36692101441E+03 -0.21680534505E+03  0.52185159898E+03  0.00000000000E+00 0.  1.
         22    1    1    2    0    0 -0.51958113220E+03 -0.59691058343E+03  0.11544308973E+04  0.13996347718E+04  0.00000000000E+00 0.  1.
<mgrwt>
<rscale>  0 0.20695899E+04</rscale>
<asrwt>0</asrwt>
<pdfrwt beam="1">  1        1 0.23975722E+00 0.20695899E+04</pdfrwt>
<pdfrwt beam="2">  1       -1 0.10570857E+00 0.20695899E+04</pdfrwt>
<totfact> 0.46059603E+00</totfact>
</mgrwt>
</event>
<event>
 6    1  0.1585031E-006  0.3864719E+04  0.7818608E-02  0.8032407E-01
          1   -1    0    0  501    0  0.00000000000E+00  0.00000000000E+00  0.27141976403E+04  0.27141976403E+04  0.00000000000E+00 0.  1.
         -1   -1    0    0    0  501 -0.00000000000E+00 -0.00000000000E+00 -0.13757335720E+04  0.13757335720E+04  0.00000000000E+00 0. -1.
         23    2    1    2    0    0  0.75112564835E+03  0.14078806161E+04 -0.48167885467E+03  0.16693449550E+04  0.91545021668E+02 0.  0.
         13    1    3    3    0    0  0.47572964494E+03  0.84072389620E+03 -0.33079108126E+03  0.10210573462E+04  0.00000000000E+00 0. -1.
        -13    1    3    3    0    0  0.27539600342E+03  0.56715671988E+03 -0.15088777341E+03  0.64828760883E+03  0.00000000000E+00 0.  1.
         22    1    1    2    0    0 -0.75112564835E+03 -0.14078806161E+04  0.18201429230E+04  0.24205862573E+04  0.00000000000E+00 0.  1.
<mgrwt>
<rscale>  0 0.38647188E+04</rscale>
<asrwt>0</asrwt>
<pdfrwt beam="1">  1        1 0.41756887E+00 0.38647188E+04</pdfrwt>
<pdfrwt beam="2">  1       -1 0.21165132E+00 0.38647188E+04</pdfrwt>
<totfact> 0.95060597E-02</totfact>
</mgrwt>
</event>
<event>
 6    1  0.1585031E-006  0.3664281E+04  0.7818608E-02  0.8075924E-01
          1   -1    0    0  501    0  0.00000000000E+00  0.00000000000E+00  0.18277439980E+04  0.18277439980E+04  0.00000000000E+00 0. -1.
         -1   -1    0    0    0  501 -0.00000000000E+00 -0.00000000000E+00 -0.18365474385E+04  0.18365474385E+04  0.00000000000E+00 0.  1.
         23    2    1    2    0    0  0.48340139526E+03 -0.95853923951E+02  0.17592935440E+04  0.18287991782E+04  0.80794656353E+02 0.  0.
         13    1    3    3    0    0  0.79605054914E+02 -0.62915351319E+00  0.20008830326E+03  0.21534319052E+03  0.00000000000E+00 0.  1.
        -13    1    3    3    0    0  0.40379634035E+03 -0.95224770437E+02  0.15592052407E+04  0.16134559876E+04  0.00000000000E+00 0. -1.
         22    1    1    2    0    0 -0.48340139526E+03  0.95853923951E+02 -0.17680969845E+04  0.18354922583E+04  0.00000000000E+00 0.  1.
<mgrwt>
<rscale>  0 0.36642809E+04</rscale>
<asrwt>0</asrwt>
<pdfrwt beam="1">  1        1 0.28119139E+00 0.36642809E+04</pdfrwt>
<pdfrwt beam="2">  1       -1 0.28254576E+00 0.36642809E+04</pdfrwt>
<totfact> 0.13450928E-01</totfact>
</mgrwt>
</event>
<event>
 6    1  0.1585031E-006  0.1027452E+04  0.7818608E-02  0.9278938E-01
          2   -1    0    0  501    0  0.00000000000E+00  0.00000000000E+00  0.13965326499E+04  0.13965326499E+04  0.00000000000E+00 0. -1.
         -2   -1    0    0    0  501 -0.00000000000E+00 -0.00000000000E+00 -0.18897830800E+03  0.18897830800E+03  0.00000000000E+00 0.  1.
         23    2    1    2    0    0 -0.28451855930E+03  0.12179291763E+03  0.12334966633E+04  0.12749351549E+04  0.90339944436E+02 0.  0.
         11    1    3    3    0    0 -0.40051362378E+02  0.56516303342E+02  0.25197647489E+03  0.26132422022E+03  0.00000000000E+00 0.  1.
        -11    1    3    3    0    0 -0.24446719692E+03  0.65276614288E+02  0.98152018841E+03  0.10136109347E+04  0.00000000000E+00 0. -1.
         22    1    1    2    0    0  0.28451855930E+03 -0.12179291763E+03 -0.25942321360E+02  0.31057580300E+03  0.00000000000E+00 0.  1.
<mgrwt>
<rscale>  0 0.10274519E+04</rscale>
<asrwt>0</asrwt>
<pdfrwt beam="1">  1        2 0.21485117E+00 0.10274519E+04</pdfrwt>
<pdfrwt beam="2">  1       -2 0.29073587E-01 0.10274519E+04</pdfrwt>
<totfact> 0.15737793E+02</totfact>
</mgrwt>
</event>
<event>
 6    1  0.1585031E-006  0.3179181E+04  0.7818608E-02  0.8194337E-01
         -1   -1    0    0    0  501 -0.00000000000E+00  0.00000000000E+00  0.68898038473E+03  0.68898038473E+03  0.00000000000E+00 0.  1.
          1   -1    0    0  501    0  0.00000000000E+00 -0.00000000000E+00 -0.36674461084E+04  0.36674461084E+04  0.00000000000E+00 0. -1.
         23    2    1    2    0    0 -0.31561876875E+03  0.72551158768E+02 -0.36211550578E+04  0.36367540273E+04  0.91307310105E+02 0.  0.
         11    1    3    3    0    0 -0.27880978891E+03  0.65702320921E+02 -0.27689625433E+04  0.27837394382E+04  0.00000000000E+00 0.  1.
        -11    1    3    3    0    0 -0.36808979845E+02  0.68488378466E+01 -0.85219251443E+03  0.85301458910E+03  0.00000000000E+00 0. -1.
         22    1    1    2    0    0  0.31561876875E+03 -0.72551158768E+02  0.64268933413E+03  0.71967246580E+03  0.00000000000E+00 0.  1.
<mgrwt>
<rscale>  0 0.31791813E+04</rscale>
<asrwt>0</asrwt>
<pdfrwt beam="1">  1        1 0.56422248E+00 0.31791813E+04</pdfrwt>
<pdfrwt beam="2">  1       -1 0.10599698E+00 0.31791813E+04</pdfrwt>
<totfact> 0.12786339E-01</totfact>
</mgrwt>
</event>
<event>
 6    1  0.1585031E-006  0.1853142E+04  0.7818608E-02  0.8678538E-01
          1   -1    0    0  501    0  0.00000000000E+00  0.00000000000E+00  0.31763843151E+04  0.31763843151E+04  0.00000000000E+00 0. -1.
         -1   -1    0    0    0  501 -0.00000000000E+00 -0.00000000000E+00 -0.27028662421E+03  0.27028662421E+03  0.00000000000E+00 0.  1.
         23    2    1    2    0    0 -0.69619518722E+03 -0.41497831377E+03  0.63030236371E+03  0.10308607003E+04  0.92184457118E+02 0.  0.
         13    1    3    3    0    0 -0.57695800420E+03 -0.36162647012E+03  0.48826880036E+03  0.83789060378E+03  0.00000000000E+00 0. -1.
        -13    1    3    3    0    0 -0.11923718302E+03 -0.53351843653E+02  0.14203356335E+03  0.19297009653E+03  0.00000000000E+00 0.  1.
         22    1    1    2    0    0  0.69619518722E+03  0.41497831377E+03  0.22757953272E+04  0.24158102390E+04  0.00000000000E+00 0. -1.
<mgrwt>
<rscale>  0 0.18531424E+04</rscale>
<asrwt>0</asrwt>
<pdfrwt beam="1">  1        1 0.48867448E+00 0.18531424E+04</pdfrwt>
<pdfrwt beam="2">  1       -1 0.41582560E-01 0.18531424E+04</pdfrwt>
<totfact> 0.23674725E+00</totfact>
</mgrwt>
</event>
<event>
 6    1  0.1585031E-006  0.1188394E+04  0.7818608E-02  0.9123076E-01
         -4   -1    0    0    0  501 -0.00000000000E+00  0.00000000000E+00  0.70206314941E+03  0.70206314941E+03  0.00000000000E+00 0. -1.
          4   -1    0    0  501    0  0.00000000000E+00 -0.00000000000E+00 -0.50290354109E+03  0.50290354109E+03  0.00000000000E+00 0.  1.
         23    2    1    2    0    0  0.40904581320E+03 -0.22414429866E+03 -0.26737659002E+03  0.54525829410E+03  0.90869260338E+02 0.  0.
         11    1    3    3    0    0  0.17287042153E+03 -0.54092332790E+02 -0.13291968908E+03  0.22467266601E+03  0.00000000000E+00 0.  1.
        -11    1    3    3    0    0  0.23617539167E+03 -0.17005196587E+03 -0.13445690094E+03  0.32058562809E+03  0.00000000000E+00 0. -1.
         22    1    1    2    0    0 -0.40904581320E+03  0.22414429866E+03  0.46653619833E+03  0.65970839640E+03  0.00000000000E+00 0. -1.
<mgrwt>
<rscale>  0 0.11883939E+04</rscale>
<asrwt>0</asrwt>
<pdfrwt beam="1">  1        4 0.77369775E-01 0.11883939E+04</pdfrwt>
<pdfrwt beam="2">  1       -4 0.10800972E+00 0.11883939E+04</pdfrwt>
<totfact> 0.20203841E+00</totfact>
</mgrwt>
</event>
<event>
 6    1  0.1585031E-006  0.4201398E+04  0.7818608E-02  0.7965106E-01
         -1   -1    0    0    0  501 -0.00000000000E+00  0.00000000000E+00  0.12380645720E+04  0.12380645720E+04  0.00000000000E+00 0.  1.
          1   -1    0    0  501    0  0.00000000000E+00 -0.00000000000E+00 -0.35643836271E+04  0.35643836271E+04  0.00000000000E+00 0. -1.
         23    2    1    2    0    0  0.10535274608E+04 -0.16443071731E+04 -0.28185122305E+03  0.19751677203E+04  0.90450104130E+02 0.  0.
         11    1    3    3    0    0  0.47446274197E+03 -0.74701735240E+03 -0.17310505240E+03  0.90172899337E+03  0.00000000000E+00 0.  1.
        -11    1    3    3    0    0  0.57906471881E+03 -0.89728982065E+03 -0.10874617065E+03  0.10734387269E+04  0.00000000000E+00 0. -1.
         22    1    1    2    0    0 -0.10535274608E+04  0.16443071731E+04 -0.20444678320E+04  0.28272804788E+04  0.00000000000E+00 0. -1.
<mgrwt>
<rscale>  0 0.42013984E+04</rscale>
<asrwt>0</asrwt>
<pdfrwt beam="1">  1        1 0.54836671E+00 0.42013984E+04</pdfrwt>
<pdfrwt beam="2">  1       -1 0.19047147E+00 0.42013984E+04</pdfrwt>
<totfact> 0.29941280E-02</totfact>
</mgrwt>
</event>
<event>
 6    1  0.1585031E-006  0.2273199E+04  0.7818608E-02  0.8488564E-01
          1   -1    0    0  501    0  0.00000000000E+00  0.00000000000E+00  0.52286735078E+03  0.52286735078E+03  0.00000000000E+00 0. -1.
         -1   -1    0    0    0  501 -0.00000000000E+00 -0.00000000000E+00 -0.24707187916E+04  0.24707187916E+04  0.00000000000E+00 0.  1.
         23    2    1    2    0    0  0.10397062779E+04  0.43792632056E+03 -0.11376308802E+04  0.16046203533E+04  0.88509049875E+02 0.  0.
         13    1    3    3    0    0  0.62136549903E+03  0.30396597481E+03 -0.66931738618E+03  0.96253631655E+03  0.00000000000E+00 0. -1.
        -13    1    3    3    0    0  0.41834077888E+03  0.13396034576E+03 -0.46831349402E+03  0.64208403671E+03  0.00000000000E+00 0.  1.
         22    1    1    2    0    0 -0.10397062779E+04 -0.43792632056E+03 -0.81022056067E+03  0.13889657892E+04  0.00000000000E+00 0.  1.
<mgrwt>
<rscale>  0 0.22731988E+04</rscale>
<asrwt>0</asrwt>
<pdfrwt beam="1">  1        1 0.80441130E-01 0.22731988E+04</pdfrwt>
<pdfrwt beam="2">  1       -1 0.38011059E+00 0.22731988E+04</pdfrwt>
<totfact> 0.36885032E-01</totfact>
</mgrwt>
</event>
<event>
 6    1  0.1585031E-006  0.3747425E+04  0.7818608E-02  0.8057532E-01
         -2   -1    0    0    0  501 -0.00000000000E+00  0.00000000000E+00  0.10384453962E+04  0.10384453962E+04  0.00000000000E+00 0.  1.
          2   -1    0    0  501    0  0.00000000000E+00 -0.00000000000E+00 -0.33808209954E+04  0.33808209954E+04  0.00000000000E+00 0. -1.
         23    2    1    2    0    0 -0.31713346884E+03 -0.14242959866E+04 -0.25559226519E+04  0.29445477614E+04  0.91805350154E+02 0.  0.
         13    1    3    3    0    0 -0.19981986393E+02 -0.22924937451E+03 -0.37481848597E+03  0.43982206961E+03  0.00000000000E+00 0. -1.
        -13    1    3    3    0    0 -0.29715148245E+03 -0.11950466120E+04 -0.21811041660E+04  0.25047256918E+04  0.00000000000E+00 0.  1.
         22    1    1    2    0    0  0.31713346884E+03  0.14242959866E+04  0.21354705274E+03  0.14747186301E+04  0.00000000000E+00 0.  1.
<mgrwt>
<rscale>  0 0.37474247E+04</rscale>
<asrwt>0</asrwt>
<pdfrwt beam="1">  1        2 0.52012631E+00 0.37474247E+04</pdfrwt>
<pdfrwt beam="2">  1       -2 0.15976083E+00 0.37474247E+04</pdfrwt>
<totfact> 0.19982506E-01</totfact>
</mgrwt>
</event>
<event>
 6    1  0.1585031E-006  0.2581096E+04  0.7818608E-02  0.8374651E-01
         -1   -1    0    0    0  501 -0.00000000000E+00  0.00000000000E+00  0.38051222286E+03  0.38051222286E+03  0.00000000000E+00 0. -1.
          1   -1    0    0  501    0  0.00000000000E+00 -0.00000000000E+00 -0.43770327172E+04  0.43770327172E+04  0.00000000000E+00 0.  1.
         23    2    1    2    0    0  0.78021354095E+03 -0.56366844301E+03 -0.42030109705E+03  0.10540600325E+04  0.89074445056E+02 0.  0.
         11    1    3    3    0    0  0.57590783729E+03 -0.38678894661E+03 -0.33710759709E+03  0.77130866603E+03  0.00000000000E+00 0.  1.
        -11    1    3    3    0    0  0.20430570366E+03 -0.17687949640E+03 -0.83193499954E+02  0.28275136645E+03  0.00000000000E+00 0. -1.
         22    1    1    2    0    0 -0.78021354095E+03  0.56366844301E+03 -0.35762193973E+04  0.37034849076E+04  0.00000000000E+00 0.  1.
<mgrwt>
<rscale>  0 0.25810962E+04</rscale>
<asrwt>0</asrwt>
<pdfrwt beam="1">  1        1 0.67338971E+00 0.25810962E+04</pdfrwt>
<pdfrwt beam="2">  1       -1 0.58540337E-01 0.25810962E+04</pdfrwt>
<totfact> 0.11209201E-01</totfact>
</mgrwt>
</event>
<event>
 6    1  0.1585031E-006  0.3518833E+04  0.7818608E-02  0.8109341E-01
          1   -1    0    0  501    0  0.00000000000E+00  0.00000000000E+00  0.16285656764E+04  0.16285656764E+04  0.00000000000E+00 0. -1.
         -1   -1    0    0    0  501 -0.00000000000E+00 -0.00000000000E+00 -0.19007804009E+04  0.19007804009E+04  0.00000000000E+00 0.  1.
         23    2    1    2    0    0  0.11176982512E+03 -0.58612808715E+03 -0.17939277892E+04  0.18948280201E+04  0.12711288199E+03 0.  0.
         13    1    3    3    0    0  0.11074150486E+03 -0.28611513724E+03 -0.80899951349E+03  0.86522006766E+03  0.00000000000E+00 0. -1.
        -13    1    3    3    0    0  0.10283202558E+01 -0.30001294990E+03 -0.98492827567E+03  0.10296079525E+04  0.00000000000E+00 0.  1.
         22    1    1    2    0    0 -0.11176982512E+03  0.58612808715E+03  0.15217130647E+04  0.16345180573E+04  0.00000000000E+00 0. -1.
<mgrwt>
<rscale>  0 0.35188326E+04</rscale>
<asrwt>0</asrwt>
<pdfrwt beam="1">  1        1 0.25054857E+00 0.35188326E+04</pdfrwt>
<pdfrwt beam="2">  1       -1 0.29242775E+00 0.35188326E+04</pdfrwt>
<totfact> 0.16063519E-01</totfact>
</mgrwt>
</event>
<event>
 6    1  0.1585031E-006  0.1730268E+04  0.7818608E-02  0.8744287E-01
         -1   -1    0    0    0  501 -0.00000000000E+00  0.00000000000E+00  0.25939467082E+03  0.25939467082E+03  0.00000000000E+00 0.  1.
          1   -1    0    0  501    0  0.00000000000E+00 -0.00000000000E+00 -0.28853973828E+04  0.28853973828E+04  0.00000000000E+00 0. -1.
         23    2    1    2    0    0 -0.12244600508E+03 -0.51047082777E+03 -0.25608611000E+04  0.26158148143E+04  0.94361427874E+02 0.  0.
         11    1    3    3    0    0 -0.32963011118E+02 -0.28648139967E+03 -0.12378174772E+04  0.12709643029E+04  0.00000000000E+00 0. -1.
        -11    1    3    3    0    0 -0.89482993967E+02 -0.22398942809E+03 -0.13230436228E+04  0.13448505114E+04  0.00000000000E+00 0.  1.
         22    1    1    2    0    0  0.12244600508E+03  0.51047082777E+03 -0.65141612040E+02  0.52897723938E+03  0.00000000000E+00 0.  1.
<mgrwt>
<rscale>  0 0.17302678E+04</rscale>
<asrwt>0</asrwt>
<pdfrwt beam="1">  1        1 0.44390727E+00 0.17302678E+04</pdfrwt>
<pdfrwt beam="2">  1       -1 0.39906874E-01 0.17302678E+04</pdfrwt>
<totfact> 0.42156538E+00</totfact>
</mgrwt>
</event>
<event>
 6    1  0.1585031E-006  0.2135775E+04  0.7818608E-02  0.8545646E-01
          2   -1    0    0  501    0  0.00000000000E+00  0.00000000000E+00  0.11164603330E+04  0.11164603330E+04  0.00000000000E+00 0. -1.
         -2   -1    0    0    0  501 -0.00000000000E+00 -0.00000000000E+00 -0.10214276784E+04  0.10214276784E+04  0.00000000000E+00 0.  1.
         23    2    1    2    0    0 -0.81968678681E+03 -0.36080066382E+03  0.62629121043E+03  0.10965911274E+04  0.90597311530E+02 0.  0.
         13    1    3    3    0    0 -0.14713988709E+03 -0.10290341030E+03  0.13639095012E+03  0.22548115109E+03  0.00000000000E+00 0.  1.
        -13    1    3    3    0    0 -0.67254689972E+03 -0.25789725352E+03  0.48990026031E+03  0.87110997627E+03  0.00000000000E+00 0. -1.
         22    1    1    2    0    0  0.81968678681E+03  0.36080066382E+03 -0.53125855590E+03  0.10412968840E+04  0.00000000000E+00 0.  1.
<mgrwt>
<rscale>  0 0.21357748E+04</rscale>
<asrwt>0</asrwt>
<pdfrwt beam="1">  1        2 0.17176313E+00 0.21357748E+04</pdfrwt>
<pdfrwt beam="2">  1       -2 0.15714272E+00 0.21357748E+04</pdfrwt>
<totfact> 0.51732214E+00</totfact>
</mgrwt>
</event>
<event>
 6    1  0.1585031E-006  0.2606455E+04  0.7818608E-02  0.8366012E-01
          1   -1    0    0  501    0  0.00000000000E+00  0.00000000000E+00  0.11289948320E+04  0.11289948320E+04  0.00000000000E+00 0. -1.
         -1   -1    0    0    0  501 -0.00000000000E+00 -0.00000000000E+00 -0.15043487608E+04  0.15043487608E+04  0.00000000000E+00 0.  1.
         23    2    1    2    0    0 -0.21718959273E+03  0.12534344613E+03  0.11025777643E+04  0.11342890947E+04  0.89731406824E+02 0.  0.
         13    1    3    3    0    0 -0.18065668993E+03  0.12801968795E+03  0.82079885549E+03  0.85013918936E+03  0.00000000000E+00 0.  1.
        -13    1    3    3    0    0 -0.36532902802E+02 -0.26762418290E+01  0.28177890879E+03  0.28414990532E+03  0.00000000000E+00 0. -1.
         22    1    1    2    0    0  0.21718959273E+03 -0.12534344613E+03 -0.14779316931E+04  0.14990544980E+04  0.00000000000E+00 0.  1.
<mgrwt>
<rscale>  0 0.26064550E+04</rscale>
<asrwt>0</asrwt>
<pdfrwt beam="1">  1        1 0.17369151E+00 0.26064550E+04</pdfrwt>
<pdfrwt beam="2">  1       -1 0.23143827E+00 0.26064550E+04</pdfrwt>
<totfact> 0.98017526E-01</totfact>
</mgrwt>
</event>
<event>
 6    1  0.1585031E-006  0.3858974E+04  0.7818608E-02  0.8033616E-01
         -2   -1    0    0    0  501 -0.00000000000E+00  0.00000000000E+00  0.24811285809E+04  0.24811285809E+04  0.00000000000E+00 0.  1.
          2   -1    0    0  501    0  0.00000000000E+00 -0.00000000000E+00 -0.15004949356E+04  0.15004949356E+04  0.00000000000E+00 0. -1.
         23    2    1    2    0    0  0.11891736154E+04  0.15107692263E+04  0.64474467240E+03  0.20298604814E+04  0.89890703225E+02 0.  0.
         11    1    3    3    0    0  0.22188644421E+03  0.28507907591E+03  0.84582007227E+02  0.37102262680E+03  0.00000000000E+00 0. -1.
        -11    1    3    3    0    0  0.96728717119E+03  0.12256901504E+04  0.56016266517E+03  0.16588378546E+04  0.00000000000E+00 0.  1.
         22    1    1    2    0    0 -0.11891736154E+04 -0.15107692263E+04  0.33588897288E+03  0.19517630350E+04  0.00000000000E+00 0. -1.
<mgrwt>
<rscale>  0 0.38589744E+04</rscale>
<asrwt>0</asrwt>
<pdfrwt beam="1">  1        2 0.23084538E+00 0.38589744E+04</pdfrwt>
<pdfrwt beam="2">  1       -2 0.38171209E+00 0.38589744E+04</pdfrwt>
<totfact> 0.98747325E-02</totfact>
</mgrwt>
</event>
<event>
 6    1  0.1585031E-006  0.2004201E+04  0.7818608E-02  0.8604659E-01
          1   -1    0    0  501    0  0.00000000000E+00  0.00000000000E+00  0.16591330321E+04  0.16591330321E+04  0.00000000000E+00 0. -1.
         -1   -1    0    0    0  501 -0.00000000000E+00 -0.00000000000E+00 -0.60525918914E+03  0.60525918914E+03  0.00000000000E+00 0.  1.
         23    2    1    2    0    0 -0.74165377261E+03  0.10503553448E+03 -0.22024767706E+03  0.78639748861E+03  0.93963763820E+02 0.  0.
         13    1    3    3    0    0 -0.26685472907E+03  0.83029097101E+02 -0.88957246499E+02  0.29328939479E+03  0.00000000000E+00 0.  1.
        -13    1    3    3    0    0 -0.47479904353E+03  0.22006437381E+02 -0.13129043056E+03  0.49310809381E+03  0.00000000000E+00 0. -1.
         22    1    1    2    0    0  0.74165377261E+03 -0.10503553448E+03  0.12741215200E+04  0.14779947326E+04  0.00000000000E+00 0. -1.
<mgrwt>
<rscale>  0 0.20042011E+04</rscale>
<asrwt>0</asrwt>
<pdfrwt beam="1">  1        1 0.25525123E+00 0.20042011E+04</pdfrwt>
<pdfrwt beam="2">  1       -1 0.93116799E-01 0.20042011E+04</pdfrwt>
<totfact> 0.52779340E+00</totfact>
</mgrwt>
</event>
<event>
 6    1  0.1585031E-006  0.3121642E+04  0.7818608E-02  0.8209823E-01
         -2   -1    0    0    0  501 -0.00000000000E+00  0.00000000000E+00  0.12978302981E+04  0.12978302981E+04  0.00000000000E+00 0.  1.
          2   -1    0    0  501    0  0.00000000000E+00 -0.00000000000E+00 -0.18771039499E+04  0.18771039499E+04  0.00000000000E+00 0. -1.
         23    2    1    2    0    0 -0.11048420451E+04 -0.83276802615E+03 -0.10217052317E+04  0.17223764236E+04  0.92306197253E+02 0.  0.
         13    1    3    3    0    0 -0.29324930117E+03 -0.17381773253E+03 -0.23582237940E+03  0.41451170237E+03  0.00000000000E+00 0. -1.
        -13    1    3    3    0    0 -0.81159274398E+03 -0.65895029362E+03 -0.78588285233E+03  0.13078647213E+04  0.00000000000E+00 0.  1.
         22    1    1    2    0    0  0.11048420451E+04  0.83276802615E+03  0.44243157997E+03  0.14525578243E+04  0.00000000000E+00 0. -1.
<mgrwt>
<rscale>  0 0.31216421E+04</rscale>
<asrwt>0</asrwt>
<pdfrwt beam="1">  1        2 0.28878522E+00 0.31216421E+04</pdfrwt>
<pdfrwt beam="2">  1       -2 0.19966620E+00 0.31216421E+04</pdfrwt>
<totfact> 0.88589668E-01</totfact>
</mgrwt>
</event>
<event>
 6    1  0.1585031E-006  0.1268152E+04  0.7818608E-02  0.9055209E-01
         -1   -1    0    0    0  501 -0.00000000000E+00  0.00000000000E+00  0.58738067648E+03  0.58738067648E+03  0.00000000000E+00 0.  1.
          1   -1    0    0  501    0  0.00000000000E+00 -0.00000000000E+00 -0.68448353997E+03  0.68448353997E+03  0.00000000000E+00 0. -1.
         23    2    1    2    0    0 -0.46052485308E+03  0.15428453660E+03  0.35502266147E+03  0.60830988645E+03  0.90072022615E+02 0.  0.
         11    1    3    3    0    0 -0.23071836501E+03  0.55047312619E+02  0.12387849352E+03  0.26759493967E+03  0.00000000000E+00 0.  1.
        -11    1    3    3    0    0 -0.22980648807E+03  0.99237223985E+02  0.23114416795E+03  0.34071494678E+03  0.00000000000E+00 0. -1.
         22    1    1    2    0    0  0.46052485308E+03 -0.15428453660E+03 -0.45212552496E+03  0.66355433000E+03  0.00000000000E+00 0. -1.
<mgrwt>
<rscale>  0 0.12681520E+04</rscale>
<asrwt>0</asrwt>
<pdfrwt beam="1">  1        1 0.10530516E+00 0.12681520E+04</pdfrwt>
<pdfrwt beam="2">  1       -1 0.90366258E-01 0.12681520E+04</pdfrwt>
<totfact> 0.33249355E+01</totfact>
</mgrwt>
</event>
<event>
 6    1  0.1585031E-006  0.2718534E+04  0.7818608E-02  0.8329016E-01
         -2   -1    0    0    0  501 -0.00000000000E+00  0.00000000000E+00  0.29570740073E+04  0.29570740073E+04  0.00000000000E+00 0.  1.
          2   -1    0    0  501    0  0.00000000000E+00 -0.00000000000E+00 -0.62480932955E+03  0.62480932955E+03  0.00000000000E+00 0. -1.
         23    2    1    2    0    0  0.96995592200E+03 -0.34165954073E+03  0.23355448636E+04  0.25535076798E+04  0.89921793295E+02 0.  0.
         11    1    3    3    0    0  0.59785514718E+03 -0.25466010047E+03  0.15014790366E+04  0.16360690209E+04  0.00000000000E+00 0. -1.
        -11    1    3    3    0    0  0.37210077481E+03 -0.86999440264E+02  0.83406582693E+03  0.91743865891E+03  0.00000000000E+00 0.  1.
         22    1    1    2    0    0 -0.96995592200E+03  0.34165954073E+03 -0.32801857678E+01  0.10283756570E+04  0.00000000000E+00 0. -1.
<mgrwt>
<rscale>  0 0.27185345E+04</rscale>
<asrwt>0</asrwt>
<pdfrwt beam="1">  1        2 0.96124514E-01 0.27185345E+04</pdfrwt>
<pdfrwt beam="2">  1       -2 0.45493446E+00 0.27185345E+04</pdfrwt>
<totfact> 0.13294689E-01</totfact>
</mgrwt>
</event>
<event>
 6    1  0.1585031E-006  0.1058162E+04  0.7818608E-02  0.9246958E-01
          1   -1    0    0  501    0  0.00000000000E+00  0.00000000000E+00  0.24879531984E+04  0.24879531984E+04  0.00000000000E+00 0. -1.
         -1   -1    0    0    0  501 -0.00000000000E+00 -0.00000000000E+00 -0.11251284900E+03  0.11251284900E+03  0.00000000000E+00 0.  1.
         23    2    1    2    0    0  0.13758755824E+03  0.66747507375E+02  0.24311709472E+04  0.24377040572E+04  0.91778702697E+02 0.  0.
         13    1    3    3    0    0  0.12409846136E+03  0.53820312550E+02  0.14357698926E+04  0.14421276776E+04  0.00000000000E+00 0.  1.
        -13    1    3    3    0    0  0.13489096882E+02  0.12927194825E+02  0.99540105460E+03  0.99557637959E+03  0.00000000000E+00 0. -1.
         22    1    1    2    0    0 -0.13758755824E+03 -0.66747507375E+02 -0.55730597761E+02  0.16276199019E+03  0.00000000000E+00 0.  1.
<mgrwt>
<rscale>  0 0.10581620E+04</rscale>
<asrwt>0</asrwt>
<pdfrwt beam="1">  1        1 0.38276199E+00 0.10581620E+04</pdfrwt>
<pdfrwt beam="2">  1       -1 0.17309671E-01 0.10581620E+04</pdfrwt>
<totfact> 0.36257309E+01</totfact>
</mgrwt>
</event>
<event>
 6    1  0.1585031E-006  0.1345878E+04  0.7818608E-02  0.8993954E-01
         -1   -1    0    0    0  501 -0.00000000000E+00  0.00000000000E+00  0.65445725143E+03  0.65445725143E+03  0.00000000000E+00 0.  1.
          1   -1    0    0  501    0  0.00000000000E+00 -0.00000000000E+00 -0.69194243227E+03  0.69194243227E+03  0.00000000000E+00 0. -1.
         23    2    1    2    0    0  0.24399705650E+03 -0.43943055298E+03 -0.46157549915E+03  0.68876272264E+03  0.93318659486E+02 0.  0.
         11    1    3    3    0    0  0.22719133871E+03 -0.34134902339E+03 -0.39256668204E+03  0.56766509493E+03  0.00000000000E+00 0. -1.
        -11    1    3    3    0    0  0.16805717782E+02 -0.98081529593E+02 -0.69008817110E+02  0.12109762771E+03  0.00000000000E+00 0.  1.
         22    1    1    2    0    0 -0.24399705650E+03  0.43943055298E+03  0.42409031831E+03  0.65763696106E+03  0.00000000000E+00 0.  1.
<mgrwt>
<rscale>  0 0.13458778E+04</rscale>
<asrwt>0</asrwt>
<pdfrwt beam="1">  1        1 0.10645268E+00 0.13458778E+04</pdfrwt>
<pdfrwt beam="2">  1       -1 0.10068573E+00 0.13458778E+04</pdfrwt>
<totfact> 0.25485759E+01</totfact>
</mgrwt>
</event>
<event>
 6    1  0.1585031E-006  0.3556289E+04  0.7818608E-02  0.8100578E-01
          2   -1    0    0  501    0  0.00000000000E+00  0.00000000000E+00  0.33806779734E+04  0.33806779734E+04  0.00000000000E+00 0. -1.
         -2   -1    0    0    0  501 -0.00000000000E+00 -0.00000000000E+00 -0.93525544760E+03  0.93525544760E+03  0.00000000000E+00 0.  1.
         23    2    1    2    0    0  0.82845100606E+03  0.15641899821E+04  0.10357692399E+04  0.20531599556E+04  0.98114806242E+02 0.  0.
         11    1    3    3    0    0  0.37243010739E+03  0.68767820938E+03  0.51360057426E+03  0.93562335073E+03  0.00000000000E+00 0.  1.
        -11    1    3    3    0    0  0.45602089867E+03  0.87651177271E+03  0.52216866565E+03  0.11175366048E+04  0.00000000000E+00 0. -1.
         22    1    1    2    0    0 -0.82845100606E+03 -0.15641899821E+04  0.14096532859E+04  0.22627734655E+04  0.00000000000E+00 0. -1.
<mgrwt>
<rscale>  0 0.35562888E+04</rscale>
<asrwt>0</asrwt>
<pdfrwt beam="1">  1        2 0.52010430E+00 0.35562888E+04</pdfrwt>
<pdfrwt beam="2">  1       -2 0.14388546E+00 0.35562888E+04</pdfrwt>
<totfact> 0.26841778E-01</totfact>
</mgrwt>
</event>
<event>
 6    1  0.1585031E-006  0.9015678E+03  0.7818608E-02  0.9423624E-01
         -1   -1    0    0    0  501 -0.00000000000E+00  0.00000000000E+00  0.40127222546E+03  0.40127222546E+03  0.00000000000E+00 0.  1.
          1   -1    0    0  501    0  0.00000000000E+00 -0.00000000000E+00 -0.50640467293E+03  0.50640467293E+03  0.00000000000E+00 0. -1.
         23    2    1    2    0    0 -0.34536393502E+02 -0.43642255423E+03 -0.13876732782E+03  0.46859978274E+03  0.93123449205E+02 0.  0.
         11    1    3    3    0    0  0.12479033618E+01 -0.27035674475E+03 -0.43512451122E+02  0.27383874834E+03  0.00000000000E+00 0.  1.
        -11    1    3    3    0    0 -0.35784296864E+02 -0.16606580949E+03 -0.95254876702E+02  0.19476103439E+03  0.00000000000E+00 0. -1.
         22    1    1    2    0    0  0.34536393502E+02  0.43642255423E+03  0.33634880351E+02  0.43907711566E+03  0.00000000000E+00 0.  1.
<mgrwt>
<rscale>  0 0.90156781E+03</rscale>
<asrwt>0</asrwt>
<pdfrwt beam="1">  1        1 0.77908411E-01 0.90156781E+03</pdfrwt>
<pdfrwt beam="2">  1       -1 0.61734189E-01 0.90156781E+03</pdfrwt>
<totfact> 0.11682994E+02</totfact>
</mgrwt>
</event>
<event>
 6    1  0.1585031E-006  0.1485256E+04  0.7818608E-02  0.8894317E-01
         -2   -1    0    0    0  501 -0.00000000000E+00  0.00000000000E+00  0.52494613727E+03  0.52494613727E+03  0.00000000000E+00 0.  1.
          2   -1    0    0  501    0  0.00000000000E+00 -0.00000000000E+00 -0.10505763259E+04  0.10505763259E+04  0.00000000000E+00 0. -1.
         23    2    1    2    0    0  0.43956450442E+03  0.13100473080E+02 -0.89480459759E+03  0.10013462531E+04  0.92900348447E+02 0.  0.
         11    1    3    3    0    0  0.26348291785E+03  0.12368704501E+02 -0.63381925825E+03  0.68651517462E+03  0.00000000000E+00 0. -1.
        -11    1    3    3    0    0  0.17608158657E+03  0.73176857960E+00 -0.26098533934E+03  0.31483107846E+03  0.00000000000E+00 0.  1.
         22    1    1    2    0    0 -0.43956450442E+03 -0.13100473080E+02  0.36917440899E+03  0.57417621006E+03  0.00000000000E+00 0.  1.
<mgrwt>
<rscale>  0 0.14852555E+04</rscale>
<asrwt>0</asrwt>
<pdfrwt beam="1">  1        2 0.16162713E+00 0.14852555E+04</pdfrwt>
<pdfrwt beam="2">  1       -2 0.80760944E-01 0.14852555E+04</pdfrwt>
<totfact> 0.30618396E+01</totfact>
</mgrwt>
</event>
<event>
 6    1  0.1585031E-006  0.4125389E+04  0.7818608E-02  0.7979718E-01
          2   -1    0    0  501    0  0.00000000000E+00  0.00000000000E+00  0.23875051951E+04  0.23875051951E+04  0.00000000000E+00 0. -1.
         -2   -1    0    0    0  501 -0.00000000000E+00 -0.00000000000E+00 -0.17820730504E+04  0.17820730504E+04  0.00000000000E+00 0.  1.
         23    2    1    2    0    0  0.17445274139E+04 -0.37201519683E+03 -0.74218183529E+03  0.19339945088E+04  0.87918591026E+02 0.  0.
         11    1    3    3    0    0  0.59813569402E+03 -0.12262611415E+03 -0.29920177125E+03  0.67994497737E+03  0.00000000000E+00 0.  1.
        -11    1    3    3    0    0  0.11463917199E+04 -0.24938908269E+03 -0.44298006404E+03  0.12540495314E+04  0.00000000000E+00 0. -1.
         22    1    1    2    0    0 -0.17445274139E+04  0.37201519683E+03  0.13476139800E+04  0.22355837367E+04  0.00000000000E+00 0. -1.
<mgrwt>
<rscale>  0 0.41253890E+04</rscale>
<asrwt>0</asrwt>
<pdfrwt beam="1">  1        2 0.36730849E+00 0.41253890E+04</pdfrwt>
<pdfrwt beam="2">  1       -2 0.27416508E+00 0.41253890E+04</pdfrwt>
<totfact> 0.14428062E-01</totfact>
</mgrwt>
</event>
<event>
 6    1  0.1585031E-006  0.3488544E+04  0.7818608E-02  0.8116510E-01
         -2   -1    0    0    0  501 -0.00000000000E+00  0.00000000000E+00  0.65722530684E+03  0.65722530684E+03  0.00000000000E+00 0.  1.
          2   -1    0    0  501    0  0.00000000000E+00 -0.00000000000E+00 -0.46292868538E+04  0.46292868538E+04  0.00000000000E+00 0. -1.
         23    2    1    2    0    0  0.16597897786E+04  0.58115093361E+02 -0.27892792690E+04  0.32475777845E+04  0.91668708379E+02 0.  0.
         11    1    3    3    0    0  0.27364814270E+03 -0.10488290548E+02 -0.40787434169E+03  0.49127872826E+03  0.00000000000E+00 0. -1.
        -11    1    3    3    0    0  0.13861416359E+04  0.68603383909E+02 -0.23814049274E+04  0.27562990562E+04  0.00000000000E+00 0.  1.
         22    1    1    2    0    0 -0.16597897786E+04 -0.58115093361E+02 -0.11827822779E+04  0.20389343762E+04  0.00000000000E+00 0. -1.
<mgrwt>
<rscale>  0 0.34885438E+04</rscale>
<asrwt>0</asrwt>
<pdfrwt beam="1">  1        2 0.71219798E+00 0.34885438E+04</pdfrwt>
<pdfrwt beam="2">  1       -2 0.10111158E+00 0.34885438E+04</pdfrwt>
<totfact> 0.59997762E-02</totfact>
</mgrwt>
</event>
<event>
 6    1  0.1585031E-006  0.3180477E+04  0.7818608E-02  0.8193992E-01
          1   -1    0    0  501    0  0.00000000000E+00  0.00000000000E+00  0.14095317202E+04  0.14095317202E+04  0.00000000000E+00 0. -1.
         -1   -1    0    0    0  501 -0.00000000000E+00 -0.00000000000E+00 -0.17941120413E+04  0.17941120413E+04  0.00000000000E+00 0.  1.
         23    2    1    2    0    0  0.14914740187E+04  0.21794480262E+03  0.31406899817E+03  0.15422872204E+04  0.89531273852E+02 0.  0.
         13    1    3    3    0    0  0.60611833151E+03  0.71693553090E+02  0.16875371793E+03  0.63324340870E+03  0.00000000000E+00 0. -1.
        -13    1    3    3    0    0  0.88535568719E+03  0.14625124953E+03  0.14531528025E+03  0.90904381165E+03  0.00000000000E+00 0.  1.
         22    1    1    2    0    0 -0.14914740187E+04 -0.21794480262E+03 -0.69864931929E+03  0.16613565411E+04  0.00000000000E+00 0.  1.
<mgrwt>
<rscale>  0 0.31804766E+04</rscale>
<asrwt>0</asrwt>
<pdfrwt beam="1">  1        1 0.21685103E+00 0.31804766E+04</pdfrwt>
<pdfrwt beam="2">  1       -1 0.27601724E+00 0.31804766E+04</pdfrwt>
<totfact> 0.29942254E-01</totfact>
</mgrwt>
</event>
<event>
 6    1  0.1585031E-006  0.2888856E+04  0.7818608E-02  0.8276201E-01
         -2   -1    0    0    0  501 -0.00000000000E+00  0.00000000000E+00  0.15348174067E+04  0.15348174067E+04  0.00000000000E+00 0.  1.
          2   -1    0    0  501    0  0.00000000000E+00 -0.00000000000E+00 -0.13593623028E+04  0.13593623028E+04  0.00000000000E+00 0. -1.
         23    2    1    2    0    0  0.17400315643E+03 -0.84761706807E+03  0.12446537053E+04  0.15187098109E+04  0.92654471802E+02 0.  0.
         11    1    3    3    0    0  0.54835255767E+02 -0.25471582988E+03  0.30344365885E+03  0.39995638933E+03  0.00000000000E+00 0. -1.
        -11    1    3    3    0    0  0.11916790066E+03 -0.59290123819E+03  0.94121004645E+03  0.11187534216E+04  0.00000000000E+00 0.  1.
         22    1    1    2    0    0 -0.17400315643E+03  0.84761706807E+03 -0.10691986014E+04  0.13754698985E+04  0.00000000000E+00 0. -1.
<mgrwt>
<rscale>  0 0.28888565E+04</rscale>
<asrwt>0</asrwt>
<pdfrwt beam="1">  1        2 0.20913266E+00 0.28888565E+04</pdfrwt>
<pdfrwt beam="2">  1       -2 0.23612575E+00 0.28888565E+04</pdfrwt>
<totfact> 0.10328355E+00</totfact>
</mgrwt>
</event>
<event>
 6    1  0.1585031E-006  0.4886282E+04  0.7818608E-02  0.7846293E-01
          1   -1    0    0  501    0  0.00000000000E+00  0.00000000000E+00  0.30025830659E+04  0.30025830659E+04  0.00000000000E+00 0. -1.
         -1   -1    0    0    0  501 -0.00000000000E+00 -0.00000000000E+00 -0.19879343223E+04  0.19879343223E+04  0.00000000000E+00 0.  1.
         23    2    1    2    0    0 -0.10306931884E+04 -0.14335426237E+04 -0.12157935130E+04  0.21458301360E+04  0.95185103817E+02 0.  0.
         11    1    3    3    0    0 -0.19702722078E+03 -0.25691421597E+03 -0.26701489921E+03  0.41966843638E+03  0.00000000000E+00 0. -1.
        -11    1    3    3    0    0 -0.83366596761E+03 -0.11766284077E+04 -0.94877861377E+03  0.17261616997E+04  0.00000000000E+00 0.  1.
         22    1    1    2    0    0  0.10306931884E+04  0.14335426237E+04  0.22304422566E+04  0.28446872522E+04  0.00000000000E+00 0. -1.
<mgrwt>
<rscale>  0 0.48862820E+04</rscale>
<asrwt>0</asrwt>
<pdfrwt beam="1">  1        1 0.46193585E+00 0.48862820E+04</pdfrwt>
<pdfrwt beam="2">  1       -1 0.30583605E+00 0.48862820E+04</pdfrwt>
<totfact> 0.13120339E-02</totfact>
</mgrwt>
</event>
<event>
 6    1  0.1585031E-006  0.3907796E+04  0.7818608E-02  0.8023410E-01
          1   -1    0    0  501    0  0.00000000000E+00  0.00000000000E+00  0.34895446425E+04  0.34895446425E+04  0.00000000000E+00 0. -1.
         -1   -1    0    0    0  501 -0.00000000000E+00 -0.00000000000E+00 -0.10940446855E+04  0.10940446855E+04  0.00000000000E+00 0.  1.
         23    2    1    2    0    0 -0.70587754408E+03 -0.18116904920E+04  0.14114216887E+04  0.24043932413E+04  0.92250362050E+02 0.  0.
         11    1    3    3    0    0 -0.54131896244E+03 -0.14617531355E+04  0.11622393898E+04  0.19443633527E+04  0.00000000000E+00 0. -1.
        -11    1    3    3    0    0 -0.16455858163E+03 -0.34993735654E+03  0.24918229890E+03  0.46002988857E+03  0.00000000000E+00 0.  1.
         22    1    1    2    0    0  0.70587754408E+03  0.18116904920E+04  0.98407826837E+03  0.21791960867E+04  0.00000000000E+00 0.  1.
<mgrwt>
<rscale>  0 0.39077962E+04</rscale>
<asrwt>0</asrwt>
<pdfrwt beam="1">  1        1 0.53685302E+00 0.39077962E+04</pdfrwt>
<pdfrwt beam="2">  1       -1 0.16831457E+00 0.39077962E+04</pdfrwt>
<totfact> 0.50772441E-02</totfact>
</mgrwt>
</event>
<event>
 6    1  0.1585031E-006  0.4281704E+04  0.7818608E-02  0.7950010E-01
         -1   -1    0    0    0  501 -0.00000000000E+00  0.00000000000E+00  0.16469189953E+04  0.16469189953E+04  0.00000000000E+00 0.  1.
          1   -1    0    0  501    0  0.00000000000E+00 -0.00000000000E+00 -0.27829220286E+04  0.27829220286E+04  0.00000000000E+00 0. -1.
         23    2    1    2    0    0 -0.11842573139E+04 -0.15896502793E+04  0.26557473605E+03  0.20021108825E+04  0.92003530456E+02 0.  0.
         13    1    3    3    0    0 -0.22954877695E+03 -0.27132040203E+03  0.19855765938E+02  0.35595175656E+03  0.00000000000E+00 0. -1.
        -13    1    3    3    0    0 -0.95470853693E+03 -0.13183298772E+04  0.24571897012E+03  0.16461591260E+04  0.00000000000E+00 0.  1.
         22    1    1    2    0    0  0.11842573139E+04  0.15896502793E+04 -0.14015777694E+04  0.24277301414E+04  0.00000000000E+00 0. -1.
<mgrwt>
<rscale>  0 0.42817039E+04</rscale>
<asrwt>0</asrwt>
<pdfrwt beam="1">  1        1 0.42814185E+00 0.42817039E+04</pdfrwt>
<pdfrwt beam="2">  1       -1 0.25337216E+00 0.42817039E+04</pdfrwt>
<totfact> 0.43441304E-02</totfact>
</mgrwt>
</event>
<event>
 6    1  0.1585031E-006  0.1026278E+04  0.7818608E-02  0.9280184E-01
         -2   -1    0    0    0  501 -0.00000000000E+00  0.00000000000E+00  0.97139182611E+03  0.97139182611E+03  0.00000000000E+00 0. -1.
          2   -1    0    0  501    0  0.00000000000E+00 -0.00000000000E+00 -0.27106653666E+03  0.27106653666E+03  0.00000000000E+00 0.  1.
         23    2    1    2    0    0 -0.39957723207E+03 -0.18998331243E+03  0.48730251969E+02  0.45484696350E+03  0.93570825331E+02 0.  0.
         13    1    3    3    0    0 -0.16061555478E+03 -0.12782939403E+03  0.19042301749E+02  0.20615605660E+03  0.00000000000E+00 0. -1.
        -13    1    3    3    0    0 -0.23896167729E+03 -0.62153918396E+02  0.29687950220E+02  0.24869090690E+03  0.00000000000E+00 0.  1.
         22    1    1    2    0    0  0.39957723207E+03  0.18998331243E+03  0.65159503748E+03  0.78761139927E+03  0.00000000000E+00 0. -1.
<mgrwt>
<rscale>  0 0.10262784E+04</rscale>
<asrwt>0</asrwt>
<pdfrwt beam="1">  1        2 0.41702544E-01 0.10262784E+04</pdfrwt>
<pdfrwt beam="2">  1       -2 0.14944490E+00 0.10262784E+04</pdfrwt>
<totfact> 0.37054116E+01</totfact>
</mgrwt>
</event>
<event>
 6    1  0.1585031E-006  0.7889267E+03  0.7818608E-02  0.9576185E-01
         -1   -1    0    0    0  501 -0.00000000000E+00  0.00000000000E+00  0.84562383790E+03  0.84562383790E+03  0.00000000000E+00 0.  1.
          1   -1    0    0  501    0  0.00000000000E+00 -0.00000000000E+00 -0.18400772912E+03  0.18400772912E+03  0.00000000000E+00 0. -1.
         23    2    1    2    0    0  0.22880966043E+03  0.31349341935E+03  0.30106181072E+03  0.49988503658E+03  0.92816222942E+02 0.  0.
         13    1    3    3    0    0  0.19053938580E+02  0.90177102432E+02  0.59161793037E+02  0.10952205318E+03  0.00000000000E+00 0.  1.
        -13    1    3    3    0    0  0.20975572185E+03  0.22331631691E+03  0.24190001769E+03  0.39036298339E+03  0.00000000000E+00 0. -1.
         22    1    1    2    0    0 -0.22880966043E+03 -0.31349341935E+03  0.36055429805E+03  0.52974653045E+03  0.00000000000E+00 0.  1.
<mgrwt>
<rscale>  0 0.78892667E+03</rscale>
<asrwt>0</asrwt>
<pdfrwt beam="1">  1        1 0.28308882E-01 0.78892667E+03</pdfrwt>
<pdfrwt beam="2">  1       -1 0.13009597E+00 0.78892667E+03</pdfrwt>
<totfact> 0.85151788E+01</totfact>
</mgrwt>
</event>
<event>
 6    1  0.1585031E-006  0.3676017E+04  0.7818608E-02  0.8073298E-01
         -2   -1    0    0    0  501 -0.00000000000E+00  0.00000000000E+00  0.13598216930E+04  0.13598216930E+04  0.00000000000E+00 0.  1.
          2   -1    0    0  501    0  0.00000000000E+00 -0.00000000000E+00 -0.24843516017E+04  0.24843516017E+04  0.00000000000E+00 0. -1.
         23    2    1    2    0    0 -0.47017887570E+03 -0.16986739131E+04 -0.11034520743E+04  0.20815032992E+04  0.92131786169E+02 0.  0.
         13    1    3    3    0    0 -0.24937969480E+03 -0.72971036567E+03 -0.48339249277E+03  0.91012952485E+03  0.00000000000E+00 0. -1.
        -13    1    3    3    0    0 -0.22079918090E+03 -0.96896354739E+03 -0.62005958158E+03  0.11713737743E+04  0.00000000000E+00 0.  1.
         22    1    1    2    0    0  0.47017887570E+03  0.16986739131E+04 -0.21077834314E+02  0.17626699955E+04  0.00000000000E+00 0. -1.
<mgrwt>
<rscale>  0 0.36760170E+04</rscale>
<asrwt>0</asrwt>
<pdfrwt beam="1">  1        2 0.38220793E+00 0.36760170E+04</pdfrwt>
<pdfrwt beam="2">  1       -2 0.20920334E+00 0.36760170E+04</pdfrwt>
<totfact> 0.33358982E-01</totfact>
</mgrwt>
</event>
<event>
 6    1  0.1585031E-006  0.2436407E+04  0.7818608E-02  0.8425998E-01
         -2   -1    0    0    0  501 -0.00000000000E+00  0.00000000000E+00  0.84225543942E+03  0.84225543942E+03  0.00000000000E+00 0.  1.
          2   -1    0    0  501    0  0.00000000000E+00 -0.00000000000E+00 -0.17619595989E+04  0.17619595989E+04  0.00000000000E+00 0. -1.
         23    2    1    2    0    0  0.10777974818E+02 -0.11497670210E+04 -0.88508446105E+03  0.14538764400E+04  0.91114391097E+02 0.  0.
         13    1    3    3    0    0 -0.20070485508E+02 -0.83857203208E+03 -0.60704703801E+03  0.10354284059E+04  0.00000000000E+00 0. -1.
        -13    1    3    3    0    0  0.30848460326E+02 -0.31119498891E+03 -0.27803742304E+03  0.41844803410E+03  0.00000000000E+00 0.  1.
         22    1    1    2    0    0 -0.10777974818E+02  0.11497670210E+04 -0.34619698434E+02  0.11503385983E+04  0.00000000000E+00 0.  1.
<mgrwt>
<rscale>  0 0.24364072E+04</rscale>
<asrwt>0</asrwt>
<pdfrwt beam="1">  1        2 0.27107071E+00 0.24364072E+04</pdfrwt>
<pdfrwt beam="2">  1       -2 0.12957776E+00 0.24364072E+04</pdfrwt>
<totfact> 0.35569167E+00</totfact>
</mgrwt>
</event>
<event>
 6    1  0.1585031E-006  0.2816945E+04  0.7818608E-02  0.8298027E-01
          2   -1    0    0  501    0  0.00000000000E+00  0.00000000000E+00  0.15012495052E+04  0.15012495052E+04  0.00000000000E+00 0. -1.
         -2   -1    0    0    0  501 -0.00000000000E+00 -0.00000000000E+00 -0.13214291599E+04  0.13214291599E+04  0.00000000000E+00 0.  1.
         23    2    1    2    0    0 -0.12621224693E+04  0.55813101767E+03 -0.18494223965E+03  0.13952631320E+04  0.89956740482E+02 0.  0.
         11    1    3    3    0    0 -0.50161294507E+03  0.26850302341E+03 -0.87896747375E+02  0.57570414141E+03  0.00000000000E+00 0. -1.
        -11    1    3    3    0    0 -0.76050952427E+03  0.28962799426E+03 -0.97045492271E+02  0.81955899064E+03  0.00000000000E+00 0.  1.
         22    1    1    2    0    0  0.12621224693E+04 -0.55813101767E+03  0.36476258500E+03  0.14274155330E+04  0.00000000000E+00 0.  1.
<mgrwt>
<rscale>  0 0.28169451E+04</rscale>
<asrwt>0</asrwt>
<pdfrwt beam="1">  1        2 0.23096146E+00 0.28169451E+04</pdfrwt>
<pdfrwt beam="2">  1       -2 0.20329679E+00 0.28169451E+04</pdfrwt>
<totfact> 0.13937645E+00</totfact>
</mgrwt>
</event>
<event>
 6    1  0.1585031E-006  0.2152608E+04  0.7818608E-02  0.8538417E-01
          1   -1    0    0  501    0  0.00000000000E+00  0.00000000000E+00  0.20653492787E+04  0.20653492787E+04  0.00000000000E+00 0. -1.
         -1   -1    0    0    0  501 -0.00000000000E+00 -0.00000000000E+00 -0.56088838196E+03  0.56088838196E+03  0.00000000000E+00 0.  1.
         23    2    1    2    0    0 -0.34628284421E+03 -0.50246391818E+03 -0.32520453188E+03  0.69749263397E+03  0.91412196216E+02 0.  0.
         11    1    3    3    0    0 -0.27130895897E+03 -0.33463520448E+03 -0.19912617682E+03  0.47459509646E+03  0.00000000000E+00 0.  1.
        -11    1    3    3    0    0 -0.74973885245E+02 -0.16782871371E+03 -0.12607835506E+03  0.22289753751E+03  0.00000000000E+00 0. -1.
         22    1    1    2    0    0  0.34628284421E+03  0.50246391818E+03  0.18296654286E+04  0.19287450266E+04  0.00000000000E+00 0. -1.
<mgrwt>
<rscale>  0 0.21526081E+04</rscale>
<asrwt>0</asrwt>
<pdfrwt beam="1">  1        1 0.31774604E+00 0.21526081E+04</pdfrwt>
<pdfrwt beam="2">  1       -1 0.86290521E-01 0.21526081E+04</pdfrwt>
<totfact> 0.32629408E+00</totfact>
</mgrwt>
</event>
<event>
 6    1  0.1585031E-006  0.2478317E+04  0.7818608E-02  0.8410751E-01
         -1   -1    0    0    0  501 -0.00000000000E+00  0.00000000000E+00  0.82081386329E+03  0.82081386329E+03  0.00000000000E+00 0.  1.
          1   -1    0    0  501    0  0.00000000000E+00 -0.00000000000E+00 -0.18707206657E+04  0.18707206657E+04  0.00000000000E+00 0. -1.
         23    2    1    2    0    0 -0.34924466244E+03 -0.11867100278E+04 -0.56514038366E+03  0.13629070398E+04  0.88766104882E+02 0.  0.
         13    1    3    3    0    0 -0.12120000732E+03 -0.50795570296E+03 -0.27631067929E+03  0.59080963891E+03  0.00000000000E+00 0. -1.
        -13    1    3    3    0    0 -0.22804465512E+03 -0.67875432488E+03 -0.28882970437E+03  0.77209740084E+03  0.00000000000E+00 0.  1.
         22    1    1    2    0    0  0.34924466244E+03  0.11867100278E+04 -0.48476641875E+03  0.13286274892E+04  0.00000000000E+00 0. -1.
<mgrwt>
<rscale>  0 0.24783167E+04</rscale>
<asrwt>0</asrwt>
<pdfrwt beam="1">  1        1 0.28780317E+00 0.24783167E+04</pdfrwt>
<pdfrwt beam="2">  1       -1 0.12627906E+00 0.24783167E+04</pdfrwt>
<totfact> 0.17709422E+00</totfact>
</mgrwt>
</event>
<event>
 6    1  0.1585031E-006  0.1228961E+04  0.7818608E-02  0.9087878E-01
          1   -1    0    0  501    0  0.00000000000E+00  0.00000000000E+00  0.37534034574E+04  0.37534034574E+04  0.00000000000E+00 0. -1.
         -1   -1    0    0    0  501 -0.00000000000E+00 -0.00000000000E+00 -0.10059843775E+03  0.10059843775E+03  0.00000000000E+00 0.  1.
         23    2    1    2    0    0  0.17552417152E+03  0.55939071060E+03  0.23787043156E+04  0.24514829805E+04  0.88362213467E+02 0.  0.
         13    1    3    3    0    0  0.15552410155E+03  0.44137509416E+03  0.20133036449E+04  0.20669763633E+04  0.00000000000E+00 0. -1.
        -13    1    3    3    0    0  0.20000069975E+02  0.11801561645E+03  0.36540067076E+03  0.38450661726E+03  0.00000000000E+00 0.  1.
         22    1    1    2    0    0 -0.17552417152E+03 -0.55939071060E+03  0.12741007041E+04  0.14025189147E+04  0.00000000000E+00 0.  1.
<mgrwt>
<rscale>  0 0.12289614E+04</rscale>
<asrwt>0</asrwt>
<pdfrwt beam="1">  1        1 0.57744658E+00 0.12289614E+04</pdfrwt>
<pdfrwt beam="2">  1       -1 0.15476686E-01 0.12289614E+04</pdfrwt>
<totfact> 0.49427935E+00</totfact>
</mgrwt>
</event>
<event>
 6    1  0.1585031E-006  0.3757314E+04  0.7818608E-02  0.8055378E-01
         -2   -1    0    0    0  501 -0.00000000000E+00  0.00000000000E+00  0.13261407564E+04  0.13261407564E+04  0.00000000000E+00 0.  1.
          2   -1    0    0  501    0  0.00000000000E+00 -0.00000000000E+00 -0.26613701422E+04  0.26613701422E+04  0.00000000000E+00 0. -1.
         23    2    1    2    0    0 -0.37418910201E+03 -0.96130153175E+03 -0.23328974712E+04  0.25524291144E+04  0.91463947772E+02 0.  0.
         13    1    3    3    0    0 -0.21103661762E+03 -0.60383082504E+03 -0.13489501575E+04  0.14929215139E+04  0.00000000000E+00 0. -1.
        -13    1    3    3    0    0 -0.16315248439E+03 -0.35747070672E+03 -0.98394731368E+03  0.10595076005E+04  0.00000000000E+00 0.  1.
         22    1    1    2    0    0  0.37418910201E+03  0.96130153175E+03  0.99766808538E+03  0.14350817843E+04  0.00000000000E+00 0.  1.
<mgrwt>
<rscale>  0 0.37573136E+04</rscale>
<asrwt>0</asrwt>
<pdfrwt beam="1">  1        2 0.40944156E+00 0.37573136E+04</pdfrwt>
<pdfrwt beam="2">  1       -2 0.20402166E+00 0.37573136E+04</pdfrwt>
<totfact> 0.28194415E-01</totfact>
</mgrwt>
</event>
<event>
 6    1  0.1585031E-006  0.2311879E+04  0.7818608E-02  0.8473252E-01
          2   -1    0    0  501    0  0.00000000000E+00  0.00000000000E+00  0.98115444868E+03  0.98115444868E+03  0.00000000000E+00 0. -1.
         -2   -1    0    0    0  501 -0.00000000000E+00 -0.00000000000E+00 -0.13618609396E+04  0.13618609396E+04  0.00000000000E+00 0.  1.
         23    2    1    2    0    0  0.28115930501E+03 -0.45640481056E+03  0.84504411162E+03  0.10051736766E+04  0.94438676680E+02 0.  0.
         13    1    3    3    0    0  0.17940886615E+03 -0.29312894778E+03  0.45443669839E+03  0.56975857529E+03  0.00000000000E+00 0.  1.
        -13    1    3    3    0    0  0.10175043887E+03 -0.16327586278E+03  0.39060741323E+03  0.43541510131E+03  0.00000000000E+00 0. -1.
         22    1    1    2    0    0 -0.28115930501E+03  0.45640481056E+03 -0.12257506025E+04  0.13378417116E+04  0.00000000000E+00 0.  1.
<mgrwt>
<rscale>  0 0.23118788E+04</rscale>
<asrwt>0</asrwt>
<pdfrwt beam="1">  1        2 0.15094684E+00 0.23118788E+04</pdfrwt>
<pdfrwt beam="2">  1       -2 0.20951707E+00 0.23118788E+04</pdfrwt>
<totfact> 0.27053960E+00</totfact>
</mgrwt>
</event>
<event>
 6    1  0.1585031E-006  0.1989176E+04  0.7818608E-02  0.8611698E-01
         -2   -1    0    0    0  501 -0.00000000000E+00  0.00000000000E+00  0.50755165048E+03  0.50755165048E+03  0.00000000000E+00 0.  1.
          2   -1    0    0  501    0  0.00000000000E+00 -0.00000000000E+00 -0.19489742833E+04  0.19489742833E+04  0.00000000000E+00 0. -1.
         23    2    1    2    0    0 -0.62469519378E+03 -0.49911238533E+03  0.38077908825E+01  0.80484550588E+03  0.91676227783E+02 0.  0.
         13    1    3    3    0    0 -0.91921289985E+02 -0.38275337627E+02 -0.11628232189E+02  0.10024839553E+03  0.00000000000E+00 0.  1.
        -13    1    3    3    0    0 -0.53277390379E+03 -0.46083704770E+03  0.15436023072E+02  0.70459711035E+03  0.00000000000E+00 0. -1.
         22    1    1    2    0    0  0.62469519378E+03  0.49911238533E+03 -0.14452304237E+04  0.16516804279E+04  0.00000000000E+00 0. -1.
<mgrwt>
<rscale>  0 0.19891758E+04</rscale>
<asrwt>0</asrwt>
<pdfrwt beam="1">  1        2 0.29984220E+00 0.19891758E+04</pdfrwt>
<pdfrwt beam="2">  1       -2 0.78084868E-01 0.19891758E+04</pdfrwt>
<totfact> 0.96793853E+00</totfact>
</mgrwt>
</event>
<event>
 6    1  0.1585031E-006  0.2522258E+04  0.7818608E-02  0.8395098E-01
         -2   -1    0    0    0  501 -0.00000000000E+00  0.00000000000E+00  0.11340358570E+04  0.11340358570E+04  0.00000000000E+00 0.  1.
          2   -1    0    0  501    0  0.00000000000E+00 -0.00000000000E+00 -0.14024661912E+04  0.14024661912E+04  0.00000000000E+00 0. -1.
         23    2    1    2    0    0  0.10506031936E+04 -0.37399217099E+02 -0.83147585101E+03  0.13439476362E+04  0.98373705869E+02 0.  0.
         13    1    3    3    0    0  0.74607514836E+03 -0.67119944488E+02 -0.61379020339E+03  0.96843772527E+03  0.00000000000E+00 0.  1.
        -13    1    3    3    0    0  0.30452804527E+03  0.29720727388E+02 -0.21768564762E+03  0.37550991088E+03  0.00000000000E+00 0. -1.
         22    1    1    2    0    0 -0.10506031936E+04  0.37399217099E+02  0.56304551679E+03  0.11925544121E+04  0.00000000000E+00 0.  1.
<mgrwt>
<rscale>  0 0.25222585E+04</rscale>
<asrwt>0</asrwt>
<pdfrwt beam="1">  1        2 0.21576403E+00 0.25222585E+04</pdfrwt>
<pdfrwt beam="2">  1       -2 0.17446706E+00 0.25222585E+04</pdfrwt>
<totfact> 0.25450775E+00</totfact>
</mgrwt>
</event>
<event>
 6    1  0.1585031E-006  0.3655936E+03  0.7818608E-02  0.1056391E+00
          2   -1    0    0  501    0  0.00000000000E+00  0.00000000000E+00  0.80763164227E+03  0.80763164227E+03  0.00000000000E+00 0. -1.
         -2   -1    0    0    0  501 -0.00000000000E+00 -0.00000000000E+00 -0.41373656668E+02  0.41373656668E+02  0.00000000000E+00 0.  1.
         23    2    1    2    0    0 -0.14464532102E+03  0.62902788316E+02  0.56265181282E+03  0.59145044407E+03  0.91419558380E+02 0.  0.
         11    1    3    3    0    0 -0.15033220401E+03  0.48032776034E+02  0.43374685762E+03  0.46156609021E+03  0.00000000000E+00 0.  1.
        -11    1    3    3    0    0  0.56868829921E+01  0.14870012282E+02  0.12890495520E+03  0.12988435387E+03  0.00000000000E+00 0. -1.
         22    1    1    2    0    0  0.14464532102E+03 -0.62902788316E+02  0.20360617278E+03  0.25755485487E+03  0.00000000000E+00 0.  1.
<mgrwt>
<rscale>  0 0.36559362E+03</rscale>
<asrwt>0</asrwt>
<pdfrwt beam="1">  1        2 0.12425101E+00 0.36559362E+03</pdfrwt>
<pdfrwt beam="2">  1       -2 0.63651786E-02 0.36559362E+03</pdfrwt>
<totfact> 0.47562210E+03</totfact>
</mgrwt>
</event>
<event>
 6    1  0.1585031E-006  0.4586505E+04  0.7818608E-02  0.7895665E-01
         -1   -1    0    0    0  501 -0.00000000000E+00  0.00000000000E+00  0.18924117042E+04  0.18924117042E+04  0.00000000000E+00 0.  1.
          1   -1    0    0  501    0  0.00000000000E+00 -0.00000000000E+00 -0.27789976052E+04  0.27789976052E+04  0.00000000000E+00 0. -1.
         23    2    1    2    0    0  0.95532965592E+03 -0.38666412643E+03 -0.25289604951E+04  0.27324512887E+04  0.92113849155E+02 0.  0.
         11    1    3    3    0    0  0.69704029816E+03 -0.25071963111E+03 -0.17338998626E+04  0.18855063628E+04  0.00000000000E+00 0. -1.
        -11    1    3    3    0    0  0.25828935777E+03 -0.13594449532E+03 -0.79506063251E+03  0.84694492590E+03  0.00000000000E+00 0.  1.
         22    1    1    2    0    0 -0.95532965592E+03  0.38666412643E+03  0.16423745942E+04  0.19389580206E+04  0.00000000000E+00 0.  1.
<mgrwt>
<rscale>  0 0.45865052E+04</rscale>
<asrwt>0</asrwt>
<pdfrwt beam="1">  1        1 0.42753809E+00 0.45865052E+04</pdfrwt>
<pdfrwt beam="2">  1       -1 0.29114026E+00 0.45865052E+04</pdfrwt>
<totfact> 0.24262110E-02</totfact>
</mgrwt>
</event>
<event>
 6    1  0.1585031E-006  0.2216112E+04  0.7818608E-02  0.8511752E-01
         -1   -1    0    0    0  501 -0.00000000000E+00  0.00000000000E+00  0.55137893494E+03  0.55137893494E+03  0.00000000000E+00 0.  1.
          1   -1    0    0  501    0  0.00000000000E+00 -0.00000000000E+00 -0.22267586724E+04  0.22267586724E+04  0.00000000000E+00 0. -1.
         23    2    1    2    0    0  0.11617983156E+03 -0.10493727777E+04 -0.12521718958E+04  0.16406905286E+04  0.96176785344E+02 0.  0.
         11    1    3    3    0    0  0.43782214640E+02 -0.28385265906E+03 -0.40617942320E+03  0.49746450949E+03  0.00000000000E+00 0. -1.
        -11    1    3    3    0    0  0.72397616918E+02 -0.76552011864E+03 -0.84599247260E+03  0.11432260191E+04  0.00000000000E+00 0.  1.
         22    1    1    2    0    0 -0.11617983156E+03  0.10493727777E+04 -0.42320784171E+03  0.11374470788E+04  0.00000000000E+00 0. -1.
<mgrwt>
<rscale>  0 0.22161118E+04</rscale>
<asrwt>0</asrwt>
<pdfrwt beam="1">  1        1 0.34257825E+00 0.22161118E+04</pdfrwt>
<pdfrwt beam="2">  1       -1 0.84827530E-01 0.22161118E+04</pdfrwt>
<totfact> 0.26147312E+00</totfact>
</mgrwt>
</event>
<event>
 6    1  0.1585031E-006  0.8175651E+03  0.7818608E-02  0.9534935E-01
          1   -1    0    0  501    0  0.00000000000E+00  0.00000000000E+00  0.72443613153E+03  0.72443613153E+03  0.00000000000E+00 0. -1.
         -1   -1    0    0    0  501 -0.00000000000E+00 -0.00000000000E+00 -0.23066652777E+03  0.23066652777E+03  0.00000000000E+00 0.  1.
         23    2    1    2    0    0  0.10744823979E+03  0.36309196845E+03  0.80075086814E+02  0.39427821695E+03  0.75248860738E+02 0.  0.
         11    1    3    3    0    0  0.10434455450E+03  0.22605380299E+03  0.53239522327E+02  0.25460273886E+03  0.00000000000E+00 0. -1.
        -11    1    3    3    0    0  0.31036852860E+01  0.13703816547E+03  0.26835564487E+02  0.13967547809E+03  0.00000000000E+00 0.  1.
         22    1    1    2    0    0 -0.10744823979E+03 -0.36309196845E+03  0.41369451694E+03  0.56082444235E+03  0.00000000000E+00 0. -1.
<mgrwt>
<rscale>  0 0.81756508E+03</rscale>
<asrwt>0</asrwt>
<pdfrwt beam="1">  1        1 0.11145171E+00 0.81756508E+03</pdfrwt>
<pdfrwt beam="2">  1       -1 0.35487158E-01 0.81756508E+03</pdfrwt>
<totfact> 0.19753205E+02</totfact>
</mgrwt>
</event>
<event>
 6    1  0.1585031E-006  0.3987465E+04  0.7818608E-02  0.8007080E-01
         -1   -1    0    0    0  501 -0.00000000000E+00  0.00000000000E+00  0.17926406973E+04  0.17926406973E+04  0.00000000000E+00 0.  1.
          1   -1    0    0  501    0  0.00000000000E+00 -0.00000000000E+00 -0.22173824945E+04  0.22173824945E+04  0.00000000000E+00 0. -1.
         23    2    1    2    0    0 -0.46178310466E+03 -0.13643593437E+04 -0.15972672360E+04  0.21527305495E+04  0.90918319245E+02 0.  0.
         13    1    3    3    0    0 -0.22058383401E+03 -0.63184782637E+03 -0.67536049417E+03  0.95078951435E+03  0.00000000000E+00 0. -1.
        -13    1    3    3    0    0 -0.24119927065E+03 -0.73251151735E+03 -0.92190674185E+03  0.12019410351E+04  0.00000000000E+00 0.  1.
         22    1    1    2    0    0  0.46178310466E+03  0.13643593437E+04  0.11725254389E+04  0.18572926424E+04  0.00000000000E+00 0.  1.
<mgrwt>
<rscale>  0 0.39874654E+04</rscale>
<asrwt>0</asrwt>
<pdfrwt beam="1">  1        1 0.34113577E+00 0.39874654E+04</pdfrwt>
<pdfrwt beam="2">  1       -1 0.27579088E+00 0.39874654E+04</pdfrwt>
<totfact> 0.78708850E-02</totfact>
</mgrwt>
</event>
<event>
 6    1  0.1585031E-006  0.1054776E+04  0.7818608E-02  0.9250427E-01
          3   -1    0    0  501    0  0.00000000000E+00  0.00000000000E+00  0.26336287261E+03  0.26336287261E+03  0.00000000000E+00 0. -1.
         -3   -1    0    0    0  501 -0.00000000000E+00 -0.00000000000E+00 -0.10561026806E+04  0.10561026806E+04  0.00000000000E+00 0.  1.
         23    2    1    2    0    0 -0.33603658962E+03 -0.81367513721E+02  0.92981575178E+02  0.36865346322E+03  0.87855226199E+02 0.  0.
         13    1    3    3    0    0 -0.27200081294E+03 -0.37146890260E+02  0.95856886138E+02  0.29077977288E+03  0.00000000000E+00 0.  1.
        -13    1    3    3    0    0 -0.64035776671E+02 -0.44220623461E+02 -0.28753109593E+01  0.77873690334E+02  0.00000000000E+00 0. -1.
         22    1    1    2    0    0  0.33603658962E+03  0.81367513721E+02 -0.88572138312E+03  0.95081208994E+03  0.00000000000E+00 0.  1.
<mgrwt>
<rscale>  0 0.10547763E+04</rscale>
<asrwt>0</asrwt>
<pdfrwt beam="1">  1        3 0.40517366E-01 0.10547763E+04</pdfrwt>
<pdfrwt beam="2">  1       -3 0.16247733E+00 0.10547763E+04</pdfrwt>
<totfact> 0.41318414E+00</totfact>
</mgrwt>
</event>
<event>
 6    1  0.1585031E-006  0.3357108E+04  0.7818608E-02  0.8148514E-01
         -2   -1    0    0    0  501 -0.00000000000E+00  0.00000000000E+00  0.32367165201E+04  0.32367165201E+04  0.00000000000E+00 0.  1.
          2   -1    0    0  501    0  0.00000000000E+00 -0.00000000000E+00 -0.87049426555E+03  0.87049426555E+03  0.00000000000E+00 0. -1.
         23    2    1    2    0    0  0.21473315312E+03  0.47298889738E+03  0.31352660913E+04  0.31791713216E+04  0.86069768826E+02 0.  0.
         13    1    3    3    0    0  0.19027432668E+03  0.32560255750E+03  0.22536810081E+04  0.22850162868E+04  0.00000000000E+00 0. -1.
        -13    1    3    3    0    0  0.24458826442E+02  0.14738633988E+03  0.88158508317E+03  0.89415503479E+03  0.00000000000E+00 0.  1.
         22    1    1    2    0    0 -0.21473315312E+03 -0.47298889738E+03 -0.76904383669E+03  0.92803946406E+03  0.00000000000E+00 0. -1.
<mgrwt>
<rscale>  0 0.33571078E+04</rscale>
<asrwt>0</asrwt>
<pdfrwt beam="1">  1        2 0.13392220E+00 0.33571078E+04</pdfrwt>
<pdfrwt beam="2">  1       -2 0.49795638E+00 0.33571078E+04</pdfrwt>
<totfact> 0.43289113E-02</totfact>
</mgrwt>
</event>
<event>
 6    1  0.1585031E-006  0.5011260E+04  0.7818608E-02  0.7826773E-01
         -2   -1    0    0    0  501 -0.00000000000E+00  0.00000000000E+00  0.18973662936E+04  0.18973662936E+04  0.00000000000E+00 0.  1.
          2   -1    0    0  501    0  0.00000000000E+00 -0.00000000000E+00 -0.33088922608E+04  0.33088922608E+04  0.00000000000E+00 0. -1.
         23    2    1    2    0    0 -0.92339424600E+03  0.20252116683E+04 -0.18995655973E+04  0.29275918575E+04  0.91133914616E+02 0.  0.
         13    1    3    3    0    0 -0.52567873240E+03  0.10555190489E+04 -0.97822572545E+03  0.15321175419E+04  0.00000000000E+00 0. -1.
        -13    1    3    3    0    0 -0.39771551360E+03  0.96969261936E+03 -0.92133987186E+03  0.13954743155E+04  0.00000000000E+00 0.  1.
         22    1    1    2    0    0  0.92339424600E+03 -0.20252116683E+04  0.48803963007E+03  0.22786666969E+04  0.00000000000E+00 0.  1.
<mgrwt>
<rscale>  0 0.50112596E+04</rscale>
<asrwt>0</asrwt>
<pdfrwt beam="1">  1        2 0.50906035E+00 0.50112596E+04</pdfrwt>
<pdfrwt beam="2">  1       -2 0.29190250E+00 0.50112596E+04</pdfrwt>
<totfact> 0.28432628E-02</totfact>
</mgrwt>
</event>
<event>
 6    1  0.1585031E-006  0.1145861E+04  0.7818608E-02  0.9161610E-01
          2   -1    0    0  501    0  0.00000000000E+00  0.00000000000E+00  0.97386968626E+03  0.97386968626E+03  0.00000000000E+00 0. -1.
         -2   -1    0    0    0  501 -0.00000000000E+00 -0.00000000000E+00 -0.33705692807E+03  0.33705692807E+03  0.00000000000E+00 0.  1.
         23    2    1    2    0    0  0.36185682178E+02 -0.56515553083E+03  0.39147466309E+03  0.69375487281E+03  0.85634304360E+02 0.  0.
         13    1    3    3    0    0 -0.13402224163E+01 -0.33255877057E+03  0.27177750101E+03  0.42948823283E+03  0.00000000000E+00 0. -1.
        -13    1    3    3    0    0  0.37525904594E+02 -0.23259676025E+03  0.11969716207E+03  0.26426663998E+03  0.00000000000E+00 0.  1.
         22    1    1    2    0    0 -0.36185682178E+02  0.56515553083E+03  0.24533809510E+03  0.61717174152E+03  0.00000000000E+00 0.  1.
<mgrwt>
<rscale>  0 0.11458613E+04</rscale>
<asrwt>0</asrwt>
<pdfrwt beam="1">  1        2 0.14982610E+00 0.11458613E+04</pdfrwt>
<pdfrwt beam="2">  1       -2 0.51854912E-01 0.11458613E+04</pdfrwt>
<totfact> 0.91056902E+01</totfact>
</mgrwt>
</event>
<event>
 6    1  0.1585031E-006  0.1495183E+04  0.7818608E-02  0.8887663E-01
          1   -1    0    0  501    0  0.00000000000E+00  0.00000000000E+00  0.10294771013E+04  0.10294771013E+04  0.00000000000E+00 0. -1.
         -1   -1    0    0    0  501 -0.00000000000E+00 -0.00000000000E+00 -0.54289002502E+03  0.54289002502E+03  0.00000000000E+00 0.  1.
         23    2    1    2    0    0  0.21649039606E+03  0.24060367848E+03  0.94983774295E+03  0.10072481991E+04  0.87172099488E+02 0.  0.
         11    1    3    3    0    0  0.42306747217E+02  0.10556989967E+03  0.36240316877E+03  0.37983012165E+03  0.00000000000E+00 0.  1.
        -11    1    3    3    0    0  0.17418364884E+03  0.13503377881E+03  0.58743457418E+03  0.62741807743E+03  0.00000000000E+00 0. -1.
         22    1    1    2    0    0 -0.21649039606E+03 -0.24060367848E+03 -0.46325066670E+03  0.56511892720E+03  0.00000000000E+00 0.  1.
<mgrwt>
<rscale>  0 0.14951827E+04</rscale>
<asrwt>0</asrwt>
<pdfrwt beam="1">  1        1 0.15838109E+00 0.14951827E+04</pdfrwt>
<pdfrwt beam="2">  1       -1 0.83521542E-01 0.14951827E+04</pdfrwt>
<totfact> 0.19756662E+01</totfact>
</mgrwt>
</event>
<event>
 6    1  0.1585031E-006  0.7331870E+03  0.7818608E-02  0.9662103E-01
         -1   -1    0    0    0  501 -0.00000000000E+00  0.00000000000E+00  0.87965011156E+02  0.87965011156E+02  0.00000000000E+00 0.  1.
          1   -1    0    0  501    0  0.00000000000E+00 -0.00000000000E+00 -0.15277756277E+04  0.15277756277E+04  0.00000000000E+00 0. -1.
         23    2    1    2    0    0 -0.56020947445E+02 -0.35022318636E+03 -0.58176150809E+03  0.68727798515E+03  0.90055259439E+02 0.  0.
         13    1    3    3    0    0  0.71976347222E+01 -0.15392695053E+03 -0.30940501427E+03  0.34565412611E+03  0.00000000000E+00 0.  1.
        -13    1    3    3    0    0 -0.63218582167E+02 -0.19629623584E+03 -0.27235649383E+03  0.34162385904E+03  0.00000000000E+00 0. -1.
         22    1    1    2    0    0  0.56020947445E+02  0.35022318636E+03 -0.85804910847E+03  0.92846265373E+03  0.00000000000E+00 0. -1.
<mgrwt>
<rscale>  0 0.73318702E+03</rscale>
<asrwt>0</asrwt>
<pdfrwt beam="1">  1        1 0.23504240E+00 0.73318702E+03</pdfrwt>
<pdfrwt beam="2">  1       -1 0.13533079E-01 0.73318702E+03</pdfrwt>
<totfact> 0.24817520E+02</totfact>
</mgrwt>
</event>
<event>
 6    1  0.1585031E-006  0.1438966E+04  0.7818608E-02  0.8926086E-01
          2   -1    0    0  501    0  0.00000000000E+00  0.00000000000E+00  0.24876107159E+03  0.24876107159E+03  0.00000000000E+00 0. -1.
         -2   -1    0    0    0  501 -0.00000000000E+00 -0.00000000000E+00 -0.20809342721E+04  0.20809342721E+04  0.00000000000E+00 0.  1.
         23    2    1    2    0    0  0.45807525039E+03  0.33322102022E+03 -0.16301507399E+04  0.17282950960E+04  0.93505726236E+02 0.  0.
         13    1    3    3    0    0  0.12822683938E+03  0.44537885688E+02 -0.37662952667E+03  0.40034428428E+03  0.00000000000E+00 0.  1.
        -13    1    3    3    0    0  0.32984841102E+03  0.28868313454E+03 -0.12535212132E+04  0.13279508117E+04  0.00000000000E+00 0. -1.
         22    1    1    2    0    0 -0.45807525039E+03 -0.33322102022E+03 -0.20202246068E+03  0.60140024772E+03  0.00000000000E+00 0. -1.
<mgrwt>
<rscale>  0 0.14389655E+04</rscale>
<asrwt>0</asrwt>
<pdfrwt beam="1">  1        2 0.38270934E-01 0.14389655E+04</pdfrwt>
<pdfrwt beam="2">  1       -2 0.32014373E+00 0.14389655E+04</pdfrwt>
<totfact> 0.31576642E+00</totfact>
</mgrwt>
</event>
<event>
 6    1  0.1585031E-006  0.4257398E+04  0.7818608E-02  0.7954543E-01
         -2   -1    0    0    0  501 -0.00000000000E+00  0.00000000000E+00  0.23911476851E+04  0.23911476851E+04  0.00000000000E+00 0.  1.
          2   -1    0    0  501    0  0.00000000000E+00 -0.00000000000E+00 -0.18950558609E+04  0.18950558609E+04  0.00000000000E+00 0. -1.
         23    2    1    2    0    0  0.27677932069E+03  0.28279277855E+03 -0.18565641059E+04  0.19005027112E+04  0.92204814535E+02 0.  0.
         13    1    3    3    0    0  0.21749220300E+03  0.25938513983E+03 -0.16484549451E+04  0.16828509189E+04  0.00000000000E+00 0.  1.
        -13    1    3    3    0    0  0.59287117683E+02  0.23407638722E+02 -0.20810916085E+03  0.21765179232E+03  0.00000000000E+00 0. -1.
         22    1    1    2    0    0 -0.27677932069E+03 -0.28279277855E+03  0.23526559301E+04  0.23857008349E+04  0.00000000000E+00 0.  1.
<mgrwt>
<rscale>  0 0.42573975E+04</rscale>
<asrwt>0</asrwt>
<pdfrwt beam="1">  1        2 0.29154706E+00 0.42573975E+04</pdfrwt>
<pdfrwt beam="2">  1       -2 0.36786887E+00 0.42573975E+04</pdfrwt>
<totfact> 0.70724515E-02</totfact>
</mgrwt>
</event>
<event>
 6    1  0.1585031E-006  0.1570331E+04  0.7818608E-02  0.8838985E-01
         -1   -1    0    0    0  501 -0.00000000000E+00  0.00000000000E+00  0.60401246249E+03  0.60401246249E+03  0.00000000000E+00 0.  1.
          1   -1    0    0  501    0  0.00000000000E+00 -0.00000000000E+00 -0.10206498786E+04  0.10206498786E+04  0.00000000000E+00 0. -1.
         23    2    1    2    0    0  0.65626032383E+03  0.15120252004E+03  0.20273252491E+03  0.70969844097E+03  0.95034655556E+02 0.  0.
         11    1    3    3    0    0  0.25760395397E+03  0.10093569774E+03  0.58550797283E+02  0.28280029710E+03  0.00000000000E+00 0. -1.
        -11    1    3    3    0    0  0.39865636986E+03  0.50266822298E+02  0.14418172763E+03  0.42689814387E+03  0.00000000000E+00 0.  1.
         22    1    1    2    0    0 -0.65626032383E+03 -0.15120252004E+03 -0.61936994105E+03  0.91496390015E+03  0.00000000000E+00 0. -1.
<mgrwt>
<rscale>  0 0.15703315E+04</rscale>
<asrwt>0</asrwt>
<pdfrwt beam="1">  1        1 0.15702306E+00 0.15703315E+04</pdfrwt>
<pdfrwt beam="2">  1       -1 0.92924995E-01 0.15703315E+04</pdfrwt>
<totfact> 0.15782143E+01</totfact>
</mgrwt>
</event>
<event>
 6    1  0.1585031E-006  0.2486131E+04  0.7818608E-02  0.8407943E-01
         -2   -1    0    0    0  501 -0.00000000000E+00  0.00000000000E+00  0.14276409854E+04  0.14276409854E+04  0.00000000000E+00 0.  1.
          2   -1    0    0  501    0  0.00000000000E+00 -0.00000000000E+00 -0.10823534611E+04  0.10823534611E+04  0.00000000000E+00 0. -1.
         23    2    1    2    0    0 -0.96276870134E+03  0.74859732667E+01 -0.61809924043E+03  0.11479762122E+04  0.93931361481E+02 0.  0.
         11    1    3    3    0    0 -0.90040690711E+02 -0.73546502655E+00 -0.27461780744E+02  0.94138282830E+02  0.00000000000E+00 0.  1.
        -11    1    3    3    0    0 -0.87272801063E+03  0.82214382933E+01 -0.59063745969E+03  0.10538379294E+04  0.00000000000E+00 0. -1.
         22    1    1    2    0    0  0.96276870134E+03 -0.74859732667E+01  0.96338676472E+03  0.13620182343E+04  0.00000000000E+00 0. -1.
<mgrwt>
<rscale>  0 0.24861313E+04</rscale>
<asrwt>0</asrwt>
<pdfrwt beam="1">  1        2 0.16651592E+00 0.24861313E+04</pdfrwt>
<pdfrwt beam="2">  1       -2 0.21963707E+00 0.24861313E+04</pdfrwt>
<totfact> 0.19818993E+00</totfact>
</mgrwt>
</event>
<event>
 6    1  0.1585031E-006  0.2805556E+04  0.7818608E-02  0.8301545E-01
         -2   -1    0    0    0  501 -0.00000000000E+00  0.00000000000E+00  0.94368680111E+03  0.94368680111E+03  0.00000000000E+00 0.  1.
          2   -1    0    0  501    0  0.00000000000E+00 -0.00000000000E+00 -0.20852114383E+04  0.20852114383E+04  0.00000000000E+00 0. -1.
         23    2    1    2    0    0  0.32657960382E+03 -0.22524289792E+03  0.87956613131E+03  0.96923892408E+03  0.91645577662E+02 0.  0.
         13    1    3    3    0    0  0.30044062769E+03 -0.17194690545E+03  0.77919062068E+03  0.85262437944E+03  0.00000000000E+00 0.  1.
        -13    1    3    3    0    0  0.26138976128E+02 -0.53295992473E+02  0.10037551063E+03  0.11661454464E+03  0.00000000000E+00 0. -1.
         22    1    1    2    0    0 -0.32657960382E+03  0.22524289792E+03 -0.20210907685E+04  0.20596593154E+04  0.00000000000E+00 0. -1.
<mgrwt>
<rscale>  0 0.28055563E+04</rscale>
<asrwt>0</asrwt>
<pdfrwt beam="1">  1        2 0.32080176E+00 0.28055563E+04</pdfrwt>
<pdfrwt beam="2">  1       -2 0.14518259E+00 0.28055563E+04</pdfrwt>
<totfact> 0.17012125E+00</totfact>
</mgrwt>
</event>
<event>
 6    1  0.1585031E-006  0.3290563E+04  0.7818608E-02  0.8165301E-01
          2   -1    0    0  501    0  0.00000000000E+00  0.00000000000E+00  0.15437960418E+04  0.15437960418E+04  0.00000000000E+00 0. -1.
         -2   -1    0    0    0  501 -0.00000000000E+00 -0.00000000000E+00 -0.17534383347E+04  0.17534383347E+04  0.00000000000E+00 0.  1.
         23    2    1    2    0    0 -0.43731491195E+03  0.80990442780E+03  0.12602591837E+04  0.15629334034E+04  0.85545889193E+02 0.  0.
         11    1    3    3    0    0 -0.32213465393E+03  0.55208415956E+03  0.92892234270E+03  0.11275922904E+04  0.00000000000E+00 0. -1.
        -11    1    3    3    0    0 -0.11518025802E+03  0.25782026824E+03  0.33133684099E+03  0.43534111309E+03  0.00000000000E+00 0.  1.
         22    1    1    2    0    0  0.43731491195E+03 -0.80990442780E+03 -0.14699014765E+04  0.17343009731E+04  0.00000000000E+00 0.  1.
<mgrwt>
<rscale>  0 0.32905630E+04</rscale>
<asrwt>0</asrwt>
<pdfrwt beam="1">  1        2 0.23750708E+00 0.32905630E+04</pdfrwt>
<pdfrwt beam="2">  1       -2 0.26975974E+00 0.32905630E+04</pdfrwt>
<totfact> 0.48745158E-01</totfact>
</mgrwt>
</event>
<event>
 6    1  0.1585031E-006  0.2828677E+04  0.7818608E-02  0.8294420E-01
          2   -1    0    0  501    0  0.00000000000E+00  0.00000000000E+00  0.17875480806E+04  0.17875480806E+04  0.00000000000E+00 0. -1.
         -2   -1    0    0    0  501 -0.00000000000E+00 -0.00000000000E+00 -0.11190489704E+04  0.11190489704E+04  0.00000000000E+00 0.  1.
         23    2    1    2    0    0  0.12408510814E+04  0.41235514765E+03  0.88479054318E+03  0.15812555260E+04  0.88128084261E+02 0.  0.
         13    1    3    3    0    0  0.58837935986E+03  0.17109026200E+03  0.45953859503E+03  0.76592288723E+03  0.00000000000E+00 0. -1.
        -13    1    3    3    0    0  0.65247172152E+03  0.24126488565E+03  0.42525194815E+03  0.81533263877E+03  0.00000000000E+00 0.  1.
         22    1    1    2    0    0 -0.12408510814E+04 -0.41235514765E+03 -0.21629143288E+03  0.13253415250E+04  0.00000000000E+00 0.  1.
<mgrwt>
<rscale>  0 0.28286773E+04</rscale>
<asrwt>0</asrwt>
<pdfrwt beam="1">  1        2 0.27500740E+00 0.28286773E+04</pdfrwt>
<pdfrwt beam="2">  1       -2 0.17216138E+00 0.28286773E+04</pdfrwt>
<totfact> 0.15661180E+00</totfact>
</mgrwt>
</event>
<event>
 6    1  0.1585031E-006  0.4220854E+04  0.7818608E-02  0.7961417E-01
         -1   -1    0    0    0  501 -0.00000000000E+00  0.00000000000E+00  0.14607229253E+04  0.14607229253E+04  0.00000000000E+00 0.  1.
          1   -1    0    0  501    0  0.00000000000E+00 -0.00000000000E+00 -0.30491081332E+04  0.30491081332E+04  0.00000000000E+00 0. -1.
         23    2    1    2    0    0 -0.17732071323E+04  0.32334174814E+03 -0.19652394148E+04  0.26684097288E+04  0.97113868740E+02 0.  0.
         11    1    3    3    0    0 -0.28381767313E+03  0.47631564479E+02 -0.26337653971E+03  0.39011336709E+03  0.00000000000E+00 0.  1.
        -11    1    3    3    0    0 -0.14893894591E+04  0.27571018366E+03 -0.17018628751E+04  0.22782963617E+04  0.00000000000E+00 0. -1.
         22    1    1    2    0    0  0.17732071323E+04 -0.32334174814E+03  0.37685420687E+03  0.18414213296E+04  0.00000000000E+00 0.  1.
<mgrwt>
<rscale>  0 0.42208540E+04</rscale>
<asrwt>0</asrwt>
<pdfrwt beam="1">  1        1 0.46909355E+00 0.42208540E+04</pdfrwt>
<pdfrwt beam="2">  1       -1 0.22472661E+00 0.42208540E+04</pdfrwt>
<totfact> 0.43258357E-02</totfact>
</mgrwt>
</event>
<event>
 6    1  0.1585031E-006  0.4006344E+04  0.7818608E-02  0.8003268E-01
         -1   -1    0    0    0  501 -0.00000000000E+00  0.00000000000E+00  0.17577355584E+04  0.17577355584E+04  0.00000000000E+00 0.  1.
          1   -1    0    0  501    0  0.00000000000E+00 -0.00000000000E+00 -0.22828791418E+04  0.22828791418E+04  0.00000000000E+00 0. -1.
         23    2    1    2    0    0  0.11516904438E+04 -0.14845462874E+04 -0.95911095441E+03  0.21122484910E+04  0.10691728977E+03 0.  0.
         13    1    3    3    0    0  0.39205299280E+03 -0.46939067191E+03 -0.26203584824E+03  0.66535399436E+03  0.00000000000E+00 0. -1.
        -13    1    3    3    0    0  0.75963745103E+03 -0.10151556155E+04 -0.69707510617E+03  0.14468944966E+04  0.00000000000E+00 0.  1.
         22    1    1    2    0    0 -0.11516904438E+04  0.14845462874E+04  0.43396737095E+03  0.19283662092E+04  0.00000000000E+00 0.  1.
<mgrwt>
<rscale>  0 0.40063439E+04</rscale>
<asrwt>0</asrwt>
<pdfrwt beam="1">  1        1 0.35121217E+00 0.40063439E+04</pdfrwt>
<pdfrwt beam="2">  1       -1 0.27042086E+00 0.40063439E+04</pdfrwt>
<totfact> 0.76803439E-02</totfact>
</mgrwt>
</event>
<event>
 6    1  0.1585031E-006  0.5350085E+04  0.7818608E-02  0.7776661E-01
         -2   -1    0    0    0  501 -0.00000000000E+00  0.00000000000E+00  0.30774268539E+04  0.30774268539E+04  0.00000000000E+00 0.  1.
          2   -1    0    0  501    0  0.00000000000E+00 -0.00000000000E+00 -0.23252716000E+04  0.23252716000E+04  0.00000000000E+00 0. -1.
         23    2    1    2    0    0  0.37738461866E+03  0.20608364715E+04  0.20545881280E+04  0.29357575336E+04  0.88734479804E+02 0.  0.
         11    1    3    3    0    0  0.21543502972E+03  0.13062428034E+04  0.12474063132E+04  0.18189846134E+04  0.00000000000E+00 0. -1.
        -11    1    3    3    0    0  0.16194958894E+03  0.75459366809E+03  0.80718181478E+03  0.11167729202E+04  0.00000000000E+00 0.  1.
         22    1    1    2    0    0 -0.37738461866E+03 -0.20608364715E+04 -0.13024328741E+04  0.24669409203E+04  0.00000000000E+00 0. -1.
<mgrwt>
<rscale>  0 0.53500853E+04</rscale>
<asrwt>0</asrwt>
<pdfrwt beam="1">  1        2 0.35773409E+00 0.53500853E+04</pdfrwt>
<pdfrwt beam="2">  1       -2 0.47345029E+00 0.53500853E+04</pdfrwt>
<totfact> 0.76054481E-03</totfact>
</mgrwt>
</event>
<event>
 6    1  0.1585031E-006  0.1974515E+04  0.7818608E-02  0.8618629E-01
         -2   -1    0    0    0  501 -0.00000000000E+00  0.00000000000E+00  0.54159489929E+03  0.54159489929E+03  0.00000000000E+00 0.  1.
          2   -1    0    0  501    0  0.00000000000E+00 -0.00000000000E+00 -0.17996430942E+04  0.17996430942E+04  0.00000000000E+00 0. -1.
         23    2    1    2    0    0  0.76328516272E+03 -0.50772827360E+03 -0.10566369270E+04  0.14026439714E+04  0.10264636208E+03 0.  0.
         11    1    3    3    0    0  0.21591110693E+03 -0.12432867555E+03 -0.35464010010E+03  0.43341069006E+03  0.00000000000E+00 0. -1.
        -11    1    3    3    0    0  0.54737405580E+03 -0.38339959804E+03 -0.70199682690E+03  0.96923328137E+03  0.00000000000E+00 0.  1.
         22    1    1    2    0    0 -0.76328516272E+03  0.50772827360E+03 -0.20141126794E+03  0.93859402209E+03  0.00000000000E+00 0.  1.
<mgrwt>
<rscale>  0 0.19745152E+04</rscale>
<asrwt>0</asrwt>
<pdfrwt beam="1">  1        2 0.27686817E+00 0.19745152E+04</pdfrwt>
<pdfrwt beam="2">  1       -2 0.83322293E-01 0.19745152E+04</pdfrwt>
<totfact> 0.10132203E+01</totfact>
</mgrwt>
</event>
<event>
 6    1  0.1585031E-006  0.4349802E+04  0.7818608E-02  0.7937473E-01
         -2   -1    0    0    0  501 -0.00000000000E+00  0.00000000000E+00  0.95569001419E+03  0.95569001419E+03  0.00000000000E+00 0.  1.
          2   -1    0    0  501    0  0.00000000000E+00 -0.00000000000E+00 -0.49495059679E+04  0.49495059679E+04  0.00000000000E+00 0. -1.
         23    2    1    2    0    0 -0.12594130275E+04 -0.11008232273E+03 -0.43987552282E+04  0.45777114784E+04  0.90307978014E+02 0.  0.
         11    1    3    3    0    0 -0.37053766617E+03 -0.14776113506E+02 -0.11591282761E+04  0.12170024059E+04  0.00000000000E+00 0.  1.
        -11    1    3    3    0    0 -0.88887536134E+03 -0.95306209228E+02 -0.32396269521E+04  0.33607090725E+04  0.00000000000E+00 0. -1.
         22    1    1    2    0    0  0.12594130275E+04  0.11008232273E+03  0.40493927440E+03  0.13274845037E+04  0.00000000000E+00 0.  1.
<mgrwt>
<rscale>  0 0.43498016E+04</rscale>
<asrwt>0</asrwt>
<pdfrwt beam="1">  1        2 0.76146246E+00 0.43498016E+04</pdfrwt>
<pdfrwt beam="2">  1       -2 0.14702923E+00 0.43498016E+04</pdfrwt>
<totfact> 0.94868694E-03</totfact>
</mgrwt>
</event>
<event>
 6    1  0.1585031E-006  0.3125029E+04  0.7818608E-02  0.8208902E-01
          1   -1    0    0  501    0  0.00000000000E+00  0.00000000000E+00  0.21875042831E+04  0.21875042831E+04  0.00000000000E+00 0.  1.
         -1   -1    0    0    0  501 -0.00000000000E+00 -0.00000000000E+00 -0.11160899431E+04  0.11160899431E+04  0.00000000000E+00 0. -1.
         23    2    1    2    0    0  0.11180979944E+04  0.58705150111E+03  0.15064664340E+04  0.19679135329E+04  0.92032418034E+02 0.  0.
         11    1    3    3    0    0  0.44672269556E+03  0.22732315694E+03  0.66798303000E+03  0.83512772243E+03  0.00000000000E+00 0.  1.
        -11    1    3    3    0    0  0.67137529889E+03  0.35972834418E+03  0.83848340397E+03  0.11327858104E+04  0.00000000000E+00 0. -1.
         22    1    1    2    0    0 -0.11180979944E+04 -0.58705150111E+03 -0.43505209396E+03  0.13356806934E+04  0.00000000000E+00 0. -1.
<mgrwt>
<rscale>  0 0.31250290E+04</rscale>
<asrwt>0</asrwt>
<pdfrwt beam="1">  1        1 0.33653912E+00 0.31250290E+04</pdfrwt>
<pdfrwt beam="2">  1       -1 0.17170614E+00 0.31250290E+04</pdfrwt>
<totfact> 0.44719255E-01</totfact>
</mgrwt>
</event>
<event>
 6    1  0.1585031E-006  0.1112049E+04  0.7818608E-02  0.9193527E-01
         -2   -1    0    0    0  501 -0.00000000000E+00  0.00000000000E+00  0.62559671625E+03  0.62559671625E+03  0.00000000000E+00 0.  1.
          2   -1    0    0  501    0  0.00000000000E+00 -0.00000000000E+00 -0.49418914224E+03  0.49418914224E+03  0.00000000000E+00 0. -1.
         23    2    1    2    0    0  0.84162166350E+02 -0.42045647058E+03  0.41667541330E+03  0.60476677725E+03  0.90871012533E+02 0.  0.
         11    1    3    3    0    0  0.59253380600E+02 -0.96440221155E+02  0.10057951467E+03  0.15141967554E+03  0.00000000000E+00 0.  1.
        -11    1    3    3    0    0  0.24908785750E+02 -0.32401624943E+03  0.31609589863E+03  0.45334710171E+03  0.00000000000E+00 0. -1.
         22    1    1    2    0    0 -0.84162166350E+02  0.42045647058E+03 -0.28526783929E+03  0.51501908124E+03  0.00000000000E+00 0. -1.
<mgrwt>
<rscale>  0 0.11120487E+04</rscale>
<asrwt>0</asrwt>
<pdfrwt beam="1">  1        2 0.76029098E-01 0.11120487E+04</pdfrwt>
<pdfrwt beam="2">  1       -2 0.96245649E-01 0.11120487E+04</pdfrwt>
<totfact> 0.56006767E+01</totfact>
</mgrwt>
</event>
<event>
 6    1  0.1585031E-006  0.1195949E+04  0.7818608E-02  0.9116410E-01
          1   -1    0    0  501    0  0.00000000000E+00  0.00000000000E+00  0.28052127420E+04  0.28052127420E+04  0.00000000000E+00 0. -1.
         -1   -1    0    0    0  501 -0.00000000000E+00 -0.00000000000E+00 -0.12746751177E+03  0.12746751177E+03  0.00000000000E+00 0.  1.
         23    2    1    2    0    0 -0.58290350487E+03  0.51821123895E+02  0.16056899733E+04  0.17113021801E+04  0.88616795633E+02 0.  0.
         11    1    3    3    0    0 -0.20938680001E+03 -0.23662254953E+02  0.55776777174E+03  0.59624459873E+03  0.00000000000E+00 0.  1.
        -11    1    3    3    0    0 -0.37351670485E+03  0.75483378848E+02  0.10479222015E+04  0.11150575813E+04  0.00000000000E+00 0. -1.
         22    1    1    2    0    0  0.58290350487E+03 -0.51821123895E+02  0.10720552570E+04  0.12213780737E+04  0.00000000000E+00 0.  1.
<mgrwt>
<rscale>  0 0.11959490E+04</rscale>
<asrwt>0</asrwt>
<pdfrwt beam="1">  1        1 0.43157115E+00 0.11959490E+04</pdfrwt>
<pdfrwt beam="2">  1       -1 0.19610389E-01 0.11959490E+04</pdfrwt>
<totfact> 0.17472873E+01</totfact>
</mgrwt>
</event>
<event>
 6    1  0.1585031E-006  0.1535250E+04  0.7818608E-02  0.8861345E-01
          2   -1    0    0  501    0  0.00000000000E+00  0.00000000000E+00  0.30794543230E+04  0.30794543230E+04  0.00000000000E+00 0. -1.
         -2   -1    0    0    0  501 -0.00000000000E+00 -0.00000000000E+00 -0.19134819655E+03  0.19134819655E+03  0.00000000000E+00 0.  1.
         23    2    1    2    0    0 -0.39411559790E+03 -0.57424348074E+03  0.77453958733E+03  0.10454382359E+04  0.89145123611E+02 0.  0.
         13    1    3    3    0    0 -0.23066595347E+03 -0.29609594644E+03  0.35921991549E+03  0.51953685074E+03  0.00000000000E+00 0. -1.
        -13    1    3    3    0    0 -0.16344964443E+03 -0.27814753430E+03  0.41531967184E+03  0.52590138517E+03  0.00000000000E+00 0.  1.
         22    1    1    2    0    0  0.39411559790E+03  0.57424348074E+03  0.21135665391E+04  0.22253642836E+04  0.00000000000E+00 0. -1.
<mgrwt>
<rscale>  0 0.15352499E+04</rscale>
<asrwt>0</asrwt>
<pdfrwt beam="1">  1        2 0.47376217E+00 0.15352499E+04</pdfrwt>
<pdfrwt beam="2">  1       -2 0.29438186E-01 0.15352499E+04</pdfrwt>
<totfact> 0.15998839E+01</totfact>
</mgrwt>
</event>
<event>
 6    1  0.1585031E-006  0.9811125E+03  0.7818608E-02  0.9329506E-01
          2   -1    0    0  501    0  0.00000000000E+00  0.00000000000E+00  0.46188093182E+03  0.46188093182E+03  0.00000000000E+00 0.  1.
         -2   -1    0    0    0  501 -0.00000000000E+00 -0.00000000000E+00 -0.52101180568E+03  0.52101180568E+03  0.00000000000E+00 0. -1.
         23    2    1    2    0    0  0.11005128886E+03 -0.33350320909E+03 -0.36734426189E+03  0.51563352763E+03  0.87180567885E+02 0.  0.
         11    1    3    3    0    0  0.66385465858E+02 -0.15958595809E+03 -0.23973870593E+03  0.29554924330E+03  0.00000000000E+00 0.  1.
        -11    1    3    3    0    0  0.43665823000E+02 -0.17391725100E+03 -0.12760555596E+03  0.22008428432E+03  0.00000000000E+00 0. -1.
         22    1    1    2    0    0 -0.11005128886E+03  0.33350320909E+03  0.30821338803E+03  0.46725920988E+03  0.00000000000E+00 0.  1.
<mgrwt>
<rscale>  0 0.98111247E+03</rscale>
<asrwt>0</asrwt>
<pdfrwt beam="1">  1        2 0.71058605E-01 0.98111247E+03</pdfrwt>
<pdfrwt beam="2">  1       -2 0.80155662E-01 0.98111247E+03</pdfrwt>
<totfact> 0.92905411E+01</totfact>
</mgrwt>
</event>
<event>
 6    1  0.1585031E-006  0.2142225E+04  0.7818608E-02  0.8542868E-01
          2   -1    0    0  501    0  0.00000000000E+00  0.00000000000E+00  0.10969040982E+04  0.10969040982E+04  0.00000000000E+00 0. -1.
         -2   -1    0    0    0  501 -0.00000000000E+00 -0.00000000000E+00 -0.10459268962E+04  0.10459268962E+04  0.00000000000E+00 0.  1.
         23    2    1    2    0    0  0.94255057488E+03  0.49592019511E+03 -0.73795408585E+02  0.10704939996E+04  0.78569808276E+02 0.  0.
         13    1    3    3    0    0  0.18586121818E+03  0.94454713387E+02 -0.45723013393E+02  0.21344010696E+03  0.00000000000E+00 0.  1.
        -13    1    3    3    0    0  0.75668935670E+03  0.40146548172E+03 -0.28072395192E+02  0.85705389266E+03  0.00000000000E+00 0. -1.
         22    1    1    2    0    0 -0.94255057488E+03 -0.49592019511E+03  0.12477261062E+03  0.10723369948E+04  0.00000000000E+00 0. -1.
<mgrwt>
<rscale>  0 0.21422245E+04</rscale>
<asrwt>0</asrwt>
<pdfrwt beam="1">  1        2 0.16875448E+00 0.21422245E+04</pdfrwt>
<pdfrwt beam="2">  1       -2 0.16091183E+00 0.21422245E+04</pdfrwt>
<totfact> 0.49840115E+00</totfact>
</mgrwt>
</event>
<event>
 6    1  0.1585031E-006  0.1965148E+04  0.7818608E-02  0.8623091E-01
          2   -1    0    0  501    0  0.00000000000E+00  0.00000000000E+00  0.14596492206E+04  0.14596492206E+04  0.00000000000E+00 0. -1.
         -2   -1    0    0    0  501 -0.00000000000E+00 -0.00000000000E+00 -0.66142707436E+03  0.66142707436E+03  0.00000000000E+00 0.  1.
         23    2    1    2    0    0  0.73436911742E+03 -0.60864616444E+03  0.15498659871E+03  0.97064154072E+03  0.91520493333E+02 0.  0.
         13    1    3    3    0    0  0.26612940351E+03 -0.27543300589E+03  0.77195870118E+02  0.39070116779E+03  0.00000000000E+00 0. -1.
        -13    1    3    3    0    0  0.46823971390E+03 -0.33321315854E+03  0.77790728592E+02  0.57994037293E+03  0.00000000000E+00 0.  1.
         22    1    1    2    0    0 -0.73436911742E+03  0.60864616444E+03  0.64323554750E+03  0.11504347542E+04  0.00000000000E+00 0. -1.
<mgrwt>
<rscale>  0 0.19651478E+04</rscale>
<asrwt>0</asrwt>
<pdfrwt beam="1">  1        2 0.22456142E+00 0.19651478E+04</pdfrwt>
<pdfrwt beam="2">  1       -2 0.10175801E+00 0.19651478E+04</pdfrwt>
<totfact> 0.98795222E+00</totfact>
</mgrwt>
</event>
<event>
 6    1  0.1585031E-006  0.3209628E+04  0.7818608E-02  0.8186279E-01
          2   -1    0    0  501    0  0.00000000000E+00  0.00000000000E+00  0.27617105963E+04  0.27617105963E+04  0.00000000000E+00 0.  1.
         -2   -1    0    0    0  501 -0.00000000000E+00 -0.00000000000E+00 -0.93254824547E+03  0.93254824547E+03  0.00000000000E+00 0. -1.
         23    2    1    2    0    0 -0.78815976463E+03 -0.28290920278E+03 -0.65854472700E+03  0.10693931430E+04  0.93204641589E+02 0.  0.
         11    1    3    3    0    0 -0.40366799799E+03 -0.17988236893E+03 -0.30462732016E+03  0.53675257190E+03  0.00000000000E+00 0. -1.
        -11    1    3    3    0    0 -0.38449176665E+03 -0.10302683385E+03 -0.35391740683E+03  0.53264057109E+03  0.00000000000E+00 0.  1.
         22    1    1    2    0    0  0.78815976463E+03  0.28290920278E+03  0.24877070778E+04  0.26248656988E+04  0.00000000000E+00 0.  1.
<mgrwt>
<rscale>  0 0.32096282E+04</rscale>
<asrwt>0</asrwt>
<pdfrwt beam="1">  1        2 0.42487855E+00 0.32096282E+04</pdfrwt>
<pdfrwt beam="2">  1       -2 0.14346896E+00 0.32096282E+04</pdfrwt>
<totfact> 0.69108270E-01</totfact>
</mgrwt>
</event>
<event>
 6    1  0.1585031E-006  0.1680591E+04  0.7818608E-02  0.8772512E-01
         -1   -1    0    0    0  501 -0.00000000000E+00  0.00000000000E+00  0.54713471634E+03  0.54713471634E+03  0.00000000000E+00 0.  1.
          1   -1    0    0  501    0  0.00000000000E+00 -0.00000000000E+00 -0.12905354146E+04  0.12905354146E+04  0.00000000000E+00 0. -1.
         23    2    1    2    0    0  0.19381312068E+03  0.51073727007E+03  0.32175423097E+03  0.64060241855E+03  0.91812791688E+02 0.  0.
         11    1    3    3    0    0  0.10564451180E+03  0.38574798488E+03  0.21503564735E+03  0.45409536482E+03  0.00000000000E+00 0. -1.
        -11    1    3    3    0    0  0.88168608875E+02  0.12498928519E+03  0.10671858362E+03  0.18650705373E+03  0.00000000000E+00 0.  1.
         22    1    1    2    0    0 -0.19381312068E+03 -0.51073727007E+03 -0.10651549293E+04  0.11970677124E+04  0.00000000000E+00 0. -1.
<mgrwt>
<rscale>  0 0.16805912E+04</rscale>
<asrwt>0</asrwt>
<pdfrwt beam="1">  1        1 0.19854391E+00 0.16805912E+04</pdfrwt>
<pdfrwt beam="2">  1       -1 0.84174572E-01 0.16805912E+04</pdfrwt>
<totfact> 0.12246952E+01</totfact>
</mgrwt>
</event>
<event>
 6    1  0.1615509E-006  0.3487625E+04  0.7818608E-02  0.8116729E-01
         -1   -1    0    0    0  501 -0.00000000000E+00  0.00000000000E+00  0.16004348929E+04  0.16004348929E+04  0.00000000000E+00 0.  1.
          1   -1    0    0  501    0  0.00000000000E+00 -0.00000000000E+00 -0.19000344937E+04  0.19000344937E+04  0.00000000000E+00 0. -1.
         23    2    1    2    0    0 -0.13065726162E+03  0.83029528019E+03  0.13825631385E+04  0.16200085245E+04  0.80530834748E+02 0.  0.
         11    1    3    3    0    0 -0.81256187492E+02  0.27708998652E+03  0.45643954249E+03  0.54010969681E+03  0.00000000000E+00 0.  1.
        -11    1    3    3    0    0 -0.49401074126E+02  0.55320529368E+03  0.92612359598E+03  0.10798988277E+04  0.00000000000E+00 0. -1.
         22    1    1    2    0    0  0.13065726162E+03 -0.83029528019E+03 -0.16821627393E+04  0.18804608621E+04  0.00000000000E+00 0. -1.
<mgrwt>
<rscale>  0 0.34876247E+04</rscale>
<asrwt>0</asrwt>
<pdfrwt beam="1">  1        1 0.29231300E+00 0.34876247E+04</pdfrwt>
<pdfrwt beam="2">  1       -1 0.24622075E+00 0.34876247E+04</pdfrwt>
<totfact> 0.21000565E-01</totfact>
</mgrwt>
</event>
<event>
 6    1  0.1585031E-006  0.3820083E+03  0.7818608E-02  0.1050194E+00
          2   -1    0    0  501    0  0.00000000000E+00  0.00000000000E+00  0.30222155985E+03  0.30222155985E+03  0.00000000000E+00 0. -1.
         -2   -1    0    0    0  501 -0.00000000000E+00 -0.00000000000E+00 -0.12071471813E+03  0.12071471813E+03  0.00000000000E+00 0.  1.
         23    2    1    2    0    0  0.24427888436E+02  0.82824717924E+02 -0.88576878542E+02  0.13938404014E+03  0.64229211420E+02 0.  0.
         11    1    3    3    0    0  0.37170968700E+02  0.63542256095E+02 -0.35990966994E+02  0.81942961436E+02  0.00000000000E+00 0. -1.
        -11    1    3    3    0    0 -0.12743080265E+02  0.19282461829E+02 -0.52585911548E+02  0.57441078700E+02  0.00000000000E+00 0.  1.
         22    1    1    2    0    0 -0.24427888436E+02 -0.82824717924E+02  0.27008372027E+03  0.28355223785E+03  0.00000000000E+00 0. -1.
<mgrwt>
<rscale>  0 0.38200833E+03</rscale>
<asrwt>0</asrwt>
<pdfrwt beam="1">  1        2 0.46495624E-01 0.38200833E+03</pdfrwt>
<pdfrwt beam="2">  1       -2 0.18571495E-01 0.38200833E+03</pdfrwt>
<totfact> 0.26039869E+03</totfact>
</mgrwt>
</event>
<event>
 6    1  0.1585031E-006  0.3121956E+04  0.7818608E-02  0.8209738E-01
         -2   -1    0    0    0  501 -0.00000000000E+00  0.00000000000E+00  0.14222984103E+04  0.14222984103E+04  0.00000000000E+00 0.  1.
          2   -1    0    0  501    0  0.00000000000E+00 -0.00000000000E+00 -0.17131789400E+04  0.17131789400E+04  0.00000000000E+00 0. -1.
         23    2    1    2    0    0  0.40666380334E+02 -0.53010265516E+03 -0.16181662694E+04  0.17056696659E+04  0.90467420917E+02 0.  0.
         13    1    3    3    0    0  0.47058022669E+01 -0.20382834607E+03 -0.75984649528E+03  0.78672411659E+03  0.00000000000E+00 0.  1.
        -13    1    3    3    0    0  0.35960578067E+02 -0.32627430909E+03 -0.85831977411E+03  0.91894554930E+03  0.00000000000E+00 0. -1.
         22    1    1    2    0    0 -0.40666380334E+02  0.53010265516E+03  0.13272857397E+04  0.14298076844E+04  0.00000000000E+00 0.  1.
<mgrwt>
<rscale>  0 0.31219556E+04</rscale>
<asrwt>0</asrwt>
<pdfrwt beam="1">  1        2 0.26356599E+00 0.31219556E+04</pdfrwt>
<pdfrwt beam="2">  1       -2 0.21881514E+00 0.31219556E+04</pdfrwt>
<totfact> 0.82186038E-01</totfact>
</mgrwt>
</event>
<event>
 6    1  0.1585031E-006  0.2259956E+04  0.7818608E-02  0.8493879E-01
         -1   -1    0    0    0  501 -0.00000000000E+00  0.00000000000E+00  0.78609744691E+03  0.78609744691E+03  0.00000000000E+00 0.  1.
          1   -1    0    0  501    0  0.00000000000E+00 -0.00000000000E+00 -0.16242905570E+04  0.16242905570E+04  0.00000000000E+00 0. -1.
         23    2    1    2    0    0 -0.55943591475E+03  0.47651595159E+03  0.49320221157E+03  0.88964821770E+03  0.90496049304E+02 0.  0.
         11    1    3    3    0    0 -0.15597772912E+03  0.13124010152E+03  0.89697992662E+02  0.22270775944E+03  0.00000000000E+00 0.  1.
        -11    1    3    3    0    0 -0.40345818563E+03  0.34527585007E+03  0.40350421891E+03  0.66694045826E+03  0.00000000000E+00 0. -1.
         22    1    1    2    0    0  0.55943591475E+03 -0.47651595159E+03 -0.13313953216E+04  0.15207397862E+04  0.00000000000E+00 0. -1.
<mgrwt>
<rscale>  0 0.22599563E+04</rscale>
<asrwt>0</asrwt>
<pdfrwt beam="1">  1        1 0.24989085E+00 0.22599563E+04</pdfrwt>
<pdfrwt beam="2">  1       -1 0.12093807E+00 0.22599563E+04</pdfrwt>
<totfact> 0.29579654E+00</totfact>
</mgrwt>
</event>
<event>
 6    1  0.1585031E-006  0.3472050E+04  0.7818608E-02  0.8120446E-01
         -2   -1    0    0    0  501 -0.00000000000E+00  0.00000000000E+00  0.10825049356E+04  0.10825049356E+04  0.00000000000E+00 0.  1.
          2   -1    0    0  501    0  0.00000000000E+00 -0.00000000000E+00 -0.27840827539E+04  0.27840827539E+04  0.00000000000E+00 0. -1.
         23    2    1    2    0    0 -0.72365984648E+03  0.43713281600E+02 -0.26066209786E+04  0.27069767434E+04  0.87497078437E+02 0.  0.
         13    1    3    3    0    0 -0.54645004987E+03  0.57084114824E+01 -0.20502280335E+04  0.21218094241E+04  0.00000000000E+00 0. -1.
        -13    1    3    3    0    0 -0.17720979661E+03  0.38004870118E+02 -0.55639294515E+03  0.58516731930E+03  0.00000000000E+00 0.  1.
         22    1    1    2    0    0  0.72365984648E+03 -0.43713281600E+02  0.90504316032E+03  0.11596109462E+04  0.00000000000E+00 0.  1.
<mgrwt>
<rscale>  0 0.34720503E+04</rscale>
<asrwt>0</asrwt>
<pdfrwt beam="1">  1        2 0.42832042E+00 0.34720503E+04</pdfrwt>
<pdfrwt beam="2">  1       -2 0.16653922E+00 0.34720503E+04</pdfrwt>
<totfact> 0.43921095E-01</totfact>
</mgrwt>
</event>
<event>
 6    1  0.1585031E-006  0.1676257E+04  0.7818608E-02  0.8775023E-01
         -1   -1    0    0    0  501 -0.00000000000E+00  0.00000000000E+00  0.36387764992E+03  0.36387764992E+03  0.00000000000E+00 0.  1.
          1   -1    0    0  501    0  0.00000000000E+00 -0.00000000000E+00 -0.19304816108E+04  0.19304816108E+04  0.00000000000E+00 0. -1.
         23    2    1    2    0    0 -0.48836182587E+03  0.28505286289E+03  0.56773803697E+02  0.57531656953E+03  0.89518058407E+02 0.  0.
         13    1    3    3    0    0 -0.28671229195E+03  0.12341750201E+03  0.75661719290E+01  0.31223879502E+03  0.00000000000E+00 0. -1.
        -13    1    3    3    0    0 -0.20164953392E+03  0.16163536088E+03  0.49207631768E+02  0.26307777451E+03  0.00000000000E+00 0.  1.
         22    1    1    2    0    0  0.48836182587E+03 -0.28505286289E+03 -0.16233777646E+04  0.17190426912E+04  0.00000000000E+00 0. -1.
<mgrwt>
<rscale>  0 0.16762567E+04</rscale>
<asrwt>0</asrwt>
<pdfrwt beam="1">  1        1 0.29699717E+00 0.16762567E+04</pdfrwt>
<pdfrwt beam="2">  1       -1 0.55981177E-01 0.16762567E+04</pdfrwt>
<totfact> 0.10226890E+01</totfact>
</mgrwt>
</event>
<event>
 6    1  0.1585031E-006  0.2486304E+04  0.7818608E-02  0.8407881E-01
          1   -1    0    0  501    0  0.00000000000E+00  0.00000000000E+00  0.97225157307E+03  0.97225157307E+03  0.00000000000E+00 0. -1.
         -1   -1    0    0    0  501 -0.00000000000E+00 -0.00000000000E+00 -0.15895343715E+04  0.15895343715E+04  0.00000000000E+00 0.  1.
         23    2    1    2    0    0  0.43215664183E+03  0.16235981187E+03  0.87840233230E+03  0.99647636437E+03  0.90853815440E+02 0.  0.
         11    1    3    3    0    0  0.33340858197E+03  0.14871878672E+03  0.61980936033E+03  0.71933455582E+03  0.00000000000E+00 0.  1.
        -11    1    3    3    0    0  0.98748059865E+02  0.13641025153E+02  0.25859297197E+03  0.27714180855E+03  0.00000000000E+00 0. -1.
         22    1    1    2    0    0 -0.43215664183E+03 -0.16235981187E+03 -0.14956851308E+04  0.15653095802E+04  0.00000000000E+00 0.  1.
<mgrwt>
<rscale>  0 0.24863043E+04</rscale>
<asrwt>0</asrwt>
<pdfrwt beam="1">  1        1 0.14957717E+00 0.24863043E+04</pdfrwt>
<pdfrwt beam="2">  1       -1 0.24454375E+00 0.24863043E+04</pdfrwt>
<totfact> 0.10712369E+00</totfact>
</mgrwt>
</event>
<event>
 6    1  0.1585031E-006  0.1410248E+04  0.7818608E-02  0.8946434E-01
          2   -1    0    0  501    0  0.00000000000E+00  0.00000000000E+00  0.97124845758E+03  0.97124845758E+03  0.00000000000E+00 0.  1.
         -2   -1    0    0    0  501 -0.00000000000E+00 -0.00000000000E+00 -0.51191849101E+03  0.51191849101E+03  0.00000000000E+00 0. -1.
         23    2    1    2    0    0 -0.31732943770E+03  0.38224895488E+03  0.75381368735E+03  0.90564387776E+03  0.71718355635E+02 0.  0.
         11    1    3    3    0    0 -0.18873659580E+03  0.24128798699E+03  0.40195042842E+03  0.50537663397E+03  0.00000000000E+00 0.  1.
        -11    1    3    3    0    0 -0.12859284190E+03  0.14096096789E+03  0.35186325894E+03  0.40026724379E+03  0.00000000000E+00 0. -1.
         22    1    1    2    0    0  0.31732943770E+03 -0.38224895488E+03 -0.29448372079E+03  0.57752307084E+03  0.00000000000E+00 0. -1.
<mgrwt>
<rscale>  0 0.14102483E+04</rscale>
<asrwt>0</asrwt>
<pdfrwt beam="1">  1        2 0.14942284E+00 0.14102483E+04</pdfrwt>
<pdfrwt beam="2">  1       -2 0.78756691E-01 0.14102483E+04</pdfrwt>
<totfact> 0.36624384E+01</totfact>
</mgrwt>
</event>
<event>
 6    1  0.1585031E-006  0.2014388E+04  0.7818608E-02  0.8599923E-01
          1   -1    0    0  501    0  0.00000000000E+00  0.00000000000E+00  0.18987480122E+04  0.18987480122E+04  0.00000000000E+00 0. -1.
         -1   -1    0    0    0  501 -0.00000000000E+00 -0.00000000000E+00 -0.53426785850E+03  0.53426785850E+03  0.00000000000E+00 0.  1.
         23    2    1    2    0    0 -0.90410303833E+02 -0.73324226226E+03  0.15068511345E+04  0.16806278496E+04  0.89952148386E+02 0.  0.
         11    1    3    3    0    0 -0.53105378715E+02 -0.40835294772E+03  0.73789876935E+03  0.84502479547E+03  0.00000000000E+00 0. -1.
        -11    1    3    3    0    0 -0.37304925118E+02 -0.32488931454E+03  0.76895236517E+03  0.83560305411E+03  0.00000000000E+00 0.  1.
         22    1    1    2    0    0  0.90410303833E+02  0.73324226226E+03 -0.14237098078E+03  0.75238802115E+03  0.00000000000E+00 0.  1.
<mgrwt>
<rscale>  0 0.20143883E+04</rscale>
<asrwt>0</asrwt>
<pdfrwt beam="1">  1        1 0.29211508E+00 0.20143883E+04</pdfrwt>
<pdfrwt beam="2">  1       -1 0.82195056E-01 0.20143883E+04</pdfrwt>
<totfact> 0.47606201E+00</totfact>
</mgrwt>
</event>
<event>
 6    1  0.1585031E-006  0.3601134E+04  0.7818608E-02  0.8090232E-01
         -1   -1    0    0    0  501 -0.00000000000E+00  0.00000000000E+00  0.16521384876E+04  0.16521384876E+04  0.00000000000E+00 0.  1.
          1   -1    0    0  501    0  0.00000000000E+00 -0.00000000000E+00 -0.19623308234E+04  0.19623308234E+04  0.00000000000E+00 0. -1.
         23    2    1    2    0    0  0.83201180284E+02 -0.49103561982E+03 -0.18907106007E+04  0.19573403473E+04  0.91412488874E+02 0.  0.
         11    1    3    3    0    0  0.31426903645E+02 -0.89757562645E+02 -0.24998846196E+03  0.26746644918E+03  0.00000000000E+00 0. -1.
        -11    1    3    3    0    0  0.51774276639E+02 -0.40127805718E+03 -0.16407221388E+04  0.16898738981E+04  0.00000000000E+00 0.  1.
         22    1    1    2    0    0 -0.83201180284E+02  0.49103561982E+03  0.15805182650E+04  0.16571289637E+04  0.00000000000E+00 0.  1.
<mgrwt>
<rscale>  0 0.36011344E+04</rscale>
<asrwt>0</asrwt>
<pdfrwt beam="1">  1        1 0.30189705E+00 0.36011344E+04</pdfrwt>
<pdfrwt beam="2">  1       -1 0.25417515E+00 0.36011344E+04</pdfrwt>
<totfact> 0.16743234E-01</totfact>
</mgrwt>
</event>
<event>
 6    1  0.1585031E-006  0.2800163E+04  0.7818608E-02  0.8303218E-01
          1   -1    0    0  501    0  0.00000000000E+00  0.00000000000E+00  0.15220112459E+04  0.15220112459E+04  0.00000000000E+00 0. -1.
         -1   -1    0    0    0  501 -0.00000000000E+00 -0.00000000000E+00 -0.12879196464E+04  0.12879196464E+04  0.00000000000E+00 0.  1.
         23    2    1    2    0    0  0.11429881962E+04 -0.23417371060E+03  0.89147683151E+03  0.14707465560E+04  0.84292037168E+02 0.  0.
         13    1    3    3    0    0  0.54708874337E+03 -0.14981750791E+03  0.40714801557E+03  0.69822695836E+03  0.00000000000E+00 0.  1.
        -13    1    3    3    0    0  0.59589945284E+03 -0.84356202693E+02  0.48432881594E+03  0.77251959766E+03  0.00000000000E+00 0. -1.
         22    1    1    2    0    0 -0.11429881962E+04  0.23417371060E+03 -0.65738523195E+03  0.13391843363E+04  0.00000000000E+00 0.  1.
<mgrwt>
<rscale>  0 0.28001630E+04</rscale>
<asrwt>0</asrwt>
<pdfrwt beam="1">  1        1 0.23415558E+00 0.28001630E+04</pdfrwt>
<pdfrwt beam="2">  1       -1 0.19814148E+00 0.28001630E+04</pdfrwt>
<totfact> 0.84767937E-01</totfact>
</mgrwt>
</event>
<event>
 6    1  0.1585031E-006  0.1686275E+04  0.7818608E-02  0.8769231E-01
         -1   -1    0    0    0  501 -0.00000000000E+00  0.00000000000E+00  0.41236497846E+03  0.41236497846E+03  0.00000000000E+00 0.  1.
          1   -1    0    0  501    0  0.00000000000E+00 -0.00000000000E+00 -0.17239122247E+04  0.17239122247E+04  0.00000000000E+00 0. -1.
         23    2    1    2    0    0  0.77962754841E+03  0.19513146388E+03 -0.96704115495E+03  0.12618746361E+04  0.10613010582E+03 0.  0.
         13    1    3    3    0    0  0.65607355634E+03  0.17087086948E+03 -0.86967186493E+03  0.11027050911E+04  0.00000000000E+00 0. -1.
        -13    1    3    3    0    0  0.12355399207E+03  0.24260594396E+02 -0.97369290029E+02  0.15916954494E+03  0.00000000000E+00 0.  1.
         22    1    1    2    0    0 -0.77962754841E+03 -0.19513146388E+03 -0.34450609132E+03  0.87440256712E+03  0.00000000000E+00 0.  1.
<mgrwt>
<rscale>  0 0.16862752E+04</rscale>
<asrwt>0</asrwt>
<pdfrwt beam="1">  1        1 0.26521726E+00 0.16862752E+04</pdfrwt>
<pdfrwt beam="2">  1       -1 0.63440767E-01 0.16862752E+04</pdfrwt>
<totfact> 0.11020075E+01</totfact>
</mgrwt>
</event>
<event>
 6    1  0.1585031E-006  0.1988678E+04  0.7818608E-02  0.8611932E-01
         -2   -1    0    0    0  501 -0.00000000000E+00  0.00000000000E+00  0.39593676237E+03  0.39593676237E+03  0.00000000000E+00 0.  1.
          2   -1    0    0  501    0  0.00000000000E+00 -0.00000000000E+00 -0.24971422840E+04  0.24971422840E+04  0.00000000000E+00 0. -1.
         23    2    1    2    0    0 -0.98335299954E+03 -0.90482811155E+02 -0.91126903585E+03  0.13467546622E+04  0.90369263189E+02 0.  0.
         13    1    3    3    0    0 -0.85472894508E+03 -0.74169505883E+02 -0.74770303665E+03  0.11380344969E+04  0.00000000000E+00 0. -1.
        -13    1    3    3    0    0 -0.12862405446E+03 -0.16313305272E+02 -0.16356599920E+03  0.20872016532E+03  0.00000000000E+00 0.  1.
         22    1    1    2    0    0  0.98335299954E+03  0.90482811155E+02 -0.11899364858E+04  0.15463243842E+04  0.00000000000E+00 0.  1.
<mgrwt>
<rscale>  0 0.19886784E+04</rscale>
<asrwt>0</asrwt>
<pdfrwt beam="1">  1        2 0.38417574E+00 0.19886784E+04</pdfrwt>
<pdfrwt beam="2">  1       -2 0.60913347E-01 0.19886784E+04</pdfrwt>
<totfact> 0.81553869E+00</totfact>
</mgrwt>
</event>
<event>
 6    1  0.1585031E-006  0.6419241E+03  0.7818608E-02  0.9822052E-01
          1   -1    0    0  501    0  0.00000000000E+00  0.00000000000E+00  0.17202775524E+03  0.17202775524E+03  0.00000000000E+00 0. -1.
         -1   -1    0    0    0  501 -0.00000000000E+00 -0.00000000000E+00 -0.59883734878E+03  0.59883734878E+03  0.00000000000E+00 0.  1.
         23    2    1    2    0    0 -0.21366797816E+03 -0.10496383779E+03 -0.46482302599E+03  0.52979160241E+03  0.89147542632E+02 0.  0.
         11    1    3    3    0    0 -0.14857535815E+03 -0.73862867227E+02 -0.22638193326E+03  0.28067621899E+03  0.00000000000E+00 0. -1.
        -11    1    3    3    0    0 -0.65092620011E+02 -0.31100970567E+02 -0.23844109273E+03  0.24911538341E+03  0.00000000000E+00 0.  1.
         22    1    1    2    0    0  0.21366797816E+03  0.10496383779E+03  0.38013432444E+02  0.24107350161E+03  0.00000000000E+00 0. -1.
<mgrwt>
<rscale>  0 0.64192412E+03</rscale>
<asrwt>0</asrwt>
<pdfrwt beam="1">  1        1 0.26465808E-01 0.64192412E+03</pdfrwt>
<pdfrwt beam="2">  1       -1 0.92128823E-01 0.64192412E+03</pdfrwt>
<totfact> 0.21122222E+02</totfact>
</mgrwt>
</event>
<event>
 6    1  0.1585031E-006  0.7291523E+04  0.7818608E-02  0.7548096E-01
         -2   -1    0    0    0  501 -0.00000000000E+00  0.00000000000E+00  0.32626205414E+04  0.32626205414E+04  0.00000000000E+00 0.  1.
          2   -1    0    0  501    0  0.00000000000E+00 -0.00000000000E+00 -0.40738959328E+04  0.40738959328E+04  0.00000000000E+00 0. -1.
         23    2    1    2    0    0  0.63070211432E+03 -0.30777901334E+04  0.14541925917E+04  0.34631558603E+04  0.90527104343E+02 0.  0.
         13    1    3    3    0    0  0.43075125266E+03 -0.19354208737E+04  0.88650329539E+03  0.21719320185E+04  0.00000000000E+00 0. -1.
        -13    1    3    3    0    0  0.19995086166E+03 -0.11423692597E+04  0.56768929634E+03  0.12912238418E+04  0.00000000000E+00 0.  1.
         22    1    1    2    0    0 -0.63070211432E+03  0.30777901334E+04 -0.22654679832E+04  0.38733606139E+04  0.00000000000E+00 0.  1.
<mgrwt>
<rscale>  0 0.72915229E+04</rscale>
<asrwt>0</asrwt>
<pdfrwt beam="1">  1        2 0.62675321E+00 0.72915229E+04</pdfrwt>
<pdfrwt beam="2">  1       -2 0.50194163E+00 0.72915229E+04</pdfrwt>
<totfact> 0.29408106E-04</totfact>
</mgrwt>
</event>
<event>
 6    1  0.1585031E-006  0.1031279E+04  0.7818608E-02  0.9274889E-01
         -1   -1    0    0    0  501 -0.00000000000E+00  0.00000000000E+00  0.88293777791E+03  0.88293777791E+03  0.00000000000E+00 0.  1.
          1   -1    0    0  501    0  0.00000000000E+00 -0.00000000000E+00 -0.30113572981E+03  0.30113572981E+03  0.00000000000E+00 0. -1.
         23    2    1    2    0    0  0.14512351542E+03 -0.49056827119E+03  0.28223977883E+03  0.59123658529E+03  0.90461835066E+02 0.  0.
         11    1    3    3    0    0  0.11683369566E+03 -0.29594716683E+03  0.13533744318E+03  0.34576156744E+03  0.00000000000E+00 0.  1.
        -11    1    3    3    0    0  0.28289819750E+02 -0.19462110437E+03  0.14690233565E+03  0.24547501785E+03  0.00000000000E+00 0. -1.
         22    1    1    2    0    0 -0.14512351542E+03  0.49056827119E+03  0.29956226927E+03  0.59283692243E+03  0.00000000000E+00 0.  1.
<mgrwt>
<rscale>  0 0.10312790E+04</rscale>
<asrwt>0</asrwt>
<pdfrwt beam="1">  1        1 0.46328574E-01 0.10312790E+04</pdfrwt>
<pdfrwt beam="2">  1       -1 0.13583658E+00 0.10312790E+04</pdfrwt>
<totfact> 0.39594794E+01</totfact>
</mgrwt>
</event>
<event>
 6    1  0.2680824E-006  0.3487140E+04  0.7818608E-02  0.8116844E-01
          2   -1    0    0  501    0  0.00000000000E+00  0.00000000000E+00  0.15185624534E+04  0.15185624534E+04  0.00000000000E+00 0. -1.
         -2   -1    0    0    0  501 -0.00000000000E+00 -0.00000000000E+00 -0.20019172422E+04  0.20019172422E+04  0.00000000000E+00 0.  1.
         23    2    1    2    0    0 -0.64093903043E+03 -0.53341901213E+03 -0.17863788468E+04  0.19734792499E+04  0.90179167646E+02 0.  0.
         11    1    3    3    0    0 -0.46874548229E+03 -0.34622765777E+03 -0.11855076254E+04  0.13209936593E+04  0.00000000000E+00 0. -1.
        -11    1    3    3    0    0 -0.17219354815E+03 -0.18719135436E+03 -0.60087122144E+03  0.65248559059E+03  0.00000000000E+00 0.  1.
         22    1    1    2    0    0  0.64093903043E+03  0.53341901213E+03  0.13030240580E+04  0.15470004456E+04  0.00000000000E+00 0. -1.
<mgrwt>
<rscale>  0 0.34871400E+04</rscale>
<asrwt>0</asrwt>
<pdfrwt beam="1">  1        2 0.23362499E+00 0.34871400E+04</pdfrwt>
<pdfrwt beam="2">  1       -2 0.30798727E+00 0.34871400E+04</pdfrwt>
<totfact> 0.28935524E-01</totfact>
</mgrwt>
</event>
<event>
 6    1  0.1585031E-006  0.1715107E+04  0.7818608E-02  0.8752795E-01
          1   -1    0    0  501    0  0.00000000000E+00  0.00000000000E+00  0.12571511901E+04  0.12571511901E+04  0.00000000000E+00 0. -1.
         -1   -1    0    0    0  501 -0.00000000000E+00 -0.00000000000E+00 -0.58497168883E+03  0.58497168883E+03  0.00000000000E+00 0.  1.
         23    2    1    2    0    0  0.10254234505E+03  0.90029387448E+01  0.12488409356E+04  0.12563461336E+04  0.90586640963E+02 0.  0.
         11    1    3    3    0    0  0.15321652594E+02 -0.12455347840E+02  0.69407288774E+03  0.69435370109E+03  0.00000000000E+00 0. -1.
        -11    1    3    3    0    0  0.87220692453E+02  0.21458286585E+02  0.55476804788E+03  0.56199243252E+03  0.00000000000E+00 0.  1.
         22    1    1    2    0    0 -0.10254234505E+03 -0.90029387448E+01 -0.57666143438E+03  0.58577674530E+03  0.00000000000E+00 0.  1.
<mgrwt>
<rscale>  0 0.17151068E+04</rscale>
<asrwt>0</asrwt>
<pdfrwt beam="1">  1        1 0.19340788E+00 0.17151068E+04</pdfrwt>
<pdfrwt beam="2">  1       -1 0.89995644E-01 0.17151068E+04</pdfrwt>
<totfact> 0.11150098E+01</totfact>
</mgrwt>
</event>
<event>
 6    1  0.4123985E-006  0.4703203E+04  0.7818608E-02  0.7875997E-01
         -2   -1    0    0    0  501 -0.00000000000E+00  0.00000000000E+00  0.17577836159E+04  0.17577836159E+04  0.00000000000E+00 0.  1.
          2   -1    0    0  501    0  0.00000000000E+00 -0.00000000000E+00 -0.31460238160E+04  0.31460238160E+04  0.00000000000E+00 0. -1.
         23    2    1    2    0    0 -0.77492135387E+03  0.61179324466E+03  0.15299470950E+04  0.18231238766E+04  0.90821127552E+02 0.  0.
         11    1    3    3    0    0 -0.50242305179E+03  0.38305685498E+03  0.10548494701E+04  0.12295807748E+04  0.00000000000E+00 0. -1.
        -11    1    3    3    0    0 -0.27249830209E+03  0.22873638968E+03  0.47509762491E+03  0.59354310188E+03  0.00000000000E+00 0.  1.
         22    1    1    2    0    0  0.77492135387E+03 -0.61179324466E+03 -0.29181872951E+04  0.30806835553E+04  0.00000000000E+00 0. -1.
<mgrwt>
<rscale>  0 0.47032028E+04</rscale>
<asrwt>0</asrwt>
<pdfrwt beam="1">  1        2 0.48400366E+00 0.47032028E+04</pdfrwt>
<pdfrwt beam="2">  1       -2 0.27042825E+00 0.47032028E+04</pdfrwt>
<totfact> 0.50438154E-02</totfact>
</mgrwt>
</event>
<event>
 6    1  0.1585031E-006  0.1859181E+04  0.7818608E-02  0.8675446E-01
          2   -1    0    0  501    0  0.00000000000E+00  0.00000000000E+00  0.85971411936E+03  0.85971411936E+03  0.00000000000E+00 0. -1.
         -2   -1    0    0    0  501 -0.00000000000E+00 -0.00000000000E+00 -0.10051458559E+04  0.10051458559E+04  0.00000000000E+00 0.  1.
         23    2    1    2    0    0  0.67206419991E+03 -0.63159820291E+03  0.27011035134E+02  0.92660463251E+03  0.85322741739E+02 0.  0.
         13    1    3    3    0    0  0.35705305765E+03 -0.36357700284E+03  0.52110702339E+02  0.51224081082E+03  0.00000000000E+00 0. -1.
        -13    1    3    3    0    0  0.31501114226E+03 -0.26802120006E+03 -0.25099667205E+02  0.41436382169E+03  0.00000000000E+00 0.  1.
         22    1    1    2    0    0 -0.67206419991E+03  0.63159820291E+03 -0.17244277168E+03  0.93825534276E+03  0.00000000000E+00 0.  1.
<mgrwt>
<rscale>  0 0.18591806E+04</rscale>
<asrwt>0</asrwt>
<pdfrwt beam="1">  1        2 0.13226371E+00 0.18591806E+04</pdfrwt>
<pdfrwt beam="2">  1       -2 0.15463782E+00 0.18591806E+04</pdfrwt>
<totfact> 0.81084393E+00</totfact>
</mgrwt>
</event>
<event>
 6    1  0.1585031E-006  0.2089965E+04  0.7818608E-02  0.8565677E-01
          2   -1    0    0  501    0  0.00000000000E+00  0.00000000000E+00  0.19522871614E+04  0.19522871614E+04  0.00000000000E+00 0. -1.
         -2   -1    0    0    0  501 -0.00000000000E+00 -0.00000000000E+00 -0.55933807920E+03  0.55933807920E+03  0.00000000000E+00 0.  1.
         23    2    1    2    0    0 -0.40028601188E+03  0.91206281996E+03  0.10695834275E+04  0.14644133110E+04  0.91706915232E+02 0.  0.
         13    1    3    3    0    0 -0.50168854014E+02  0.16123039829E+03  0.14098215354E+03  0.21997300485E+03  0.00000000000E+00 0.  1.
        -13    1    3    3    0    0 -0.35011715786E+03  0.75083242167E+03  0.92860127395E+03  0.12444403062E+04  0.00000000000E+00 0. -1.
         22    1    1    2    0    0  0.40028601188E+03 -0.91206281996E+03  0.32336565476E+03  0.10472119296E+04  0.00000000000E+00 0.  1.
<mgrwt>
<rscale>  0 0.20899651E+04</rscale>
<asrwt>0</asrwt>
<pdfrwt beam="1">  1        2 0.30035187E+00 0.20899651E+04</pdfrwt>
<pdfrwt beam="2">  1       -2 0.86052013E-01 0.20899651E+04</pdfrwt>
<totfact> 0.76734512E+00</totfact>
</mgrwt>
</event>
<event>
 6    1  0.1585031E-006  0.5518990E+03  0.7818608E-02  0.1001055E+00
          2   -1    0    0  501    0  0.00000000000E+00  0.00000000000E+00  0.27292945668E+03  0.27292945668E+03  0.00000000000E+00 0. -1.
         -2   -1    0    0    0  501 -0.00000000000E+00 -0.00000000000E+00 -0.27900292365E+03  0.27900292365E+03  0.00000000000E+00 0.  1.
         23    2    1    2    0    0 -0.12539155551E+03 -0.23664173121E+03  0.15709731008E+02  0.28323764861E+03  0.90853832050E+02 0.  0.
         11    1    3    3    0    0 -0.52547123075E+02 -0.31222391878E+02 -0.15509935179E+02  0.63060256798E+02  0.00000000000E+00 0.  1.
        -11    1    3    3    0    0 -0.72844432432E+02 -0.20541933933E+03  0.31219666187E+02  0.22017739181E+03  0.00000000000E+00 0. -1.
         22    1    1    2    0    0  0.12539155551E+03  0.23664173121E+03 -0.21783197981E+02  0.26869473172E+03  0.00000000000E+00 0.  1.
<mgrwt>
<rscale>  0 0.55189896E+03</rscale>
<asrwt>0</asrwt>
<pdfrwt beam="1">  1        2 0.41989147E-01 0.55189896E+03</pdfrwt>
<pdfrwt beam="2">  1       -2 0.42923527E-01 0.55189896E+03</pdfrwt>
<totfact> 0.63197001E+02</totfact>
</mgrwt>
</event>
<event>
 6    1  0.1585031E-006  0.2154485E+04  0.7818608E-02  0.8537615E-01
          2   -1    0    0  501    0  0.00000000000E+00  0.00000000000E+00  0.18502555349E+04  0.18502555349E+04  0.00000000000E+00 0.  1.
         -2   -1    0    0    0  501 -0.00000000000E+00 -0.00000000000E+00 -0.62718420655E+03  0.62718420655E+03  0.00000000000E+00 0. -1.
         23    2    1    2    0    0  0.53840553282E+03 -0.90220078684E+03  0.34935318825E+03  0.11109734353E+04  0.91474292706E+02 0.  0.
         11    1    3    3    0    0  0.36247237302E+03 -0.52692660708E+03  0.19382355591E+03  0.66828544895E+03  0.00000000000E+00 0. -1.
        -11    1    3    3    0    0  0.17593315980E+03 -0.37527417976E+03  0.15552963234E+03  0.44268798634E+03  0.00000000000E+00 0.  1.
         22    1    1    2    0    0 -0.53840553282E+03  0.90220078684E+03  0.87371814010E+03  0.13664663062E+04  0.00000000000E+00 0.  1.
<mgrwt>
<rscale>  0 0.21544847E+04</rscale>
<asrwt>0</asrwt>
<pdfrwt beam="1">  1        2 0.28465470E+00 0.21544847E+04</pdfrwt>
<pdfrwt beam="2">  1       -2 0.96489878E-01 0.21544847E+04</pdfrwt>
<totfact> 0.66712843E+00</totfact>
</mgrwt>
</event>
<event>
 6    1  0.1585031E-006  0.3940924E+04  0.7818608E-02  0.8016571E-01
         -2   -1    0    0    0  501 -0.00000000000E+00  0.00000000000E+00  0.13069476198E+04  0.13069476198E+04  0.00000000000E+00 0.  1.
          2   -1    0    0  501    0  0.00000000000E+00 -0.00000000000E+00 -0.29708307554E+04  0.29708307554E+04  0.00000000000E+00 0. -1.
         23    2    1    2    0    0  0.16875423465E+04 -0.18427992823E+03 -0.19161547056E+04  0.25615618363E+04  0.90509239157E+02 0.  0.
         13    1    3    3    0    0  0.13111845464E+04 -0.15842234845E+03 -0.14372477778E+04  0.19519179619E+04  0.00000000000E+00 0. -1.
        -13    1    3    3    0    0  0.37635780006E+03 -0.25857579786E+02 -0.47890692784E+03  0.60964387443E+03  0.00000000000E+00 0.  1.
         22    1    1    2    0    0 -0.16875423465E+04  0.18427992823E+03  0.25227156998E+03  0.17162165388E+04  0.00000000000E+00 0. -1.
<mgrwt>
<rscale>  0 0.39409238E+04</rscale>
<asrwt>0</asrwt>
<pdfrwt beam="1">  1        2 0.45705089E+00 0.39409238E+04</pdfrwt>
<pdfrwt beam="2">  1       -2 0.20106886E+00 0.39409238E+04</pdfrwt>
<totfact> 0.18825970E-01</totfact>
</mgrwt>
</event>
<event>
 6    1  0.1585031E-006  0.2063829E+04  0.7818608E-02  0.8577346E-01
          2   -1    0    0  501    0  0.00000000000E+00  0.00000000000E+00  0.23582588768E+04  0.23582588768E+04  0.00000000000E+00 0. -1.
         -2   -1    0    0    0  501 -0.00000000000E+00 -0.00000000000E+00 -0.45153975058E+03  0.45153975058E+03  0.00000000000E+00 0.  1.
         23    2    1    2    0    0  0.46103067858E+03  0.97316526915E+02  0.22020334126E+04  0.22537138130E+04  0.90857072578E+02 0.  0.
         11    1    3    3    0    0  0.37889013588E+03  0.88963228075E+02  0.16339628869E+04  0.16796746431E+04  0.00000000000E+00 0. -1.
        -11    1    3    3    0    0  0.82140542702E+02  0.83532988401E+01  0.56807052577E+03  0.57403916992E+03  0.00000000000E+00 0.  1.
         22    1    1    2    0    0 -0.46103067858E+03 -0.97316526915E+02 -0.29531428641E+03  0.55608481436E+03  0.00000000000E+00 0.  1.
<mgrwt>
<rscale>  0 0.20638291E+04</rscale>
<asrwt>0</asrwt>
<pdfrwt beam="1">  1        2 0.36280905E+00 0.20638291E+04</pdfrwt>
<pdfrwt beam="2">  1       -2 0.69467656E-01 0.20638291E+04</pdfrwt>
<totfact> 0.73390246E+00</totfact>
</mgrwt>
</event>
<event>
 6    1  0.1585031E-006  0.3860960E+04  0.7818608E-02  0.8033198E-01
          1   -1    0    0  501    0  0.00000000000E+00  0.00000000000E+00  0.29990072479E+04  0.29990072479E+04  0.00000000000E+00 0. -1.
         -1   -1    0    0    0  501 -0.00000000000E+00 -0.00000000000E+00 -0.12426622588E+04  0.12426622588E+04  0.00000000000E+00 0.  1.
         23    2    1    2    0    0 -0.97736669408E+03  0.15502165659E+04  0.15416971780E+04  0.23965432946E+04  0.90401981245E+02 0.  0.
         13    1    3    3    0    0 -0.34224122093E+03  0.47709257419E+03  0.52434934391E+03  0.78720303106E+03  0.00000000000E+00 0.  1.
        -13    1    3    3    0    0 -0.63512547314E+03  0.10731239917E+04  0.10173478341E+04  0.16093402635E+04  0.00000000000E+00 0. -1.
         22    1    1    2    0    0  0.97736669408E+03 -0.15502165659E+04  0.21464781107E+03  0.18451262122E+04  0.00000000000E+00 0.  1.
<mgrwt>
<rscale>  0 0.38609600E+04</rscale>
<asrwt>0</asrwt>
<pdfrwt beam="1">  1        1 0.46138573E+00 0.38609600E+04</pdfrwt>
<pdfrwt beam="2">  1       -1 0.19117881E+00 0.38609600E+04</pdfrwt>
<totfact> 0.82124762E-02</totfact>
</mgrwt>
</event>
<event>
 6    1  0.2684472E-006  0.2856821E+04  0.7818608E-02  0.8285842E-01
         -1   -1    0    0    0  501 -0.00000000000E+00  0.00000000000E+00  0.85936158697E+03  0.85936158697E+03  0.00000000000E+00 0.  1.
          1   -1    0    0  501    0  0.00000000000E+00 -0.00000000000E+00 -0.23742702913E+04  0.23742702913E+04  0.00000000000E+00 0. -1.
         23    2    1    2    0    0 -0.63469926580E+03  0.19441617498E+02  0.68819837315E+03  0.94083840102E+03  0.91316819536E+02 0.  0.
         11    1    3    3    0    0 -0.20894815434E+03 -0.20489273770E+02  0.27715632052E+03  0.34769924870E+03  0.00000000000E+00 0.  1.
        -11    1    3    3    0    0 -0.42575111146E+03  0.39930891268E+02  0.41104205263E+03  0.59313915232E+03  0.00000000000E+00 0. -1.
         22    1    1    2    0    0  0.63469926580E+03 -0.19441617498E+02 -0.22031070774E+04  0.22927934772E+04  0.00000000000E+00 0. -1.
<mgrwt>
<rscale>  0 0.28568211E+04</rscale>
<asrwt>0</asrwt>
<pdfrwt beam="1">  1        1 0.36527236E+00 0.28568211E+04</pdfrwt>
<pdfrwt beam="2">  1       -1 0.13220947E+00 0.28568211E+04</pdfrwt>
<totfact> 0.69254411E-01</totfact>
</mgrwt>
</event>
<event>
 6    1  0.1585031E-006  0.2839983E+04  0.7818608E-02  0.8290962E-01
         -2   -1    0    0    0  501 -0.00000000000E+00  0.00000000000E+00  0.97575661892E+03  0.97575661892E+03  0.00000000000E+00 0.  1.
          2   -1    0    0  501    0  0.00000000000E+00 -0.00000000000E+00 -0.20664742977E+04  0.20664742977E+04  0.00000000000E+00 0. -1.
         23    2    1    2    0    0  0.11586124397E+04  0.72412276693E+03 -0.13670999457E+03  0.13758374371E+04  0.86616763809E+02 0.  0.
         11    1    3    3    0    0  0.27339140129E+03  0.21297533676E+03 -0.46607007242E+02  0.34967637251E+03  0.00000000000E+00 0.  1.
        -11    1    3    3    0    0  0.88522103840E+03  0.51114743017E+03 -0.90102987323E+02  0.10261610646E+04  0.00000000000E+00 0. -1.
         22    1    1    2    0    0 -0.11586124397E+04 -0.72412276693E+03 -0.95400768423E+03  0.16663934795E+04  0.00000000000E+00 0.  1.
<mgrwt>
<rscale>  0 0.28399831E+04</rscale>
<asrwt>0</asrwt>
<pdfrwt beam="1">  1        2 0.31791912E+00 0.28399831E+04</pdfrwt>
<pdfrwt beam="2">  1       -2 0.15011640E+00 0.28399831E+04</pdfrwt>
<totfact> 0.15910042E+00</totfact>
</mgrwt>
</event>
<event>
 6    1  0.1585031E-006  0.2353453E+04  0.7818608E-02  0.8457139E-01
          1   -1    0    0  501    0  0.00000000000E+00  0.00000000000E+00  0.13343223516E+04  0.13343223516E+04  0.00000000000E+00 0. -1.
         -1   -1    0    0    0  501 -0.00000000000E+00 -0.00000000000E+00 -0.10377440900E+04  0.10377440900E+04  0.00000000000E+00 0.  1.
         23    2    1    2    0    0  0.10541800434E+04  0.24781233584E+03  0.60781276319E+03  0.12453129492E+04  0.93067010599E+02 0.  0.
         11    1    3    3    0    0  0.44796348756E+03  0.76759676994E+02  0.29686734312E+03  0.54285684449E+03  0.00000000000E+00 0.  1.
        -11    1    3    3    0    0  0.60621655589E+03  0.17105265885E+03  0.31094542007E+03  0.70245610467E+03  0.00000000000E+00 0. -1.
         22    1    1    2    0    0 -0.10541800434E+04 -0.24781233584E+03 -0.31123450150E+03  0.11267534924E+04  0.00000000000E+00 0.  1.
<mgrwt>
<rscale>  0 0.23534529E+04</rscale>
<asrwt>0</asrwt>
<pdfrwt beam="1">  1        1 0.20528036E+00 0.23534529E+04</pdfrwt>
<pdfrwt beam="2">  1       -1 0.15965294E+00 0.23534529E+04</pdfrwt>
<totfact> 0.22618877E+00</totfact>
</mgrwt>
</event>
<event>
 6    1  0.1585031E-006  0.1747072E+04  0.7818608E-02  0.8734963E-01
         -2   -1    0    0    0  501 -0.00000000000E+00  0.00000000000E+00  0.57937562345E+03  0.57937562345E+03  0.00000000000E+00 0.  1.
          2   -1    0    0  501    0  0.00000000000E+00 -0.00000000000E+00 -0.13170480382E+04  0.13170480382E+04  0.00000000000E+00 0. -1.
         23    2    1    2    0    0 -0.65241048569E+03 -0.22222928600E+03 -0.94817237320E+03  0.11757742809E+04  0.91591554843E+02 0.  0.
         11    1    3    3    0    0 -0.44545913842E+03 -0.11851229641E+03 -0.57981530357E+03  0.74071910644E+03  0.00000000000E+00 0. -1.
        -11    1    3    3    0    0 -0.20695134727E+03 -0.10371698959E+03 -0.36835706964E+03  0.43505517446E+03  0.00000000000E+00 0.  1.
         22    1    1    2    0    0  0.65241048569E+03  0.22222928600E+03  0.21049995850E+03  0.72064938072E+03  0.00000000000E+00 0.  1.
<mgrwt>
<rscale>  0 0.17470724E+04</rscale>
<asrwt>0</asrwt>
<pdfrwt beam="1">  1        2 0.20262277E+00 0.17470724E+04</pdfrwt>
<pdfrwt beam="2">  1       -2 0.89134713E-01 0.17470724E+04</pdfrwt>
<totfact> 0.16554832E+01</totfact>
</mgrwt>
</event>
<event>
 6    1  0.1585031E-006  0.1313559E+04  0.7818608E-02  0.9018882E-01
         -3   -1    0    0    0  501 -0.00000000000E+00  0.00000000000E+00  0.20961398226E+04  0.20961398226E+04  0.00000000000E+00 0.  1.
          3   -1    0    0  501    0  0.00000000000E+00 -0.00000000000E+00 -0.20578735765E+03  0.20578735765E+03  0.00000000000E+00 0. -1.
         23    2    1    2    0    0  0.28322956486E+03  0.58512882962E+03  0.10698100597E+04  0.12550821237E+04  0.90237684118E+02 0.  0.
         13    1    3    3    0    0  0.20356148429E+03  0.36631217945E+03  0.61637088268E+03  0.74534217358E+03  0.00000000000E+00 0. -1.
        -13    1    3    3    0    0  0.79668080569E+02  0.21881665018E+03  0.45343917702E+03  0.50973995008E+03  0.00000000000E+00 0.  1.
         22    1    1    2    0    0 -0.28322956486E+03 -0.58512882962E+03  0.82054240523E+03  0.10468450566E+04  0.00000000000E+00 0. -1.
<mgrwt>
<rscale>  0 0.13135586E+04</rscale>
<asrwt>0</asrwt>
<pdfrwt beam="1">  1        3 0.31659595E-01 0.13135586E+04</pdfrwt>
<pdfrwt beam="2">  1       -3 0.32248304E+00 0.13135586E+04</pdfrwt>
<totfact> 0.72179004E-01</totfact>
</mgrwt>
</event>
<event>
 6    1  0.1585031E-006  0.2172595E+04  0.7818608E-02  0.8529922E-01
          2   -1    0    0  501    0  0.00000000000E+00  0.00000000000E+00  0.26350562460E+04  0.26350562460E+04  0.00000000000E+00 0. -1.
         -2   -1    0    0    0  501 -0.00000000000E+00 -0.00000000000E+00 -0.44782428106E+03  0.44782428106E+03  0.00000000000E+00 0.  1.
         23    2    1    2    0    0 -0.55177680345E+03 -0.92289346974E+03  0.12976522920E+04  0.16873369083E+04  0.83751859380E+02 0.  0.
         11    1    3    3    0    0 -0.50018969767E+02 -0.12816481334E+03  0.14153954618E+03  0.19738682794E+03  0.00000000000E+00 0. -1.
        -11    1    3    3    0    0 -0.50175783368E+03 -0.79472865640E+03  0.11561127458E+04  0.14899500804E+04  0.00000000000E+00 0.  1.
         22    1    1    2    0    0  0.55177680345E+03  0.92289346974E+03  0.88957967295E+03  0.13955436188E+04  0.00000000000E+00 0. -1.
<mgrwt>
<rscale>  0 0.21725949E+04</rscale>
<asrwt>0</asrwt>
<pdfrwt beam="1">  1        2 0.40539326E+00 0.21725949E+04</pdfrwt>
<pdfrwt beam="2">  1       -2 0.68896045E-01 0.21725949E+04</pdfrwt>
<totfact> 0.51182360E+00</totfact>
</mgrwt>
</event>
<event>
 6    1  0.1585031E-006  0.3036949E+04  0.7818608E-02  0.8233258E-01
          1   -1    0    0  501    0  0.00000000000E+00  0.00000000000E+00  0.16237303968E+04  0.16237303968E+04  0.00000000000E+00 0. -1.
         -1   -1    0    0    0  501 -0.00000000000E+00 -0.00000000000E+00 -0.14200416317E+04  0.14200416317E+04  0.00000000000E+00 0.  1.
         23    2    1    2    0    0  0.95155698641E+03 -0.10889918895E+04 -0.35758119270E+03  0.14925183422E+04  0.91556860122E+02 0.  0.
         11    1    3    3    0    0  0.51824103901E+03 -0.65715214994E+03 -0.18969729825E+03  0.85814205563E+03  0.00000000000E+00 0.  1.
        -11    1    3    3    0    0  0.43331594740E+03 -0.43183973954E+03 -0.16788389446E+03  0.63437628655E+03  0.00000000000E+00 0. -1.
         22    1    1    2    0    0 -0.95155698641E+03  0.10889918895E+04  0.56126995788E+03  0.15512536863E+04  0.00000000000E+00 0. -1.
<mgrwt>
<rscale>  0 0.30369490E+04</rscale>
<asrwt>0</asrwt>
<pdfrwt beam="1">  1        1 0.24980468E+00 0.30369490E+04</pdfrwt>
<pdfrwt beam="2">  1       -1 0.21846794E+00 0.30369490E+04</pdfrwt>
<totfact> 0.51384792E-01</totfact>
</mgrwt>
</event>
<event>
 6    1  0.1585031E-006  0.5111421E+04  0.7818608E-02  0.7811546E-01
          2   -1    0    0  501    0  0.00000000000E+00  0.00000000000E+00  0.38148405406E+04  0.38148405406E+04  0.00000000000E+00 0. -1.
         -2   -1    0    0    0  501 -0.00000000000E+00 -0.00000000000E+00 -0.17121704355E+04  0.17121704355E+04  0.00000000000E+00 0.  1.
         23    2    1    2    0    0 -0.17493382221E+03  0.16205406584E+04 -0.10762865647E+04  0.19545441287E+04  0.71387071845E+02 0.  0.
         11    1    3    3    0    0 -0.80124981565E+02  0.57549271307E+03 -0.41868689590E+03  0.71617776583E+03  0.00000000000E+00 0.  1.
        -11    1    3    3    0    0 -0.94808840648E+02  0.10450479453E+04 -0.65759966879E+03  0.12383663629E+04  0.00000000000E+00 0. -1.
         22    1    1    2    0    0  0.17493382221E+03 -0.16205406584E+04  0.31789566698E+04  0.35724668474E+04  0.00000000000E+00 0. -1.
<mgrwt>
<rscale>  0 0.51114214E+04</rscale>
<asrwt>0</asrwt>
<pdfrwt beam="1">  1        2 0.58689854E+00 0.51114214E+04</pdfrwt>
<pdfrwt beam="2">  1       -2 0.26341084E+00 0.51114214E+04</pdfrwt>
<totfact> 0.18295938E-02</totfact>
</mgrwt>
</event>
<event>
 6    1  0.1585031E-006  0.3854834E+04  0.7818608E-02  0.8034489E-01
         -1   -1    0    0    0  501 -0.00000000000E+00  0.00000000000E+00  0.10774177537E+04  0.10774177537E+04  0.00000000000E+00 0.  1.
          1   -1    0    0  501    0  0.00000000000E+00 -0.00000000000E+00 -0.34480006261E+04  0.34480006261E+04  0.00000000000E+00 0. -1.
         23    2    1    2    0    0  0.15058258790E+04 -0.60526411961E+03  0.32330934552E+02  0.16257889214E+04  0.91038976607E+02 0.  0.
         11    1    3    3    0    0  0.13340064925E+04 -0.54903447561E+03  0.25964775826E+01  0.14425737136E+04  0.00000000000E+00 0.  1.
        -11    1    3    3    0    0  0.17181938654E+03 -0.56229643997E+02  0.29734456969E+02  0.18321520785E+03  0.00000000000E+00 0. -1.
         22    1    1    2    0    0 -0.15058258790E+04  0.60526411961E+03 -0.24029138070E+04  0.28996294584E+04  0.00000000000E+00 0. -1.
<mgrwt>
<rscale>  0 0.38548344E+04</rscale>
<asrwt>0</asrwt>
<pdfrwt beam="1">  1        1 0.53046163E+00 0.38548344E+04</pdfrwt>
<pdfrwt beam="2">  1       -1 0.16575658E+00 0.38548344E+04</pdfrwt>
<totfact> 0.57433509E-02</totfact>
</mgrwt>
</event>
<event>
 6    1  0.1585031E-006  0.3323743E+04  0.7818608E-02  0.8156880E-01
          1   -1    0    0  501    0  0.00000000000E+00  0.00000000000E+00  0.23030575072E+04  0.23030575072E+04  0.00000000000E+00 0. -1.
         -1   -1    0    0    0  501 -0.00000000000E+00 -0.00000000000E+00 -0.11991956410E+04  0.11991956410E+04  0.00000000000E+00 0.  1.
         23    2    1    2    0    0  0.17123330962E+03 -0.14506200730E+04  0.13847124064E+04  0.20148068573E+04  0.91644864451E+02 0.  0.
         13    1    3    3    0    0  0.80227346235E+02 -0.94722388328E+03  0.85795816370E+03  0.12805318125E+04  0.00000000000E+00 0. -1.
        -13    1    3    3    0    0  0.91005963381E+02 -0.50339618972E+03  0.52675424268E+03  0.73427504478E+03  0.00000000000E+00 0.  1.
         22    1    1    2    0    0 -0.17123330962E+03  0.14506200730E+04 -0.28085054026E+03  0.14874462910E+04  0.00000000000E+00 0.  1.
<mgrwt>
<rscale>  0 0.33237428E+04</rscale>
<asrwt>0</asrwt>
<pdfrwt beam="1">  1        1 0.35431654E+00 0.33237428E+04</pdfrwt>
<pdfrwt beam="2">  1       -1 0.18449164E+00 0.33237428E+04</pdfrwt>
<totfact> 0.29637097E-01</totfact>
</mgrwt>
</event>
<event>
 6    1  0.1585031E-006  0.4496306E+04  0.7818608E-02  0.7911284E-01
          2   -1    0    0  501    0  0.00000000000E+00  0.00000000000E+00  0.25952283779E+04  0.25952283779E+04  0.00000000000E+00 0. -1.
         -2   -1    0    0    0  501 -0.00000000000E+00 -0.00000000000E+00 -0.19474942665E+04  0.19474942665E+04  0.00000000000E+00 0.  1.
         23    2    1    2    0    0  0.78422214224E+03 -0.17892823507E+04  0.14461296831E+04  0.24322792815E+04  0.90309156312E+02 0.  0.
         13    1    3    3    0    0  0.58955107437E+03 -0.13978150276E+04  0.10833000476E+04  0.18641341995E+04  0.00000000000E+00 0. -1.
        -13    1    3    3    0    0  0.19467106787E+03 -0.39146732310E+03  0.36282963559E+03  0.56814508198E+03  0.00000000000E+00 0.  1.
         22    1    1    2    0    0 -0.78422214224E+03  0.17892823507E+04 -0.79839557174E+03  0.21104433629E+04  0.00000000000E+00 0. -1.
<mgrwt>
<rscale>  0 0.44963062E+04</rscale>
<asrwt>0</asrwt>
<pdfrwt beam="1">  1        2 0.39926591E+00 0.44963062E+04</pdfrwt>
<pdfrwt beam="2">  1       -2 0.29961450E+00 0.44963062E+04</pdfrwt>
<totfact> 0.74185475E-02</totfact>
</mgrwt>
</event>
<event>
 6    1  0.1585031E-006  0.2760763E+04  0.7818608E-02  0.8315554E-01
          2   -1    0    0  501    0  0.00000000000E+00  0.00000000000E+00  0.22118944303E+04  0.22118944303E+04  0.00000000000E+00 0.  1.
         -2   -1    0    0    0  501 -0.00000000000E+00 -0.00000000000E+00 -0.86145759523E+03  0.86145759523E+03  0.00000000000E+00 0. -1.
         23    2    1    2    0    0 -0.96716531418E+03 -0.98256324646E+03  0.69935766464E+03  0.15486411138E+04  0.91372194943E+02 0.  0.
         11    1    3    3    0    0 -0.38656669774E+03 -0.34981604242E+03  0.30082302616E+03  0.60191325654E+03  0.00000000000E+00 0. -1.
        -11    1    3    3    0    0 -0.58059861644E+03 -0.63274720404E+03  0.39853463849E+03  0.94672785725E+03  0.00000000000E+00 0.  1.
         22    1    1    2    0    0  0.96716531418E+03  0.98256324646E+03  0.65107917044E+03  0.15247109118E+04  0.00000000000E+00 0. -1.
<mgrwt>
<rscale>  0 0.27607631E+04</rscale>
<asrwt>0</asrwt>
<pdfrwt beam="1">  1        2 0.34029145E+00 0.27607631E+04</pdfrwt>
<pdfrwt beam="2">  1       -2 0.13253194E+00 0.27607631E+04</pdfrwt>
<totfact> 0.18354574E+00</totfact>
</mgrwt>
</event>
<event>
 6    1  0.1585031E-006  0.1473944E+04  0.7818608E-02  0.8901967E-01
          2   -1    0    0  501    0  0.00000000000E+00  0.00000000000E+00  0.62665702737E+03  0.62665702737E+03  0.00000000000E+00 0. -1.
         -2   -1    0    0    0  501 -0.00000000000E+00 -0.00000000000E+00 -0.86670687483E+03  0.86670687483E+03  0.00000000000E+00 0.  1.
         23    2    1    2    0    0 -0.11838517366E+03 -0.38813677328E+03 -0.74035185382E+03  0.84918434519E+03  0.91257769819E+02 0.  0.
         13    1    3    3    0    0 -0.91190410086E+02 -0.21037921109E+03 -0.33752715046E+03  0.40804372395E+03  0.00000000000E+00 0. -1.
        -13    1    3    3    0    0 -0.27194763573E+02 -0.17775756219E+03 -0.40282470335E+03  0.44114062124E+03  0.00000000000E+00 0.  1.
         22    1    1    2    0    0  0.11838517366E+03  0.38813677328E+03  0.50030200635E+03  0.64417955702E+03  0.00000000000E+00 0. -1.
<mgrwt>
<rscale>  0 0.14739443E+04</rscale>
<asrwt>0</asrwt>
<pdfrwt beam="1">  1        2 0.96408774E-01 0.14739443E+04</pdfrwt>
<pdfrwt beam="2">  1       -2 0.13333952E+00 0.14739443E+04</pdfrwt>
<totfact> 0.18532565E+01</totfact>
</mgrwt>
</event>
<event>
 6    1  0.1585031E-006  0.3838597E+04  0.7818608E-02  0.8037923E-01
         -1   -1    0    0    0  501 -0.00000000000E+00  0.00000000000E+00  0.11097169804E+04  0.11097169804E+04  0.00000000000E+00 0.  1.
          1   -1    0    0  501    0  0.00000000000E+00 -0.00000000000E+00 -0.33195004467E+04  0.33195004467E+04  0.00000000000E+00 0. -1.
         23    2    1    2    0    0  0.27034255048E+03  0.16912081443E+04 -0.21022038863E+04  0.27131628102E+04  0.93387222834E+02 0.  0.
         13    1    3    3    0    0  0.24007190025E+03  0.16211013177E+04 -0.20139022983E+04  0.25964218584E+04  0.00000000000E+00 0.  1.
        -13    1    3    3    0    0  0.30270650230E+02  0.70106826619E+02 -0.88301587975E+02  0.11674095187E+03  0.00000000000E+00 0. -1.
         22    1    1    2    0    0 -0.27034255048E+03 -0.16912081443E+04 -0.10757958008E+03  0.17160546169E+04  0.00000000000E+00 0.  1.
<mgrwt>
<rscale>  0 0.38385966E+04</rscale>
<asrwt>0</asrwt>
<pdfrwt beam="1">  1        1 0.51069237E+00 0.38385966E+04</pdfrwt>
<pdfrwt beam="2">  1       -1 0.17072569E+00 0.38385966E+04</pdfrwt>
<totfact> 0.66444541E-02</totfact>
</mgrwt>
</event>
<event>
 6    1  0.1585031E-006  0.1999660E+04  0.7818608E-02  0.8606780E-01
          1   -1    0    0  501    0  0.00000000000E+00  0.00000000000E+00  0.24308444074E+04  0.24308444074E+04  0.00000000000E+00 0. -1.
         -1   -1    0    0    0  501 -0.00000000000E+00 -0.00000000000E+00 -0.41123992796E+03  0.41123992796E+03  0.00000000000E+00 0.  1.
         23    2    1    2    0    0  0.88624600606E+03  0.36018976769E+03  0.60916875840E+03  0.11378256768E+04  0.91608092546E+02 0.  0.
         13    1    3    3    0    0  0.74221701782E+03  0.26586369836E+03  0.48635184330E+03  0.92634104040E+03  0.00000000000E+00 0. -1.
        -13    1    3    3    0    0  0.14402898824E+03  0.94326069327E+02  0.12281691510E+03  0.21148463642E+03  0.00000000000E+00 0.  1.
         22    1    1    2    0    0 -0.88624600606E+03 -0.36018976769E+03  0.14104357211E+04  0.17042586586E+04  0.00000000000E+00 0. -1.
<mgrwt>
<rscale>  0 0.19996603E+04</rscale>
<asrwt>0</asrwt>
<pdfrwt beam="1">  1        1 0.37397605E+00 0.19996603E+04</pdfrwt>
<pdfrwt beam="2">  1       -1 0.63267683E-01 0.19996603E+04</pdfrwt>
<totfact> 0.35569764E+00</totfact>
</mgrwt>
</event>
<event>
 6    1  0.1585031E-006  0.3434130E+04  0.7818608E-02  0.8129580E-01
         -2   -1    0    0    0  501 -0.00000000000E+00  0.00000000000E+00  0.65675679045E+03  0.65675679045E+03  0.00000000000E+00 0.  1.
          2   -1    0    0  501    0  0.00000000000E+00 -0.00000000000E+00 -0.44892007056E+04  0.44892007056E+04  0.00000000000E+00 0. -1.
         23    2    1    2    0    0 -0.83433543311E+03 -0.24548189021E+03  0.29882345201E+03  0.92413951888E+03  0.91440808793E+02 0.  0.
         13    1    3    3    0    0 -0.61369719222E+03 -0.21273011058E+03  0.19542881783E+03  0.67828516608E+03  0.00000000000E+00 0.  1.
        -13    1    3    3    0    0 -0.22063824089E+03 -0.32751779635E+02  0.10339463417E+03  0.24585435279E+03  0.00000000000E+00 0. -1.
         22    1    1    2    0    0  0.83433543311E+03  0.24548189021E+03 -0.41312673671E+04  0.42218179771E+04  0.00000000000E+00 0. -1.
<mgrwt>
<rscale>  0 0.34341305E+04</rscale>
<asrwt>0</asrwt>
<pdfrwt beam="1">  1        2 0.69064627E+00 0.34341305E+04</pdfrwt>
<pdfrwt beam="2">  1       -2 0.10103951E+00 0.34341305E+04</pdfrwt>
<totfact> 0.83596953E-02</totfact>
</mgrwt>
</event>
<event>
 6    1  0.1585031E-006  0.1386893E+04  0.7818608E-02  0.8963361E-01
         -1   -1    0    0    0  501 -0.00000000000E+00  0.00000000000E+00  0.34429216680E+03  0.34429216680E+03  0.00000000000E+00 0.  1.
          1   -1    0    0  501    0  0.00000000000E+00 -0.00000000000E+00 -0.13966863338E+04  0.13966863338E+04  0.00000000000E+00 0. -1.
         23    2    1    2    0    0  0.45808624753E+02 -0.66816503001E+03 -0.31692120376E+03  0.74626074311E+03  0.89011852440E+02 0.  0.
         13    1    3    3    0    0  0.68077032373E+02 -0.49721167649E+03 -0.21480355234E+03  0.54588872462E+03  0.00000000000E+00 0. -1.
        -13    1    3    3    0    0 -0.22268407620E+02 -0.17095335353E+03 -0.10211765142E+03  0.20037201849E+03  0.00000000000E+00 0.  1.
         22    1    1    2    0    0 -0.45808624753E+02  0.66816503001E+03 -0.73547296328E+03  0.99471775754E+03  0.00000000000E+00 0.  1.
<mgrwt>
<rscale>  0 0.13868932E+04</rscale>
<asrwt>0</asrwt>
<pdfrwt beam="1">  1        1 0.21487482E+00 0.13868932E+04</pdfrwt>
<pdfrwt beam="2">  1       -1 0.52968026E-01 0.13868932E+04</pdfrwt>
<totfact> 0.27090537E+01</totfact>
</mgrwt>
</event>
<event>
 6    1  0.1585031E-006  0.4969751E+04  0.7818608E-02  0.7833190E-01
          2   -1    0    0  501    0  0.00000000000E+00  0.00000000000E+00  0.25223980143E+04  0.25223980143E+04  0.00000000000E+00 0. -1.
         -2   -1    0    0    0  501 -0.00000000000E+00 -0.00000000000E+00 -0.24479111287E+04  0.24479111287E+04  0.00000000000E+00 0.  1.
         23    2    1    2    0    0 -0.14952914848E+04 -0.13090997064E+04  0.15276799119E+04  0.25083163247E+04  0.90588109724E+02 0.  0.
         11    1    3    3    0    0 -0.12055098587E+04 -0.10199920218E+04  0.11810712382E+04  0.19719449824E+04  0.00000000000E+00 0.  1.
        -11    1    3    3    0    0 -0.28978162607E+03 -0.28910768464E+03  0.34660867368E+03  0.53637134226E+03  0.00000000000E+00 0. -1.
         22    1    1    2    0    0  0.14952914848E+04  0.13090997064E+04 -0.14531930263E+04  0.24619928184E+04  0.00000000000E+00 0.  1.
<mgrwt>
<rscale>  0 0.49697510E+04</rscale>
<asrwt>0</asrwt>
<pdfrwt beam="1">  1        2 0.38806123E+00 0.49697510E+04</pdfrwt>
<pdfrwt beam="2">  1       -2 0.37660171E+00 0.49697510E+04</pdfrwt>
<totfact> 0.25969317E-02</totfact>
</mgrwt>
</event>
<event>
 6    1  0.1585031E-006  0.3064283E+04  0.7818608E-02  0.8225609E-01
          1   -1    0    0  501    0  0.00000000000E+00  0.00000000000E+00  0.26728205331E+04  0.26728205331E+04  0.00000000000E+00 0. -1.
         -1   -1    0    0    0  501 -0.00000000000E+00 -0.00000000000E+00 -0.87826984446E+03  0.87826984446E+03  0.00000000000E+00 0.  1.
         23    2    1    2    0    0 -0.11629330851E+04  0.20956031310E+03  0.20258178335E+04  0.23470084129E+04  0.90452808186E+02 0.  0.
         13    1    3    3    0    0 -0.10222020296E+04  0.15474691654E+03  0.17831323919E+04  0.20611658654E+04  0.00000000000E+00 0. -1.
        -13    1    3    3    0    0 -0.14073105552E+03  0.54813396561E+02  0.24268544160E+03  0.28584254755E+03  0.00000000000E+00 0.  1.
         22    1    1    2    0    0  0.11629330851E+04 -0.20956031310E+03 -0.23126714486E+03  0.12040819646E+04  0.00000000000E+00 0.  1.
<mgrwt>
<rscale>  0 0.30642831E+04</rscale>
<asrwt>0</asrwt>
<pdfrwt beam="1">  1        1 0.41120316E+00 0.30642831E+04</pdfrwt>
<pdfrwt beam="2">  1       -1 0.13511844E+00 0.30642831E+04</pdfrwt>
<totfact> 0.39879051E-01</totfact>
</mgrwt>
</event>
<event>
 6    1  0.1585031E-006  0.1636290E+04  0.7818608E-02  0.8798559E-01
         -1   -1    0    0    0  501 -0.00000000000E+00  0.00000000000E+00  0.41146560612E+03  0.41146560612E+03  0.00000000000E+00 0.  1.
          1   -1    0    0  501    0  0.00000000000E+00 -0.00000000000E+00 -0.16267725227E+04  0.16267725227E+04  0.00000000000E+00 0. -1.
         23    2    1    2    0    0 -0.65168176032E+03  0.70723700302E+02 -0.45818658030E+01  0.66144979827E+03  0.88339592595E+02 0.  0.
         13    1    3    3    0    0 -0.33091301940E+03  0.31627104373E+02  0.41637771885E+02  0.33501851321E+03  0.00000000000E+00 0.  1.
        -13    1    3    3    0    0 -0.32076874092E+03  0.39096595929E+02 -0.46219637688E+02  0.32643128507E+03  0.00000000000E+00 0. -1.
         22    1    1    2    0    0  0.65168176032E+03 -0.70723700302E+02 -0.12107250508E+04  0.13767883305E+04  0.00000000000E+00 0. -1.
<mgrwt>
<rscale>  0 0.16362896E+04</rscale>
<asrwt>0</asrwt>
<pdfrwt beam="1">  1        1 0.25027269E+00 0.16362896E+04</pdfrwt>
<pdfrwt beam="2">  1       -1 0.63302402E-01 0.16362896E+04</pdfrwt>
<totfact> 0.12951115E+01</totfact>
</mgrwt>
</event>
<event>
 6    1  0.1585031E-006  0.8870187E+03  0.7818608E-02  0.9441956E-01
          2   -1    0    0  501    0  0.00000000000E+00  0.00000000000E+00  0.19285039621E+04  0.19285039621E+04  0.00000000000E+00 0. -1.
         -2   -1    0    0    0  501 -0.00000000000E+00 -0.00000000000E+00 -0.10199644429E+03  0.10199644429E+03  0.00000000000E+00 0.  1.
         23    2    1    2    0    0  0.31420757587E+03 -0.30223120768E+03  0.80034563695E+03  0.91556618889E+03  0.87396819252E+02 0.  0.
         11    1    3    3    0    0  0.14926415719E+03 -0.94763897408E+02  0.27103915598E+03  0.32360811014E+03  0.00000000000E+00 0. -1.
        -11    1    3    3    0    0  0.16494341869E+03 -0.20746731027E+03  0.52930648097E+03  0.59195807875E+03  0.00000000000E+00 0.  1.
         22    1    1    2    0    0 -0.31420757587E+03  0.30223120768E+03  0.10261618809E+04  0.11149342175E+04  0.00000000000E+00 0.  1.
<mgrwt>
<rscale>  0 0.88701871E+03</rscale>
<asrwt>0</asrwt>
<pdfrwt beam="1">  1        2 0.29669289E+00 0.88701871E+03</pdfrwt>
<pdfrwt beam="2">  1       -2 0.15691762E-01 0.88701871E+03</pdfrwt>
<totfact> 0.24032207E+02</totfact>
</mgrwt>
</event>
<event>
 6    1  0.1585031E-006  0.2638781E+04  0.7818608E-02  0.8355146E-01
         -1   -1    0    0    0  501 -0.00000000000E+00  0.00000000000E+00  0.21319835275E+04  0.21319835275E+04  0.00000000000E+00 0.  1.
          1   -1    0    0  501    0  0.00000000000E+00 -0.00000000000E+00 -0.81651226823E+03  0.81651226823E+03  0.00000000000E+00 0. -1.
         23    2    1    2    0    0 -0.80088160249E+03 -0.17539790038E+03  0.18112801818E+04  0.19903714550E+04  0.93096011140E+02 0.  0.
         13    1    3    3    0    0 -0.68118676426E+03 -0.17958467382E+03  0.15138499728E+04  0.16697328538E+04  0.00000000000E+00 0. -1.
        -13    1    3    3    0    0 -0.11969483823E+03  0.41867734323E+01  0.29743020901E+03  0.32063860124E+03  0.00000000000E+00 0.  1.
         22    1    1    2    0    0  0.80088160249E+03  0.17539790038E+03 -0.49580892251E+03  0.95812434073E+03  0.00000000000E+00 0. -1.
<mgrwt>
<rscale>  0 0.26387806E+04</rscale>
<asrwt>0</asrwt>
<pdfrwt beam="1">  1        1 0.12561727E+00 0.26387806E+04</pdfrwt>
<pdfrwt beam="2">  1       -1 0.32799747E+00 0.26387806E+04</pdfrwt>
<totfact> 0.40743567E-01</totfact>
</mgrwt>
</event>
<event>
 6    1  0.1585031E-006  0.4542679E+04  0.7818608E-02  0.7903207E-01
         -2   -1    0    0    0  501 -0.00000000000E+00  0.00000000000E+00  0.21635354277E+04  0.21635354277E+04  0.00000000000E+00 0.  1.
          2   -1    0    0  501    0  0.00000000000E+00 -0.00000000000E+00 -0.23845147445E+04  0.23845147445E+04  0.00000000000E+00 0. -1.
         23    2    1    2    0    0 -0.37814489427E+03 -0.66075915338E+03 -0.22520645601E+04  0.23789712237E+04  0.90072639576E+02 0.  0.
         11    1    3    3    0    0 -0.29354890397E+03 -0.43747287423E+03 -0.16052602991E+04  0.16895011402E+04  0.00000000000E+00 0. -1.
        -11    1    3    3    0    0 -0.84595990303E+02 -0.22328627914E+03 -0.64680426093E+03  0.68947008346E+03  0.00000000000E+00 0.  1.
         22    1    1    2    0    0  0.37814489427E+03  0.66075915338E+03  0.20310852432E+04  0.21690789486E+04  0.00000000000E+00 0.  1.
<mgrwt>
<rscale>  0 0.45426786E+04</rscale>
<asrwt>0</asrwt>
<pdfrwt beam="1">  1        2 0.36684842E+00 0.45426786E+04</pdfrwt>
<pdfrwt beam="2">  1       -2 0.33285161E+00 0.45426786E+04</pdfrwt>
<totfact> 0.61055474E-02</totfact>
</mgrwt>
</event>
<event>
 6    1  0.1585031E-006  0.9188612E+03  0.7818608E-02  0.9402306E-01
         -2   -1    0    0    0  501 -0.00000000000E+00  0.00000000000E+00  0.21531377415E+03  0.21531377415E+03  0.00000000000E+00 0.  1.
          2   -1    0    0  501    0  0.00000000000E+00 -0.00000000000E+00 -0.98032030204E+03  0.98032030204E+03  0.00000000000E+00 0. -1.
         23    2    1    2    0    0 -0.21988488215E+03 -0.22556590533E+03 -0.81336889565E+03  0.87693632336E+03  0.90658787573E+02 0.  0.
         11    1    3    3    0    0 -0.93361050849E+02 -0.13182717691E+03 -0.31075324754E+03  0.35023173935E+03  0.00000000000E+00 0.  1.
        -11    1    3    3    0    0 -0.12652383131E+03 -0.93738728416E+02 -0.50261564811E+03  0.52670458401E+03  0.00000000000E+00 0. -1.
         22    1    1    2    0    0  0.21988488215E+03  0.22556590533E+03  0.48362367766E+02  0.31869775283E+03  0.00000000000E+00 0.  1.
<mgrwt>
<rscale>  0 0.91886117E+03</rscale>
<asrwt>0</asrwt>
<pdfrwt beam="1">  1        2 0.15081851E+00 0.91886117E+03</pdfrwt>
<pdfrwt beam="2">  1       -2 0.33125196E-01 0.91886117E+03</pdfrwt>
<totfact> 0.22083730E+02</totfact>
</mgrwt>
</event>
<event>
 6    1  0.1585031E-006  0.7184984E+03  0.7818608E-02  0.9686110E-01
          1   -1    0    0  501    0  0.00000000000E+00  0.00000000000E+00  0.52629660304E+03  0.52629660304E+03  0.00000000000E+00 0. -1.
         -1   -1    0    0    0  501 -0.00000000000E+00 -0.00000000000E+00 -0.24522289747E+03  0.24522289747E+03  0.00000000000E+00 0.  1.
         23    2    1    2    0    0 -0.84715961465E+02  0.54846628529E+02 -0.22092431718E+03  0.25947754751E+03  0.91302228649E+02 0.  0.
         13    1    3    3    0    0 -0.60842833267E+02 -0.12783786998E+02 -0.12601542003E+03  0.14051747812E+03  0.00000000000E+00 0. -1.
        -13    1    3    3    0    0 -0.23873128197E+02  0.67630415527E+02 -0.94908897142E+02  0.11896006940E+03  0.00000000000E+00 0.  1.
         22    1    1    2    0    0  0.84715961465E+02 -0.54846628529E+02  0.50199802274E+03  0.51204195299E+03  0.00000000000E+00 0. -1.
<mgrwt>
<rscale>  0 0.71849837E+03</rscale>
<asrwt>0</asrwt>
<pdfrwt beam="1">  1        1 0.80968708E-01 0.71849837E+03</pdfrwt>
<pdfrwt beam="2">  1       -1 0.37726600E-01 0.71849837E+03</pdfrwt>
<totfact> 0.28310163E+02</totfact>
</mgrwt>
</event>
<event>
 6    1  0.1585031E-006  0.1961309E+04  0.7818608E-02  0.8624926E-01
          1   -1    0    0  501    0  0.00000000000E+00  0.00000000000E+00  0.16118171250E+04  0.16118171250E+04  0.00000000000E+00 0. -1.
         -1   -1    0    0    0  501 -0.00000000000E+00 -0.00000000000E+00 -0.59664561625E+03  0.59664561625E+03  0.00000000000E+00 0.  1.
         23    2    1    2    0    0  0.55536041493E+03  0.51033047445E+03 -0.19347629202E+03  0.78379018592E+03  0.89619173954E+02 0.  0.
         13    1    3    3    0    0  0.36359719750E+03  0.38759756299E+03 -0.14725190482E+03  0.55146887160E+03  0.00000000000E+00 0. -1.
        -13    1    3    3    0    0  0.19176321744E+03  0.12273291146E+03 -0.46224387191E+02  0.23232131432E+03  0.00000000000E+00 0.  1.
         22    1    1    2    0    0 -0.55536041493E+03 -0.51033047445E+03  0.12086478008E+04  0.14246725553E+04  0.00000000000E+00 0. -1.
<mgrwt>
<rscale>  0 0.19613094E+04</rscale>
<asrwt>0</asrwt>
<pdfrwt beam="1">  1        1 0.24797186E+00 0.19613094E+04</pdfrwt>
<pdfrwt beam="2">  1       -1 0.91791634E-01 0.19613094E+04</pdfrwt>
<totfact> 0.58936061E+00</totfact>
</mgrwt>
</event>
<event>
 6    1  0.1585031E-006  0.1819416E+04  0.7818608E-02  0.8696042E-01
         -2   -1    0    0    0  501 -0.00000000000E+00  0.00000000000E+00  0.63782661798E+03  0.63782661798E+03  0.00000000000E+00 0.  1.
          2   -1    0    0  501    0  0.00000000000E+00 -0.00000000000E+00 -0.12974823403E+04  0.12974823403E+04  0.00000000000E+00 0. -1.
         23    2    1    2    0    0  0.35202072123E+03  0.79280618217E+03 -0.61366800220E+03  0.10666461347E+04  0.93195112926E+02 0.  0.
         11    1    3    3    0    0  0.60400543957E+02  0.23639380743E+03 -0.16035495751E+03  0.29196570055E+03  0.00000000000E+00 0. -1.
        -11    1    3    3    0    0  0.29162017727E+03  0.55641237474E+03 -0.45331304469E+03  0.77468043414E+03  0.00000000000E+00 0.  1.
         22    1    1    2    0    0 -0.35202072123E+03 -0.79280618217E+03 -0.45987720108E+02  0.86866282358E+03  0.00000000000E+00 0.  1.
<mgrwt>
<rscale>  0 0.18194161E+04</rscale>
<asrwt>0</asrwt>
<pdfrwt beam="1">  1        2 0.19961267E+00 0.18194161E+04</pdfrwt>
<pdfrwt beam="2">  1       -2 0.98127173E-01 0.18194161E+04</pdfrwt>
<totfact> 0.13507278E+01</totfact>
</mgrwt>
</event>
<event>
 6    1  0.1585031E-006  0.8175423E+03  0.7818608E-02  0.9534967E-01
          2   -1    0    0  501    0  0.00000000000E+00  0.00000000000E+00  0.53868273748E+03  0.53868273748E+03  0.00000000000E+00 0. -1.
         -2   -1    0    0    0  501 -0.00000000000E+00 -0.00000000000E+00 -0.31018971205E+03  0.31018971205E+03  0.00000000000E+00 0.  1.
         23    2    1    2    0    0 -0.53385606373E+02 -0.14864878457E+03  0.50163783390E+03  0.53334975539E+03  0.88740977273E+02 0.  0.
         11    1    3    3    0    0 -0.70593708182E+02 -0.73472216092E+02  0.24407248320E+03  0.26448632333E+03  0.00000000000E+00 0.  1.
        -11    1    3    3    0    0  0.17208101809E+02 -0.75176568474E+02  0.25756535070E+03  0.26886343206E+03  0.00000000000E+00 0. -1.
         22    1    1    2    0    0  0.53385606373E+02  0.14864878457E+03 -0.27314480847E+03  0.31552269414E+03  0.00000000000E+00 0.  1.
<mgrwt>
<rscale>  0 0.81754228E+03</rscale>
<asrwt>0</asrwt>
<pdfrwt beam="1">  1        2 0.82874267E-01 0.81754228E+03</pdfrwt>
<pdfrwt beam="2">  1       -2 0.47721494E-01 0.81754228E+03</pdfrwt>
<totfact> 0.23625519E+02</totfact>
</mgrwt>
</event>
<event>
 6    1  0.1585031E-006  0.9277657E+03  0.7818608E-02  0.9391523E-01
         -2   -1    0    0    0  501 -0.00000000000E+00  0.00000000000E+00  0.26413185922E+03  0.26413185922E+03  0.00000000000E+00 0.  1.
          2   -1    0    0  501    0  0.00000000000E+00 -0.00000000000E+00 -0.81469644360E+03  0.81469644360E+03  0.00000000000E+00 0. -1.
         23    2    1    2    0    0  0.30927635827E+03 -0.22955407131E+03  0.12694255700E+02  0.39647395325E+03  0.93185374607E+02 0.  0.
         13    1    3    3    0    0  0.25060198849E+03 -0.17342005363E+03 -0.27265388612E+02  0.30597266717E+03  0.00000000000E+00 0. -1.
        -13    1    3    3    0    0  0.58674369779E+02 -0.56134017675E+02  0.39959644312E+02  0.90501286084E+02  0.00000000000E+00 0.  1.
         22    1    1    2    0    0 -0.30927635827E+03  0.22955407131E+03 -0.56325884008E+03  0.68235434956E+03  0.00000000000E+00 0. -1.
<mgrwt>
<rscale>  0 0.92776567E+03</rscale>
<asrwt>0</asrwt>
<pdfrwt beam="1">  1        2 0.12533792E+00 0.92776567E+03</pdfrwt>
<pdfrwt beam="2">  1       -2 0.40635670E-01 0.92776567E+03</pdfrwt>
<totfact> 0.19297564E+02</totfact>
</mgrwt>
</event>
<event>
 6    1  0.1585031E-006  0.3105605E+04  0.7818608E-02  0.8214201E-01
         -1   -1    0    0    0  501 -0.00000000000E+00  0.00000000000E+00  0.15552077752E+04  0.15552077752E+04  0.00000000000E+00 0. -1.
          1   -1    0    0  501    0  0.00000000000E+00 -0.00000000000E+00 -0.15504004663E+04  0.15504004663E+04  0.00000000000E+00 0.  1.
         23    2    1    2    0    0 -0.19787207541E+03 -0.86521266059E+03 -0.12697304187E+04  0.15524847032E+04  0.10122801467E+03 0.  0.
         11    1    3    3    0    0 -0.74695046194E+02 -0.35063187066E+03 -0.60021991702E+03  0.69913232470E+03  0.00000000000E+00 0.  1.
        -11    1    3    3    0    0 -0.12317702922E+03 -0.51458078992E+03 -0.66951050172E+03  0.85335237845E+03  0.00000000000E+00 0. -1.
         22    1    1    2    0    0  0.19787207541E+03  0.86521266059E+03  0.12745377276E+04  0.15531235384E+04  0.00000000000E+00 0. -1.
<mgrwt>
<rscale>  0 0.31056045E+04</rscale>
<asrwt>0</asrwt>
<pdfrwt beam="1">  1        1 0.23852315E+00 0.31056045E+04</pdfrwt>
<pdfrwt beam="2">  1       -1 0.23926273E+00 0.31056045E+04</pdfrwt>
<totfact> 0.41743678E-01</totfact>
</mgrwt>
</event>
<event>
 6    1  0.1585031E-006  0.8931087E+03  0.7818608E-02  0.9434237E-01
         -2   -1    0    0    0  501 -0.00000000000E+00  0.00000000000E+00  0.15381172946E+03  0.15381172946E+03  0.00000000000E+00 0.  1.
          2   -1    0    0  501    0  0.00000000000E+00 -0.00000000000E+00 -0.12964602804E+04  0.12964602804E+04  0.00000000000E+00 0. -1.
         23    2    1    2    0    0 -0.32347410551E+02 -0.32053038698E+03 -0.10683737586E+04  0.11196622267E+04  0.91841874176E+02 0.  0.
         13    1    3    3    0    0 -0.27999325349E+02 -0.16323693950E+03 -0.69546893279E+03  0.71491768555E+03  0.00000000000E+00 0. -1.
        -13    1    3    3    0    0 -0.43480852016E+01 -0.15729344748E+03 -0.37290482580E+03  0.40474454112E+03  0.00000000000E+00 0.  1.
         22    1    1    2    0    0  0.32347410551E+02  0.32053038698E+03 -0.74274792314E+02  0.33060978316E+03  0.00000000000E+00 0.  1.
<mgrwt>
<rscale>  0 0.89310872E+03</rscale>
<asrwt>0</asrwt>
<pdfrwt beam="1">  1        2 0.19945543E+00 0.89310872E+03</pdfrwt>
<pdfrwt beam="2">  1       -2 0.23663343E-01 0.89310872E+03</pdfrwt>
<totfact> 0.26361753E+02</totfact>
</mgrwt>
</event>
<event>
 6    1  0.1585031E-006  0.2767475E+04  0.7818608E-02  0.8313438E-01
         -1   -1    0    0    0  501 -0.00000000000E+00  0.00000000000E+00  0.53692553761E+03  0.53692553761E+03  0.00000000000E+00 0.  1.
          1   -1    0    0  501    0  0.00000000000E+00 -0.00000000000E+00 -0.35660991881E+04  0.35660991881E+04  0.00000000000E+00 0. -1.
         23    2    1    2    0    0 -0.13341867976E+04 -0.20723764589E+03 -0.19546561187E+04  0.23774553185E+04  0.92797611851E+02 0.  0.
         13    1    3    3    0    0 -0.11038666210E+04 -0.14590412533E+03 -0.15650808285E+04  0.19207518138E+04  0.00000000000E+00 0.  1.
        -13    1    3    3    0    0 -0.23032017661E+03 -0.61333520564E+02 -0.38957529015E+03  0.45670350469E+03  0.00000000000E+00 0. -1.
         22    1    1    2    0    0  0.13341867976E+04  0.20723764589E+03 -0.10745175318E+04  0.17255694071E+04  0.00000000000E+00 0. -1.
<mgrwt>
<rscale>  0 0.27674752E+04</rscale>
<asrwt>0</asrwt>
<pdfrwt beam="1">  1        1 0.54863064E+00 0.27674752E+04</pdfrwt>
<pdfrwt beam="2">  1       -1 0.82603929E-01 0.27674752E+04</pdfrwt>
<totfact> 0.27995405E-01</totfact>
</mgrwt>
</event>
<event>
 6    1  0.1585031E-006  0.1995940E+04  0.7818608E-02  0.8608521E-01
         -4   -1    0    0    0  501 -0.00000000000E+00  0.00000000000E+00  0.77584654570E+03  0.77584654570E+03  0.00000000000E+00 0.  1.
          4   -1    0    0  501    0  0.00000000000E+00 -0.00000000000E+00 -0.12836873011E+04  0.12836873011E+04  0.00000000000E+00 0. -1.
         23    2    1    2    0    0 -0.29415833399E+03  0.48573856186E+03 -0.10986410973E+04  0.12400729753E+04  0.91091424023E+02 0.  0.
         11    1    3    3    0    0 -0.18815359199E+03  0.34230710500E+03 -0.66574627922E+03  0.77187695691E+03  0.00000000000E+00 0.  1.
        -11    1    3    3    0    0 -0.10600474199E+03  0.14343145687E+03 -0.43289481809E+03  0.46819601843E+03  0.00000000000E+00 0. -1.
         22    1    1    2    0    0  0.29415833399E+03 -0.48573856186E+03  0.59080034188E+03  0.81946087149E+03  0.00000000000E+00 0.  1.
<mgrwt>
<rscale>  0 0.19959402E+04</rscale>
<asrwt>0</asrwt>
<pdfrwt beam="1">  1        4 0.19749035E+00 0.19959402E+04</pdfrwt>
<pdfrwt beam="2">  1       -4 0.11936101E+00 0.19959402E+04</pdfrwt>
<totfact> 0.13636183E-01</totfact>
</mgrwt>
</event>
<event>
 6    1  0.1585031E-006  0.5251806E+03  0.7818608E-02  0.1007408E+00
         -2   -1    0    0    0  501 -0.00000000000E+00  0.00000000000E+00  0.61853035743E+02  0.61853035743E+02  0.00000000000E+00 0.  1.
          2   -1    0    0  501    0  0.00000000000E+00 -0.00000000000E+00 -0.11147985196E+04  0.11147985196E+04  0.00000000000E+00 0. -1.
         23    2    1    2    0    0  0.10201871539E+03  0.19206175376E+03 -0.82804322624E+03  0.86379925627E+03  0.11488270137E+03 0.  0.
         11    1    3    3    0    0  0.59345069617E+02  0.73262599262E+02 -0.55547882675E+03  0.56342343997E+03  0.00000000000E+00 0. -1.
        -11    1    3    3    0    0  0.42673645775E+02  0.11879915450E+03 -0.27256439949E+03  0.30037581630E+03  0.00000000000E+00 0.  1.
         22    1    1    2    0    0 -0.10201871539E+03 -0.19206175376E+03 -0.22490225761E+03  0.31285229906E+03  0.00000000000E+00 0.  1.
<mgrwt>
<rscale>  0 0.52518063E+03</rscale>
<asrwt>0</asrwt>
<pdfrwt beam="1">  1        2 0.17150746E+00 0.52518063E+03</pdfrwt>
<pdfrwt beam="2">  1       -2 0.95158521E-02 0.52518063E+03</pdfrwt>
<totfact> 0.16025195E+03</totfact>
</mgrwt>
</event>
<event>
 6    1  0.1585031E-006  0.1176609E+04  0.7818608E-02  0.9133581E-01
         -2   -1    0    0    0  501 -0.00000000000E+00  0.00000000000E+00  0.50420238779E+03  0.50420238779E+03  0.00000000000E+00 0.  1.
          2   -1    0    0  501    0  0.00000000000E+00 -0.00000000000E+00 -0.68643448086E+03  0.68643448086E+03  0.00000000000E+00 0. -1.
         23    2    1    2    0    0  0.64263057298E+01 -0.44240267820E+03  0.29527837463E+03  0.53965478453E+03  0.90975495900E+02 0.  0.
         11    1    3    3    0    0 -0.12689466312E+02 -0.26878011592E+03  0.22725409571E+03  0.35220476613E+03  0.00000000000E+00 0. -1.
        -11    1    3    3    0    0  0.19115772042E+02 -0.17362256228E+03  0.68024278921E+02  0.18745001840E+03  0.00000000000E+00 0.  1.
         22    1    1    2    0    0 -0.64263057298E+01  0.44240267820E+03 -0.47751046770E+03  0.65098208412E+03  0.00000000000E+00 0. -1.
<mgrwt>
<rscale>  0 0.11766085E+04</rscale>
<asrwt>0</asrwt>
<pdfrwt beam="1">  1        2 0.10560530E+00 0.11766085E+04</pdfrwt>
<pdfrwt beam="2">  1       -2 0.77569598E-01 0.11766085E+04</pdfrwt>
<totfact> 0.61517298E+01</totfact>
</mgrwt>
</event>
<event>
 6    1  0.1585031E-006  0.6081756E+04  0.7818608E-02  0.7680347E-01
          2   -1    0    0  501    0  0.00000000000E+00  0.00000000000E+00  0.26795739521E+04  0.26795739521E+04  0.00000000000E+00 0. -1.
         -2   -1    0    0    0  501 -0.00000000000E+00 -0.00000000000E+00 -0.34508989758E+04  0.34508989758E+04  0.00000000000E+00 0.  1.
         23    2    1    2    0    0 -0.28513500724E+02 -0.17678699929E+04  0.21072063615E+04  0.27522899450E+04  0.92757533282E+02 0.  0.
         13    1    3    3    0    0 -0.55311965560E+02 -0.11081348331E+04  0.12823992117E+04  0.16957505595E+04  0.00000000000E+00 0.  1.
        -13    1    3    3    0    0  0.26798464836E+02 -0.65973515975E+03  0.82480714979E+03  0.10565393855E+04  0.00000000000E+00 0. -1.
         22    1    1    2    0    0  0.28513500724E+02  0.17678699929E+04 -0.28785313852E+04  0.33781829830E+04  0.00000000000E+00 0.  1.
<mgrwt>
<rscale>  0 0.60817560E+04</rscale>
<asrwt>0</asrwt>
<pdfrwt beam="1">  1        2 0.41224215E+00 0.60817560E+04</pdfrwt>
<pdfrwt beam="2">  1       -2 0.53090754E+00 0.60817560E+04</pdfrwt>
<totfact> 0.20084595E-03</totfact>
</mgrwt>
</event>
<event>
 6    1  0.1585031E-006  0.1349969E+04  0.7818608E-02  0.8990851E-01
         -2   -1    0    0    0  501 -0.00000000000E+00  0.00000000000E+00  0.95557269260E+03  0.95557269260E+03  0.00000000000E+00 0.  1.
          2   -1    0    0  501    0  0.00000000000E+00 -0.00000000000E+00 -0.47678650566E+03  0.47678650566E+03  0.00000000000E+00 0. -1.
         23    2    1    2    0    0  0.59913933346E+02  0.15362679802E+03  0.93081331384E+03  0.95119457369E+03  0.10567317212E+03 0.  0.
         13    1    3    3    0    0 -0.12960981677E+02 -0.10234948769E+02  0.78913965627E+02  0.80623539945E+02  0.00000000000E+00 0.  1.
        -13    1    3    3    0    0  0.72874915023E+02  0.16386174679E+03  0.85189934822E+03  0.87057103374E+03  0.00000000000E+00 0. -1.
         22    1    1    2    0    0 -0.59913933346E+02 -0.15362679802E+03 -0.45202712690E+03  0.48116462457E+03  0.00000000000E+00 0. -1.
<mgrwt>
<rscale>  0 0.13499691E+04</rscale>
<asrwt>0</asrwt>
<pdfrwt beam="1">  1        2 0.73351770E-01 0.13499691E+04</pdfrwt>
<pdfrwt beam="2">  1       -2 0.14701118E+00 0.13499691E+04</pdfrwt>
<totfact> 0.20067815E+01</totfact>
</mgrwt>
</event>
<event>
 6    1  0.1585031E-006  0.1562404E+04  0.7818608E-02  0.8843983E-01
          1   -1    0    0  501    0  0.00000000000E+00  0.00000000000E+00  0.15915126663E+04  0.15915126663E+04  0.00000000000E+00 0. -1.
         -1   -1    0    0    0  501 -0.00000000000E+00 -0.00000000000E+00 -0.38345691026E+03  0.38345691026E+03  0.00000000000E+00 0.  1.
         23    2    1    2    0    0 -0.11320985933E+03 -0.66915270290E+03  0.10883296259E+04  0.12858279668E+04  0.91161250642E+02 0.  0.
         11    1    3    3    0    0 -0.83009122080E+02 -0.23938250493E+03  0.42837569254E+03  0.49769491857E+03  0.00000000000E+00 0. -1.
        -11    1    3    3    0    0 -0.30200737252E+02 -0.42977019797E+03  0.65995393334E+03  0.78813304824E+03  0.00000000000E+00 0.  1.
         22    1    1    2    0    0  0.11320985933E+03  0.66915270290E+03  0.11972613016E+03  0.68914160975E+03  0.00000000000E+00 0.  1.
<mgrwt>
<rscale>  0 0.15624040E+04</rscale>
<asrwt>0</asrwt>
<pdfrwt beam="1">  1        1 0.24484810E+00 0.15624040E+04</pdfrwt>
<pdfrwt beam="2">  1       -1 0.58993372E-01 0.15624040E+04</pdfrwt>
<totfact> 0.15852953E+01</totfact>
</mgrwt>
</event>
<event>
 6    1  0.1585031E-006  0.1489293E+04  0.7818608E-02  0.8891605E-01
          2   -1    0    0  501    0  0.00000000000E+00  0.00000000000E+00  0.79973505528E+03  0.79973505528E+03  0.00000000000E+00 0. -1.
         -2   -1    0    0    0  501 -0.00000000000E+00 -0.00000000000E+00 -0.69335237929E+03  0.69335237929E+03  0.00000000000E+00 0.  1.
         23    2    1    2    0    0  0.65911890435E+03 -0.26389222800E+03 -0.16657514812E+03  0.73244112267E+03  0.68160693534E+02 0.  0.
         13    1    3    3    0    0  0.40016767768E+03 -0.13242930621E+03 -0.12051123972E+03  0.43840010299E+03  0.00000000000E+00 0.  1.
        -13    1    3    3    0    0  0.25895122667E+03 -0.13146292179E+03 -0.46063908401E+02  0.29404101968E+03  0.00000000000E+00 0. -1.
         22    1    1    2    0    0 -0.65911890435E+03  0.26389222800E+03  0.27295782411E+03  0.76064631190E+03  0.00000000000E+00 0.  1.
<mgrwt>
<rscale>  0 0.14892927E+04</rscale>
<asrwt>0</asrwt>
<pdfrwt beam="1">  1        2 0.12303616E+00 0.14892927E+04</pdfrwt>
<pdfrwt beam="2">  1       -2 0.10666960E+00 0.14892927E+04</pdfrwt>
<totfact> 0.23585930E+01</totfact>
</mgrwt>
</event>
<event>
 6    1  0.1585031E-006  0.1399304E+04  0.7818608E-02  0.8954323E-01
          2   -1    0    0  501    0  0.00000000000E+00  0.00000000000E+00  0.79178849933E+03  0.79178849933E+03  0.00000000000E+00 0.  1.
         -2   -1    0    0    0  501 -0.00000000000E+00 -0.00000000000E+00 -0.61823667930E+03  0.61823667930E+03  0.00000000000E+00 0. -1.
         23    2    1    2    0    0 -0.66266433127E+03 -0.20293548490E+03  0.14649285969E+02  0.69899997353E+03  0.89886230553E+02 0.  0.
         11    1    3    3    0    0 -0.54458135374E+03 -0.20176672808E+03  0.11799290973E+02  0.58087682573E+03  0.00000000000E+00 0. -1.
        -11    1    3    3    0    0 -0.11808297753E+03 -0.11687568264E+01  0.28499949956E+01  0.11812314780E+03  0.00000000000E+00 0.  1.
         22    1    1    2    0    0  0.66266433127E+03  0.20293548490E+03  0.15890253405E+03  0.71102520511E+03  0.00000000000E+00 0.  1.
<mgrwt>
<rscale>  0 0.13993037E+04</rscale>
<asrwt>0</asrwt>
<pdfrwt beam="1">  1        2 0.12181362E+00 0.13993037E+04</pdfrwt>
<pdfrwt beam="2">  1       -2 0.95113335E-01 0.13993037E+04</pdfrwt>
<totfact> 0.31601343E+01</totfact>
</mgrwt>
</event>
<event>
 6    1  0.1585031E-006  0.4631625E+04  0.7818608E-02  0.7887990E-01
          2   -1    0    0  501    0  0.00000000000E+00  0.00000000000E+00  0.32466762432E+04  0.32466762432E+04  0.00000000000E+00 0.  1.
         -2   -1    0    0    0  501 -0.00000000000E+00 -0.00000000000E+00 -0.16518396220E+04  0.16518396220E+04  0.00000000000E+00 0. -1.
         23    2    1    2    0    0  0.20297356968E+04 -0.74654364160E+03 -0.75397669772E+02  0.21659644944E+04  0.92536341648E+02 0.  0.
         11    1    3    3    0    0  0.26480385632E+03 -0.80841078591E+02 -0.36451483635E+02  0.27925807592E+03  0.00000000000E+00 0. -1.
        -11    1    3    3    0    0  0.17649318405E+04 -0.66570256301E+03 -0.38946186137E+02  0.18867064184E+04  0.00000000000E+00 0.  1.
         22    1    1    2    0    0 -0.20297356968E+04  0.74654364160E+03  0.16702342910E+04  0.27325513709E+04  0.00000000000E+00 0.  1.
<mgrwt>
<rscale>  0 0.46316254E+04</rscale>
<asrwt>0</asrwt>
<pdfrwt beam="1">  1        2 0.49948865E+00 0.46316254E+04</pdfrwt>
<pdfrwt beam="2">  1       -2 0.25412917E+00 0.46316254E+04</pdfrwt>
<totfact> 0.54852623E-02</totfact>
</mgrwt>
</event>
<event>
 6    1  0.1585031E-006  0.8880517E+03  0.7818608E-02  0.9440642E-01
         -2   -1    0    0    0  501 -0.00000000000E+00  0.00000000000E+00  0.89174634540E+02  0.89174634540E+02  0.00000000000E+00 0.  1.
          2   -1    0    0  501    0  0.00000000000E+00 -0.00000000000E+00 -0.22109309181E+04  0.22109309181E+04  0.00000000000E+00 0. -1.
         23    2    1    2    0    0  0.13919673477E+03  0.11191589138E+03 -0.21117276044E+04  0.21212159998E+04  0.90900740572E+02 0.  0.
         11    1    3    3    0    0  0.13673683269E+03  0.12606895479E+03 -0.19464756083E+04  0.19553407981E+04  0.00000000000E+00 0. -1.
        -11    1    3    3    0    0  0.24599020743E+01 -0.14153063412E+02 -0.16525199611E+03  0.16587520171E+03  0.00000000000E+00 0.  1.
         22    1    1    2    0    0 -0.13919673477E+03 -0.11191589138E+03 -0.10028679104E+02  0.17888955285E+03  0.00000000000E+00 0.  1.
<mgrwt>
<rscale>  0 0.88805170E+03</rscale>
<asrwt>0</asrwt>
<pdfrwt beam="1">  1        2 0.34014320E+00 0.88805170E+03</pdfrwt>
<pdfrwt beam="2">  1       -2 0.13719175E-01 0.88805170E+03</pdfrwt>
<totfact> 0.21087977E+02</totfact>
</mgrwt>
</event>
<event>
 6    1  0.1585031E-006  0.3286279E+04  0.7818608E-02  0.8166395E-01
         -2   -1    0    0    0  501 -0.00000000000E+00  0.00000000000E+00  0.10391066075E+04  0.10391066075E+04  0.00000000000E+00 0. -1.
          2   -1    0    0  501    0  0.00000000000E+00 -0.00000000000E+00 -0.25982972629E+04  0.25982972629E+04  0.00000000000E+00 0.  1.
         23    2    1    2    0    0  0.13591207110E+04 -0.62133702176E+03 -0.27475977316E+02  0.14974462407E+04  0.91222326151E+02 0.  0.
         13    1    3    3    0    0  0.80351567256E+03 -0.34364155460E+03 -0.55515158810E+02  0.87567624552E+03  0.00000000000E+00 0. -1.
        -13    1    3    3    0    0  0.55560503847E+03 -0.27769546716E+03  0.28039181494E+02  0.62176999522E+03  0.00000000000E+00 0.  1.
         22    1    1    2    0    0 -0.13591207110E+04  0.62133702176E+03 -0.15317146780E+04  0.21399576296E+04  0.00000000000E+00 0.  1.
<mgrwt>
<rscale>  0 0.32862793E+04</rscale>
<asrwt>0</asrwt>
<pdfrwt beam="1">  1        2 0.39973804E+00 0.32862793E+04</pdfrwt>
<pdfrwt beam="2">  1       -2 0.15986256E+00 0.32862793E+04</pdfrwt>
<totfact> 0.64377363E-01</totfact>
</mgrwt>
</event>
<event>
 6    1  0.1585031E-006  0.2125401E+04  0.7818608E-02  0.8550136E-01
          3   -1    0    0  501    0  0.00000000000E+00  0.00000000000E+00  0.90578167649E+03  0.90578167649E+03  0.00000000000E+00 0. -1.
         -3   -1    0    0    0  501 -0.00000000000E+00 -0.00000000000E+00 -0.12468037011E+04  0.12468037011E+04  0.00000000000E+00 0.  1.
         23    2    1    2    0    0  0.59086253084E+03 -0.27028862438E+03 -0.10199367197E+04  0.12128515674E+04  0.92539405103E+02 0.  0.
         11    1    3    3    0    0  0.43090367189E+03 -0.16083665577E+03 -0.66719288567E+03  0.81036581306E+03  0.00000000000E+00 0.  1.
        -11    1    3    3    0    0  0.15995885895E+03 -0.10945196861E+03 -0.35274383400E+03  0.40248575430E+03  0.00000000000E+00 0. -1.
         22    1    1    2    0    0 -0.59086253084E+03  0.27028862438E+03  0.67891469509E+03  0.93973381020E+03  0.00000000000E+00 0. -1.
<mgrwt>
<rscale>  0 0.21254006E+04</rscale>
<asrwt>0</asrwt>
<pdfrwt beam="1">  1        3 0.13935103E+00 0.21254006E+04</pdfrwt>
<pdfrwt beam="2">  1       -3 0.19181595E+00 0.21254006E+04</pdfrwt>
<totfact> 0.15503533E-01</totfact>
</mgrwt>
</event>
<event>
 6    1  0.1585031E-006  0.1544652E+04  0.7818608E-02  0.8855291E-01
         -1   -1    0    0    0  501 -0.00000000000E+00  0.00000000000E+00  0.72090170132E+03  0.72090170132E+03  0.00000000000E+00 0.  1.
          1   -1    0    0  501    0  0.00000000000E+00 -0.00000000000E+00 -0.82741858781E+03  0.82741858781E+03  0.00000000000E+00 0. -1.
         23    2    1    2    0    0 -0.71045822963E+03 -0.23634606500E+03  0.12725174761E+03  0.76393636987E+03  0.82434285645E+02 0.  0.
         13    1    3    3    0    0 -0.34909780883E+03 -0.73061310898E+02  0.55321884859E+02  0.36092623377E+03  0.00000000000E+00 0. -1.
        -13    1    3    3    0    0 -0.36136042081E+03 -0.16328475410E+03  0.71929862752E+02  0.40301013610E+03  0.00000000000E+00 0.  1.
         22    1    1    2    0    0  0.71045822963E+03  0.23634606500E+03 -0.23376863410E+03  0.78438391925E+03  0.00000000000E+00 0. -1.
<mgrwt>
<rscale>  0 0.15446520E+04</rscale>
<asrwt>0</asrwt>
<pdfrwt beam="1">  1        1 0.12729517E+00 0.15446520E+04</pdfrwt>
<pdfrwt beam="2">  1       -1 0.11090795E+00 0.15446520E+04</pdfrwt>
<totfact> 0.15106707E+01</totfact>
</mgrwt>
</event>
<event>
 6    1  0.1585031E-006  0.2311680E+04  0.7818608E-02  0.8473330E-01
          1   -1    0    0  501    0  0.00000000000E+00  0.00000000000E+00  0.73799746381E+03  0.73799746381E+03  0.00000000000E+00 0. -1.
         -1   -1    0    0    0  501 -0.00000000000E+00 -0.00000000000E+00 -0.18102583080E+04  0.18102583080E+04  0.00000000000E+00 0.  1.
         23    2    1    2    0    0  0.96235499085E+02 -0.44640818393E+03 -0.17052882271E+04  0.17677013499E+04  0.90656423796E+02 0.  0.
         13    1    3    3    0    0  0.85720485484E+02 -0.32444745775E+03 -0.13779034095E+04  0.14181791003E+04  0.00000000000E+00 0.  1.
        -13    1    3    3    0    0  0.10515013601E+02 -0.12196072619E+03 -0.32738481756E+03  0.34952224967E+03  0.00000000000E+00 0. -1.
         22    1    1    2    0    0 -0.96235499085E+02  0.44640818393E+03  0.63302738290E+03  0.78055442185E+03  0.00000000000E+00 0. -1.
<mgrwt>
<rscale>  0 0.23116799E+04</rscale>
<asrwt>0</asrwt>
<pdfrwt beam="1">  1        1 0.11353807E+00 0.23116799E+04</pdfrwt>
<pdfrwt beam="2">  1       -1 0.27850127E+00 0.23116799E+04</pdfrwt>
<totfact> 0.10322870E+00</totfact>
</mgrwt>
</event>
<event>
 6    1  0.1585031E-006  0.2012901E+04  0.7818608E-02  0.8600613E-01
         -2   -1    0    0    0  501 -0.00000000000E+00  0.00000000000E+00  0.25749994736E+04  0.25749994736E+04  0.00000000000E+00 0.  1.
          2   -1    0    0  501    0  0.00000000000E+00 -0.00000000000E+00 -0.39337576606E+03  0.39337576606E+03  0.00000000000E+00 0. -1.
         23    2    1    2    0    0  0.33921013049E+03  0.13969115623E+03  0.24718558411E+04  0.25006019793E+04  0.91443030714E+02 0.  0.
         11    1    3    3    0    0  0.18738946048E+03  0.10101113503E+03  0.16765681233E+04  0.16900292102E+04  0.00000000000E+00 0. -1.
        -11    1    3    3    0    0  0.15182067000E+03  0.38680021199E+02  0.79528771784E+03  0.81057276911E+03  0.00000000000E+00 0.  1.
         22    1    1    2    0    0 -0.33921013049E+03 -0.13969115623E+03 -0.29023213358E+03  0.46777326037E+03  0.00000000000E+00 0. -1.
<mgrwt>
<rscale>  0 0.20129008E+04</rscale>
<asrwt>0</asrwt>
<pdfrwt beam="1">  1        2 0.60519350E-01 0.20129008E+04</pdfrwt>
<pdfrwt beam="2">  1       -2 0.39615375E+00 0.20129008E+04</pdfrwt>
<totfact> 0.59315862E-01</totfact>
</mgrwt>
</event>
<event>
 6    1  0.1585031E-006  0.2821770E+04  0.7818608E-02  0.8296541E-01
          1   -1    0    0  501    0  0.00000000000E+00  0.00000000000E+00  0.13664404042E+04  0.13664404042E+04  0.00000000000E+00 0.  1.
         -1   -1    0    0    0  501 -0.00000000000E+00 -0.00000000000E+00 -0.14567748292E+04  0.14567748292E+04  0.00000000000E+00 0. -1.
         23    2    1    2    0    0 -0.58549590327E+03 -0.11251353617E+04  0.56983274304E+03  0.13933356145E+04  0.89105244916E+02 0.  0.
         13    1    3    3    0    0 -0.19160083598E+03 -0.39116364624E+03  0.24096364271E+03  0.49777842018E+03  0.00000000000E+00 0. -1.
        -13    1    3    3    0    0 -0.39389506729E+03 -0.73397171543E+03  0.32886910033E+03  0.89555719428E+03  0.00000000000E+00 0.  1.
         22    1    1    2    0    0  0.58549590327E+03  0.11251353617E+04 -0.66016716807E+03  0.14298796189E+04  0.00000000000E+00 0. -1.
<mgrwt>
<rscale>  0 0.28217696E+04</rscale>
<asrwt>0</asrwt>
<pdfrwt beam="1">  1        1 0.21022160E+00 0.28217696E+04</pdfrwt>
<pdfrwt beam="2">  1       -1 0.22411920E+00 0.28217696E+04</pdfrwt>
<totfact> 0.72411967E-01</totfact>
</mgrwt>
</event>
<event>
 6    1  0.1585031E-006  0.2199204E+04  0.7818608E-02  0.8518759E-01
         -2   -1    0    0    0  501 -0.00000000000E+00  0.00000000000E+00  0.57416765725E+03  0.57416765725E+03  0.00000000000E+00 0.  1.
          2   -1    0    0  501    0  0.00000000000E+00 -0.00000000000E+00 -0.21058739694E+04  0.21058739694E+04  0.00000000000E+00 0. -1.
         23    2    1    2    0    0 -0.97845882769E+03  0.58866435174E+02 -0.16527430331E+03  0.99838073056E+03  0.92744558531E+02 0.  0.
         13    1    3    3    0    0 -0.46452093307E+03  0.31280490228E+02 -0.12537520352E+03  0.48215879955E+03  0.00000000000E+00 0.  1.
        -13    1    3    3    0    0 -0.51393789462E+03  0.27585944946E+02 -0.39899099795E+02  0.51622193101E+03  0.00000000000E+00 0. -1.
         22    1    1    2    0    0  0.97845882769E+03 -0.58866435174E+02 -0.13664320088E+04  0.16816608961E+04  0.00000000000E+00 0. -1.
<mgrwt>
<rscale>  0 0.21992042E+04</rscale>
<asrwt>0</asrwt>
<pdfrwt beam="1">  1        2 0.32398061E+00 0.21992042E+04</pdfrwt>
<pdfrwt beam="2">  1       -2 0.88333486E-01 0.21992042E+04</pdfrwt>
<totfact> 0.58807698E+00</totfact>
</mgrwt>
</event>
<event>
 6    1  0.1585031E-006  0.3464251E+04  0.7818608E-02  0.8122315E-01
          2   -1    0    0  501    0  0.00000000000E+00  0.00000000000E+00  0.29952526506E+04  0.29952526506E+04  0.00000000000E+00 0. -1.
         -2   -1    0    0    0  501 -0.00000000000E+00 -0.00000000000E+00 -0.10016712846E+04  0.10016712846E+04  0.00000000000E+00 0.  1.
         23    2    1    2    0    0  0.13355600677E+04 -0.58032563209E+03  0.20768271513E+04  0.25383532669E+04  0.97610230903E+02 0.  0.
         11    1    3    3    0    0  0.12457561465E+04 -0.51332733054E+03  0.19226797652E+04  0.23477884923E+04  0.00000000000E+00 0. -1.
        -11    1    3    3    0    0  0.89803921278E+02 -0.66998301548E+02  0.15414738608E+03  0.19056477461E+03  0.00000000000E+00 0.  1.
         22    1    1    2    0    0 -0.13355600677E+04  0.58032563209E+03 -0.83245785367E+02  0.14585706684E+04  0.00000000000E+00 0.  1.
<mgrwt>
<rscale>  0 0.34642509E+04</rscale>
<asrwt>0</asrwt>
<pdfrwt beam="1">  1        2 0.46080810E+00 0.34642509E+04</pdfrwt>
<pdfrwt beam="2">  1       -2 0.15410328E+00 0.34642509E+04</pdfrwt>
<totfact> 0.40255353E-01</totfact>
</mgrwt>
</event>
<event>
 6    1  0.1585031E-006  0.2284925E+04  0.7818608E-02  0.8483889E-01
         -1   -1    0    0    0  501 -0.00000000000E+00  0.00000000000E+00  0.89550527165E+03  0.89550527165E+03  0.00000000000E+00 0.  1.
          1   -1    0    0  501    0  0.00000000000E+00 -0.00000000000E+00 -0.14575244595E+04  0.14575244595E+04  0.00000000000E+00 0. -1.
         23    2    1    2    0    0 -0.10077925330E+04  0.53265353277E+03 -0.23928076250E+03  0.11683248452E+04  0.91444437578E+02 0.  0.
         11    1    3    3    0    0 -0.55203514598E+03  0.24092036255E+03 -0.13417699653E+03  0.61708094274E+03  0.00000000000E+00 0. -1.
        -11    1    3    3    0    0 -0.45575738700E+03  0.29173317022E+03 -0.10510376597E+03  0.55124390249E+03  0.00000000000E+00 0.  1.
         22    1    1    2    0    0  0.10077925330E+04 -0.53265353277E+03 -0.32273842533E+03  0.11847048859E+04  0.00000000000E+00 0.  1.
<mgrwt>
<rscale>  0 0.22849252E+04</rscale>
<asrwt>0</asrwt>
<pdfrwt beam="1">  1        1 0.22423453E+00 0.22849252E+04</pdfrwt>
<pdfrwt beam="2">  1       -1 0.13777004E+00 0.22849252E+04</pdfrwt>
<totfact> 0.27702197E+00</totfact>
</mgrwt>
</event>
<event>
 6    1  0.1585031E-006  0.1675462E+04  0.7818608E-02  0.8775485E-01
          2   -1    0    0  501    0  0.00000000000E+00  0.00000000000E+00  0.22067987823E+04  0.22067987823E+04  0.00000000000E+00 0. -1.
         -2   -1    0    0    0  501 -0.00000000000E+00 -0.00000000000E+00 -0.31801396250E+03  0.31801396250E+03  0.00000000000E+00 0.  1.
         23    2    1    2    0    0  0.72689086017E+01  0.81355686836E+03  0.66226275189E+03  0.10529825922E+04  0.90844767752E+02 0.  0.
         13    1    3    3    0    0  0.20304571483E+02  0.23646222332E+03  0.24203413139E+03  0.33897961508E+03  0.00000000000E+00 0.  1.
        -13    1    3    3    0    0 -0.13035662881E+02  0.57709464503E+03  0.42022862051E+03  0.71400297711E+03  0.00000000000E+00 0. -1.
         22    1    1    2    0    0 -0.72689086017E+01 -0.81355686836E+03  0.12265220679E+04  0.14718301526E+04  0.00000000000E+00 0. -1.
<mgrwt>
<rscale>  0 0.16754615E+04</rscale>
<asrwt>0</asrwt>
<pdfrwt beam="1">  1        2 0.33950750E+00 0.16754615E+04</pdfrwt>
<pdfrwt beam="2">  1       -2 0.48925226E-01 0.16754615E+04</pdfrwt>
<totfact> 0.19314567E+01</totfact>
</mgrwt>
</event>
<event>
 6    1  0.1585031E-006  0.1306072E+04  0.7818608E-02  0.9024764E-01
          1   -1    0    0  501    0  0.00000000000E+00  0.00000000000E+00  0.46732761357E+03  0.46732761357E+03  0.00000000000E+00 0. -1.
         -1   -1    0    0    0  501 -0.00000000000E+00 -0.00000000000E+00 -0.91254157813E+03  0.91254157813E+03  0.00000000000E+00 0.  1.
         23    2    1    2    0    0 -0.45246544126E+03  0.34253393489E+03 -0.55815472574E+03  0.80124142912E+03  0.91633278760E+02 0.  0.
         11    1    3    3    0    0 -0.20362780599E+03  0.19979735366E+03 -0.31710654445E+03  0.42654404982E+03  0.00000000000E+00 0.  1.
        -11    1    3    3    0    0 -0.24883763527E+03  0.14273658124E+03 -0.24104818129E+03  0.37469737930E+03  0.00000000000E+00 0. -1.
         22    1    1    2    0    0  0.45246544126E+03 -0.34253393489E+03  0.11294076118E+03  0.57862776258E+03  0.00000000000E+00 0. -1.
<mgrwt>
<rscale>  0 0.13060718E+04</rscale>
<asrwt>0</asrwt>
<pdfrwt beam="1">  1        1 0.71896557E-01 0.13060718E+04</pdfrwt>
<pdfrwt beam="2">  1       -1 0.14039101E+00 0.13060718E+04</pdfrwt>
<totfact> 0.19878756E+01</totfact>
</mgrwt>
</event>
<event>
 6    1  0.1585031E-006  0.2262898E+04  0.7818608E-02  0.8492695E-01
          1   -1    0    0  501    0  0.00000000000E+00  0.00000000000E+00  0.88569775378E+03  0.88569775378E+03  0.00000000000E+00 0. -1.
         -1   -1    0    0    0  501 -0.00000000000E+00 -0.00000000000E+00 -0.14453883808E+04  0.14453883808E+04  0.00000000000E+00 0.  1.
         23    2    1    2    0    0 -0.75726386184E+03 -0.83816670960E+03 -0.28064622948E+03  0.11675407915E+04  0.91745322455E+02 0.  0.
         13    1    3    3    0    0 -0.24999426104E+03 -0.32772657184E+03 -0.73556799423E+02  0.41870328299E+03  0.00000000000E+00 0.  1.
        -13    1    3    3    0    0 -0.50726960079E+03 -0.51044013776E+03 -0.20708943005E+03  0.74883750852E+03  0.00000000000E+00 0. -1.
         22    1    1    2    0    0  0.75726386184E+03  0.83816670960E+03 -0.27904439753E+03  0.11635453430E+04  0.00000000000E+00 0.  1.
<mgrwt>
<rscale>  0 0.22628984E+04</rscale>
<asrwt>0</asrwt>
<pdfrwt beam="1">  1        1 0.13626119E+00 0.22628984E+04</pdfrwt>
<pdfrwt beam="2">  1       -1 0.22236744E+00 0.22628984E+04</pdfrwt>
<totfact> 0.17988514E+00</totfact>
</mgrwt>
</event>
<event>
 6    1  0.1585031E-006  0.3482140E+04  0.7818608E-02  0.8118036E-01
         -2   -1    0    0    0  501 -0.00000000000E+00  0.00000000000E+00  0.10736061184E+04  0.10736061184E+04  0.00000000000E+00 0. -1.
          2   -1    0    0  501    0  0.00000000000E+00 -0.00000000000E+00 -0.28234977287E+04  0.28234977287E+04  0.00000000000E+00 0.  1.
         23    2    1    2    0    0  0.81671803029E+03 -0.51457728379E+03 -0.24955929992E+04  0.26773134211E+04  0.90579329404E+02 0.  0.
         13    1    3    3    0    0  0.80782554493E+03 -0.50589675963E+03 -0.24243112777E+04  0.26049565858E+04  0.00000000000E+00 0. -1.
        -13    1    3    3    0    0  0.88924853606E+01 -0.86805241520E+01 -0.71281721524E+02  0.72356835329E+02  0.00000000000E+00 0.  1.
         22    1    1    2    0    0 -0.81671803029E+03  0.51457728379E+03  0.74570138894E+03  0.12197904260E+04  0.00000000000E+00 0. -1.
<mgrwt>
<rscale>  0 0.34821398E+04</rscale>
<asrwt>0</asrwt>
<pdfrwt beam="1">  1        2 0.43438427E+00 0.34821398E+04</pdfrwt>
<pdfrwt beam="2">  1       -2 0.16517017E+00 0.34821398E+04</pdfrwt>
<totfact> 0.42492211E-01</totfact>
</mgrwt>
</event>
<event>
 6    1  0.1585031E-006  0.2400231E+04  0.7818608E-02  0.8439417E-01
         -1   -1    0    0    0  501 -0.00000000000E+00  0.00000000000E+00  0.47734386363E+03  0.47734386363E+03  0.00000000000E+00 0. -1.
          1   -1    0    0  501    0  0.00000000000E+00 -0.00000000000E+00 -0.30172746778E+04  0.30172746778E+04  0.00000000000E+00 0.  1.
         23    2    1    2    0    0  0.12352518877E+03  0.56022216798E+03  0.25881330501E+03  0.63768382142E+03  0.10270822504E+03 0.  0.
         11    1    3    3    0    0  0.74738152217E+02  0.49795407867E+03  0.22881288414E+03  0.55308172254E+03  0.00000000000E+00 0.  1.
        -11    1    3    3    0    0  0.48787036552E+02  0.62268089311E+02  0.30000420865E+02  0.84602098875E+02  0.00000000000E+00 0. -1.
         22    1    1    2    0    0 -0.12352518877E+03 -0.56022216798E+03 -0.27987441192E+04  0.28569347200E+04  0.00000000000E+00 0.  1.
<mgrwt>
<rscale>  0 0.24002313E+04</rscale>
<asrwt>0</asrwt>
<pdfrwt beam="1">  1        1 0.46419611E+00 0.24002313E+04</pdfrwt>
<pdfrwt beam="2">  1       -1 0.73437517E-01 0.24002313E+04</pdfrwt>
<totfact> 0.97232023E-01</totfact>
</mgrwt>
</event>
<event>
 6    1  0.1585031E-006  0.3705946E+04  0.7818608E-02  0.8066645E-01
          2   -1    0    0  501    0  0.00000000000E+00  0.00000000000E+00  0.15782484047E+04  0.15782484047E+04  0.00000000000E+00 0.  1.
         -2   -1    0    0    0  501 -0.00000000000E+00 -0.00000000000E+00 -0.21755186742E+04  0.21755186742E+04  0.00000000000E+00 0. -1.
         23    2    1    2    0    0 -0.10901583944E+04  0.13261767600E+04 -0.10021702712E+04  0.19899263449E+04  0.90947686703E+02 0.  0.
         11    1    3    3    0    0 -0.85701373011E+03  0.10013372937E+04 -0.73592651269E+03  0.15095485224E+04  0.00000000000E+00 0.  1.
        -11    1    3    3    0    0 -0.23314466434E+03  0.32483946627E+03 -0.26624375852E+03  0.48037782245E+03  0.00000000000E+00 0. -1.
         22    1    1    2    0    0  0.10901583944E+04 -0.13261767600E+04  0.40490000165E+03  0.17638407341E+04  0.00000000000E+00 0.  1.
<mgrwt>
<rscale>  0 0.37059460E+04</rscale>
<asrwt>0</asrwt>
<pdfrwt beam="1">  1        2 0.24280745E+00 0.37059460E+04</pdfrwt>
<pdfrwt beam="2">  1       -2 0.33469518E+00 0.37059460E+04</pdfrwt>
<totfact> 0.17980368E-01</totfact>
</mgrwt>
</event>
<event>
 6    1  0.1585031E-006  0.3928470E+04  0.7818608E-02  0.8019134E-01
          1   -1    0    0  501    0  0.00000000000E+00  0.00000000000E+00  0.14748632674E+04  0.14748632674E+04  0.00000000000E+00 0. -1.
         -1   -1    0    0    0  501 -0.00000000000E+00 -0.00000000000E+00 -0.26159845521E+04  0.26159845521E+04  0.00000000000E+00 0.  1.
         23    2    1    2    0    0  0.16869722697E+04  0.16088251203E+03  0.46120742367E+03  0.17586351553E+04  0.91250755782E+02 0.  0.
         11    1    3    3    0    0  0.12028176602E+04  0.12361960112E+03  0.28702064280E+03  0.12427521791E+04  0.00000000000E+00 0. -1.
        -11    1    3    3    0    0  0.48415460954E+03  0.37262910909E+02  0.17418678087E+03  0.51588297617E+03  0.00000000000E+00 0.  1.
         22    1    1    2    0    0 -0.16869722697E+04 -0.16088251203E+03 -0.16023287084E+04  0.23322126642E+04  0.00000000000E+00 0.  1.
<mgrwt>
<rscale>  0 0.39284702E+04</rscale>
<asrwt>0</asrwt>
<pdfrwt beam="1">  1        1 0.22690204E+00 0.39284702E+04</pdfrwt>
<pdfrwt beam="2">  1       -1 0.40245916E+00 0.39284702E+04</pdfrwt>
<totfact> 0.36867703E-02</totfact>
</mgrwt>
</event>
<event>
 6    1  0.1585031E-006  0.1139925E+04  0.7818608E-02  0.9167129E-01
          2   -1    0    0  501    0  0.00000000000E+00  0.00000000000E+00  0.16656221522E+04  0.16656221522E+04  0.00000000000E+00 0. -1.
         -2   -1    0    0    0  501 -0.00000000000E+00 -0.00000000000E+00 -0.19503656192E+03  0.19503656192E+03  0.00000000000E+00 0.  1.
         23    2    1    2    0    0 -0.18830822306E+03 -0.41143755957E+03  0.12971504271E+04  0.13760757923E+04  0.79022170212E+02 0.  0.
         13    1    3    3    0    0 -0.75221696642E+02 -0.83624953368E+02  0.30660045571E+03  0.32658119345E+03  0.00000000000E+00 0. -1.
        -13    1    3    3    0    0 -0.11308652642E+03 -0.32781260621E+03  0.99054997135E+03  0.10494945988E+04  0.00000000000E+00 0.  1.
         22    1    1    2    0    0  0.18830822306E+03  0.41143755957E+03  0.17343516323E+03  0.48458292184E+03  0.00000000000E+00 0.  1.
<mgrwt>
<rscale>  0 0.11399249E+04</rscale>
<asrwt>0</asrwt>
<pdfrwt beam="1">  1        2 0.25624955E+00 0.11399249E+04</pdfrwt>
<pdfrwt beam="2">  1       -2 0.30005626E-01 0.11399249E+04</pdfrwt>
<totfact> 0.10403788E+02</totfact>
</mgrwt>
</event>
<event>
 6    1  0.1585031E-006  0.3491234E+04  0.7818608E-02  0.8115871E-01
          1   -1    0    0  501    0  0.00000000000E+00  0.00000000000E+00  0.20566958679E+04  0.20566958679E+04  0.00000000000E+00 0. -1.
         -1   -1    0    0    0  501 -0.00000000000E+00 -0.00000000000E+00 -0.14815893777E+04  0.14815893777E+04  0.00000000000E+00 0.  1.
         23    2    1    2    0    0 -0.13973987309E+04 -0.54422934571E+03  0.11908354040E+04  0.19171649882E+04  0.92324637338E+02 0.  0.
         13    1    3    3    0    0 -0.39951630865E+03 -0.12196200963E+03  0.36622704820E+03  0.55552701419E+03  0.00000000000E+00 0.  1.
        -13    1    3    3    0    0 -0.99788242222E+03 -0.42226733608E+03  0.82460835579E+03  0.13616379740E+04  0.00000000000E+00 0. -1.
         22    1    1    2    0    0  0.13973987309E+04  0.54422934571E+03 -0.61572891374E+03  0.16211202574E+04  0.00000000000E+00 0. -1.
<mgrwt>
<rscale>  0 0.34912340E+04</rscale>
<asrwt>0</asrwt>
<pdfrwt beam="1">  1        1 0.31641475E+00 0.34912340E+04</pdfrwt>
<pdfrwt beam="2">  1       -1 0.22793683E+00 0.34912340E+04</pdfrwt>
<totfact> 0.21692428E-01</totfact>
</mgrwt>
</event>
<event>
 6    1  0.1585031E-006  0.2100738E+04  0.7818608E-02  0.8560918E-01
         -2   -1    0    0    0  501 -0.00000000000E+00  0.00000000000E+00  0.16060806800E+04  0.16060806800E+04  0.00000000000E+00 0.  1.
          2   -1    0    0  501    0  0.00000000000E+00 -0.00000000000E+00 -0.68693613705E+03  0.68693613705E+03  0.00000000000E+00 0. -1.
         23    2    1    2    0    0  0.22668852179E+03 -0.82723644804E+03  0.11186892288E+04  0.14123773287E+04  0.87385931066E+02 0.  0.
         13    1    3    3    0    0  0.22604609501E+03 -0.71385621908E+03  0.97074195917E+03  0.12259802159E+04  0.00000000000E+00 0.  1.
        -13    1    3    3    0    0  0.64242677744E+00 -0.11338022897E+03  0.14794726965E+03  0.18639711272E+03  0.00000000000E+00 0. -1.
         22    1    1    2    0    0 -0.22668852179E+03  0.82723644804E+03 -0.19954468585E+03  0.88063948840E+03  0.00000000000E+00 0. -1.
<mgrwt>
<rscale>  0 0.21007378E+04</rscale>
<asrwt>0</asrwt>
<pdfrwt beam="1">  1        2 0.10568248E+00 0.21007378E+04</pdfrwt>
<pdfrwt beam="2">  1       -2 0.24708933E+00 0.21007378E+04</pdfrwt>
<totfact> 0.25889333E+00</totfact>
</mgrwt>
</event>
<event>
 6    1  0.1585031E-006  0.3513482E+04  0.7818608E-02  0.8110602E-01
          2   -1    0    0  501    0  0.00000000000E+00  0.00000000000E+00  0.32922367880E+04  0.32922367880E+04  0.00000000000E+00 0. -1.
         -2   -1    0    0    0  501 -0.00000000000E+00 -0.00000000000E+00 -0.93739901780E+03  0.93739901780E+03  0.00000000000E+00 0.  1.
         23    2    1    2    0    0 -0.79767623157E+03  0.14958304021E+04  0.62930601320E+03  0.18106988891E+04  0.93853324807E+02 0.  0.
         13    1    3    3    0    0 -0.53309251941E+03  0.90275000799E+03  0.38816894362E+03  0.11179536395E+04  0.00000000000E+00 0. -1.
        -13    1    3    3    0    0 -0.26458371216E+03  0.59308039413E+03  0.24113706958E+03  0.69274524969E+03  0.00000000000E+00 0.  1.
         22    1    1    2    0    0  0.79767623157E+03 -0.14958304021E+04  0.17255317570E+04  0.24189369167E+04  0.00000000000E+00 0.  1.
<mgrwt>
<rscale>  0 0.35134823E+04</rscale>
<asrwt>0</asrwt>
<pdfrwt beam="1">  1        2 0.50649796E+00 0.35134823E+04</pdfrwt>
<pdfrwt beam="2">  1       -2 0.14421524E+00 0.35134823E+04</pdfrwt>
<totfact> 0.30715399E-01</totfact>
</mgrwt>
</event>
<event>
 6    1  0.1585031E-006  0.1839746E+04  0.7818608E-02  0.8685444E-01
         -2   -1    0    0    0  501 -0.00000000000E+00  0.00000000000E+00  0.34119389577E+03  0.34119389577E+03  0.00000000000E+00 0.  1.
          2   -1    0    0  501    0  0.00000000000E+00 -0.00000000000E+00 -0.24800161136E+04  0.24800161136E+04  0.00000000000E+00 0. -1.
         23    2    1    2    0    0  0.32533317497E+03 -0.23551271769E+03  0.19311629378E+03  0.45493759546E+03  0.91468015747E+02 0.  0.
         13    1    3    3    0    0  0.73308188187E+02 -0.51590408734E+02  0.88232633737E+02  0.12578019870E+03  0.00000000000E+00 0. -1.
        -13    1    3    3    0    0  0.25202498679E+03 -0.18392230895E+03  0.10488366004E+03  0.32915739676E+03  0.00000000000E+00 0.  1.
         22    1    1    2    0    0 -0.32533317497E+03  0.23551271769E+03 -0.23319385116E+04  0.23662724139E+04  0.00000000000E+00 0. -1.
<mgrwt>
<rscale>  0 0.18397460E+04</rscale>
<asrwt>0</asrwt>
<pdfrwt beam="1">  1        2 0.38154094E+00 0.18397460E+04</pdfrwt>
<pdfrwt beam="2">  1       -2 0.52491368E-01 0.18397460E+04</pdfrwt>
<totfact> 0.11533507E+01</totfact>
</mgrwt>
</event>
<event>
 6    1  0.1585031E-006  0.2082185E+04  0.7818608E-02  0.8569132E-01
         -1   -1    0    0    0  501 -0.00000000000E+00  0.00000000000E+00  0.74862048221E+03  0.74862048221E+03  0.00000000000E+00 0.  1.
          1   -1    0    0  501    0  0.00000000000E+00 -0.00000000000E+00 -0.14478273794E+04  0.14478273794E+04  0.00000000000E+00 0. -1.
         23    2    1    2    0    0  0.10187133212E+04 -0.17392371214E+03 -0.46516139273E+03  0.11368235949E+04  0.89255118561E+02 0.  0.
         11    1    3    3    0    0  0.75925382650E+03 -0.10675923602E+03 -0.37915995257E+03  0.85535149335E+03  0.00000000000E+00 0. -1.
        -11    1    3    3    0    0  0.25945949472E+03 -0.67164476118E+02 -0.86001440156E+02  0.28147210157E+03  0.00000000000E+00 0.  1.
         22    1    1    2    0    0 -0.10187133212E+04  0.17392371214E+03 -0.23404550450E+03  0.10596242667E+04  0.00000000000E+00 0.  1.
<mgrwt>
<rscale>  0 0.20821847E+04</rscale>
<asrwt>0</asrwt>
<pdfrwt beam="1">  1        1 0.22274267E+00 0.20821847E+04</pdfrwt>
<pdfrwt beam="2">  1       -1 0.11517238E+00 0.20821847E+04</pdfrwt>
<totfact> 0.44805464E+00</totfact>
</mgrwt>
</event>
<event>
 6    1  0.1585031E-006  0.1726023E+04  0.7818608E-02  0.8746660E-01
          2   -1    0    0  501    0  0.00000000000E+00  0.00000000000E+00  0.19792665333E+04  0.19792665333E+04  0.00000000000E+00 0. -1.
         -2   -1    0    0    0  501 -0.00000000000E+00 -0.00000000000E+00 -0.37629541613E+03  0.37629541613E+03  0.00000000000E+00 0.  1.
         23    2    1    2    0    0  0.35350468407E+03 -0.76993439122E+03  0.10105202944E+04  0.13217522446E+04  0.90073315793E+02 0.  0.
         13    1    3    3    0    0  0.30806143964E+03 -0.58051815465E+03  0.77954471004E+03  0.10196044005E+04  0.00000000000E+00 0.  1.
        -13    1    3    3    0    0  0.45443244428E+02 -0.18941623657E+03  0.23097558434E+03  0.30214784412E+03  0.00000000000E+00 0. -1.
         22    1    1    2    0    0 -0.35350468407E+03  0.76993439122E+03  0.59245082279E+03  0.10338097049E+04  0.00000000000E+00 0.  1.
<mgrwt>
<rscale>  0 0.17260231E+04</rscale>
<asrwt>0</asrwt>
<pdfrwt beam="1">  1        2 0.30450254E+00 0.17260231E+04</pdfrwt>
<pdfrwt beam="2">  1       -2 0.57891604E-01 0.17260231E+04</pdfrwt>
<totfact> 0.18197913E+01</totfact>
</mgrwt>
</event>
<event>
 6    1  0.1585031E-006  0.1532116E+04  0.7818608E-02  0.8863372E-01
         -2   -1    0    0    0  501 -0.00000000000E+00  0.00000000000E+00  0.89713521885E+03  0.89713521885E+03  0.00000000000E+00 0.  1.
          2   -1    0    0  501    0  0.00000000000E+00 -0.00000000000E+00 -0.65413241357E+03  0.65413241357E+03  0.00000000000E+00 0. -1.
         23    2    1    2    0    0  0.17835148955E+03  0.70436830282E+03 -0.11497558008E+03  0.74127227180E+03  0.91220815026E+02 0.  0.
         13    1    3    3    0    0  0.11813689731E+03  0.36498447882E+03 -0.21946589671E+02  0.38425466697E+03  0.00000000000E+00 0. -1.
        -13    1    3    3    0    0  0.60214592237E+02  0.33938382400E+03 -0.93028990407E+02  0.35701760484E+03  0.00000000000E+00 0.  1.
         22    1    1    2    0    0 -0.17835148955E+03 -0.70436830282E+03  0.35797838535E+03  0.80999536062E+03  0.00000000000E+00 0.  1.
<mgrwt>
<rscale>  0 0.15321165E+04</rscale>
<asrwt>0</asrwt>
<pdfrwt beam="1">  1        2 0.10063576E+00 0.15321165E+04</pdfrwt>
<pdfrwt beam="2">  1       -2 0.13802080E+00 0.15321165E+04</pdfrwt>
<totfact> 0.16017105E+01</totfact>
</mgrwt>
</event>
<event>
 6    1  0.1585031E-006  0.2500969E+04  0.7818608E-02  0.8402640E-01
          1   -1    0    0  501    0  0.00000000000E+00  0.00000000000E+00  0.42549351585E+04  0.42549351585E+04  0.00000000000E+00 0. -1.
         -1   -1    0    0    0  501 -0.00000000000E+00 -0.00000000000E+00 -0.36750547748E+03  0.36750547748E+03  0.00000000000E+00 0.  1.
         23    2    1    2    0    0 -0.10804226095E+04  0.22962543831E+03  0.30232747441E+04  0.32200125231E+04  0.90827381554E+02 0.  0.
         13    1    3    3    0    0 -0.73886200527E+03  0.15373476345E+03  0.21843819553E+04  0.23110767982E+04  0.00000000000E+00 0. -1.
        -13    1    3    3    0    0 -0.34156060419E+03  0.75890674862E+02  0.83889278882E+03  0.90893572490E+03  0.00000000000E+00 0.  1.
         22    1    1    2    0    0  0.10804226095E+04 -0.22962543831E+03  0.86415493691E+03  0.14024281129E+04  0.00000000000E+00 0.  1.
<mgrwt>
<rscale>  0 0.25009694E+04</rscale>
<asrwt>0</asrwt>
<pdfrwt beam="1">  1        1 0.65460537E+00 0.25009694E+04</pdfrwt>
<pdfrwt beam="2">  1       -1 0.56539307E-01 0.25009694E+04</pdfrwt>
<totfact> 0.15856378E-01</totfact>
</mgrwt>
</event>
<event>
 6    1  0.1585031E-006  0.2144393E+04  0.7818608E-02  0.8541936E-01
         -1   -1    0    0    0  501 -0.00000000000E+00  0.00000000000E+00  0.48765034205E+03  0.48765034205E+03  0.00000000000E+00 0.  1.
          1   -1    0    0  501    0  0.00000000000E+00 -0.00000000000E+00 -0.23574387663E+04  0.23574387663E+04  0.00000000000E+00 0. -1.
         23    2    1    2    0    0  0.29402112380E+03 -0.73924651406E+03 -0.18863752687E+04  0.20493448321E+04  0.92025849557E+02 0.  0.
         13    1    3    3    0    0  0.12309068758E+03 -0.37032523896E+03 -0.10267263826E+04  0.10983893503E+04  0.00000000000E+00 0. -1.
        -13    1    3    3    0    0  0.17093043622E+03 -0.36892127510E+03 -0.85964888602E+03  0.95095548186E+03  0.00000000000E+00 0.  1.
         22    1    1    2    0    0 -0.29402112380E+03  0.73924651406E+03  0.16586844379E+02  0.79574427626E+03  0.00000000000E+00 0.  1.
<mgrwt>
<rscale>  0 0.21443935E+04</rscale>
<asrwt>0</asrwt>
<pdfrwt beam="1">  1        1 0.36268289E+00 0.21443935E+04</pdfrwt>
<pdfrwt beam="2">  1       -1 0.75023129E-01 0.21443935E+04</pdfrwt>
<totfact> 0.27821111E+00</totfact>
</mgrwt>
</event>
<event>
 6    1  0.1585031E-006  0.1178377E+04  0.7818608E-02  0.9131996E-01
          2   -1    0    0  501    0  0.00000000000E+00  0.00000000000E+00  0.36599007493E+03  0.36599007493E+03  0.00000000000E+00 0.  1.
         -2   -1    0    0    0  501 -0.00000000000E+00 -0.00000000000E+00 -0.94850454770E+03  0.94850454770E+03  0.00000000000E+00 0. -1.
         23    2    1    2    0    0 -0.95598115249E+02 -0.38232784571E+03 -0.77615159602E+03  0.87539450108E+03  0.92685766246E+02 0.  0.
         11    1    3    3    0    0 -0.55395926743E+02 -0.21714571538E+03 -0.53783433600E+03  0.58265490934E+03  0.00000000000E+00 0.  1.
        -11    1    3    3    0    0 -0.40202188506E+02 -0.16518213033E+03 -0.23831726003E+03  0.29273959174E+03  0.00000000000E+00 0. -1.
         22    1    1    2    0    0  0.95598115249E+02  0.38232784571E+03  0.19363712325E+03  0.43910012155E+03  0.00000000000E+00 0.  1.
<mgrwt>
<rscale>  0 0.11783773E+04</rscale>
<asrwt>0</asrwt>
<pdfrwt beam="1">  1        2 0.56306166E-01 0.11783773E+04</pdfrwt>
<pdfrwt beam="2">  1       -2 0.14592378E+00 0.11783773E+04</pdfrwt>
<totfact> 0.27957337E+01</totfact>
</mgrwt>
</event>
<event>
 6    1  0.1585031E-006  0.3072338E+04  0.7818608E-02  0.8223371E-01
         -1   -1    0    0    0  501 -0.00000000000E+00  0.00000000000E+00  0.76753070730E+03  0.76753070730E+03  0.00000000000E+00 0.  1.
          1   -1    0    0  501    0  0.00000000000E+00 -0.00000000000E+00 -0.30745547865E+04  0.30745547865E+04  0.00000000000E+00 0. -1.
         23    2    1    2    0    0 -0.13729831104E+04 -0.51004965316E+03 -0.58091673787E+03  0.15783099255E+04  0.91458703554E+02 0.  0.
         13    1    3    3    0    0 -0.27880031797E+03 -0.68505495935E+02 -0.97350025485E+02  0.30314954682E+03  0.00000000000E+00 0. -1.
        -13    1    3    3    0    0 -0.10941827924E+04 -0.44154415722E+03 -0.48356671238E+03  0.12751603786E+04  0.00000000000E+00 0.  1.
         22    1    1    2    0    0  0.13729831104E+04  0.51004965316E+03 -0.17261073413E+04  0.22637755683E+04  0.00000000000E+00 0. -1.
<mgrwt>
<rscale>  0 0.30723380E+04</rscale>
<asrwt>0</asrwt>
<pdfrwt beam="1">  1        1 0.47300843E+00 0.30723380E+04</pdfrwt>
<pdfrwt beam="2">  1       -1 0.11808165E+00 0.30723380E+04</pdfrwt>
<totfact> 0.28679383E-01</totfact>
</mgrwt>
</event>
<event>
 6    1  0.1585031E-006  0.3698094E+04  0.7818608E-02  0.8068384E-01
         -2   -1    0    0    0  501 -0.00000000000E+00  0.00000000000E+00  0.12786670932E+04  0.12786670932E+04  0.00000000000E+00 0.  1.
          2   -1    0    0  501    0  0.00000000000E+00 -0.00000000000E+00 -0.26738586645E+04  0.26738586645E+04  0.00000000000E+00 0. -1.
         23    2    1    2    0    0  0.16499876542E+03 -0.65729210132E+03 -0.25349978106E+04  0.26264730582E+04  0.11353116947E+03 0.  0.
         13    1    3    3    0    0  0.69498170232E+02 -0.48510085909E+03 -0.18348491511E+04  0.18991640915E+04  0.00000000000E+00 0. -1.
        -13    1    3    3    0    0  0.95500595183E+02 -0.17219124223E+03 -0.70014865947E+03  0.72730896663E+03  0.00000000000E+00 0.  1.
         22    1    1    2    0    0 -0.16499876542E+03  0.65729210132E+03  0.11398062392E+04  0.13260526996E+04  0.00000000000E+00 0.  1.
<mgrwt>
<rscale>  0 0.36980942E+04</rscale>
<asrwt>0</asrwt>
<pdfrwt beam="1">  1        2 0.41136287E+00 0.36980942E+04</pdfrwt>
<pdfrwt beam="2">  1       -2 0.19671801E+00 0.36980942E+04</pdfrwt>
<totfact> 0.31103391E-01</totfact>
</mgrwt>
</event>
<event>
 6    1  0.1585031E-006  0.2797346E+04  0.7818608E-02  0.8304093E-01
          1   -1    0    0  501    0  0.00000000000E+00  0.00000000000E+00  0.23626731600E+04  0.23626731600E+04  0.00000000000E+00 0. -1.
         -1   -1    0    0    0  501 -0.00000000000E+00 -0.00000000000E+00 -0.82799679053E+03  0.82799679053E+03  0.00000000000E+00 0.  1.
         23    2    1    2    0    0  0.10479326202E+04 -0.88645978170E+03  0.10656706634E+04  0.17401734585E+04  0.92606596980E+02 0.  0.
         13    1    3    3    0    0  0.94357037427E+03 -0.78934014514E+03  0.98802257046E+03  0.15778376075E+04  0.00000000000E+00 0. -1.
        -13    1    3    3    0    0  0.10436224594E+03 -0.97119636558E+02  0.77648092930E+02  0.16233585100E+03  0.00000000000E+00 0.  1.
         22    1    1    2    0    0 -0.10479326202E+04  0.88645978170E+03  0.46900570610E+03  0.14504964920E+04  0.00000000000E+00 0.  1.
<mgrwt>
<rscale>  0 0.27973457E+04</rscale>
<asrwt>0</asrwt>
<pdfrwt beam="1">  1        1 0.36348818E+00 0.27973457E+04</pdfrwt>
<pdfrwt beam="2">  1       -1 0.12738412E+00 0.27973457E+04</pdfrwt>
<totfact> 0.77884672E-01</totfact>
</mgrwt>
</event>
<event>
 6    1  0.1585031E-006  0.4800554E+04  0.7818608E-02  0.7860032E-01
         -1   -1    0    0    0  501 -0.00000000000E+00  0.00000000000E+00  0.46715553953E+04  0.46715553953E+04  0.00000000000E+00 0.  1.
          1   -1    0    0  501    0  0.00000000000E+00 -0.00000000000E+00 -0.12332789117E+04  0.12332789117E+04  0.00000000000E+00 0. -1.
         23    2    1    2    0    0 -0.40833174949E+03 -0.18460300593E+04  0.35369046635E+04  0.40116123668E+04  0.93687699863E+02 0.  0.
         11    1    3    3    0    0 -0.22327227083E+03 -0.86458062837E+03  0.15959832078E+04  0.18288008556E+04  0.00000000000E+00 0.  1.
        -11    1    3    3    0    0 -0.18505947866E+03 -0.98144943088E+03  0.19409214557E+04  0.21828115112E+04  0.00000000000E+00 0. -1.
         22    1    1    2    0    0  0.40833174949E+03  0.18460300593E+04 -0.98628179905E+02  0.18932219403E+04  0.00000000000E+00 0. -1.
<mgrwt>
<rscale>  0 0.48005544E+04</rscale>
<asrwt>0</asrwt>
<pdfrwt beam="1">  1        1 0.18973522E+00 0.48005544E+04</pdfrwt>
<pdfrwt beam="2">  1       -1 0.71870082E+00 0.48005544E+04</pdfrwt>
<totfact> 0.12777037E-03</totfact>
</mgrwt>
</event>
<event>
 6    1  0.1585031E-006  0.3672854E+04  0.7818608E-02  0.8074004E-01
          2   -1    0    0  501    0  0.00000000000E+00  0.00000000000E+00  0.16346263458E+04  0.16346263458E+04  0.00000000000E+00 0. -1.
         -2   -1    0    0    0  501 -0.00000000000E+00 -0.00000000000E+00 -0.20631411084E+04  0.20631411084E+04  0.00000000000E+00 0.  1.
         23    2    1    2    0    0 -0.13548499540E+04  0.12050473218E+04  0.71288763633E+02  0.18169269478E+04  0.91564187244E+02 0.  0.
         13    1    3    3    0    0 -0.90489283759E+03  0.84529593304E+03  0.18563118100E+02  0.12384267646E+04  0.00000000000E+00 0.  1.
        -13    1    3    3    0    0 -0.44995711638E+03  0.35975138875E+03  0.52725645533E+02  0.57850018322E+03  0.00000000000E+00 0. -1.
         22    1    1    2    0    0  0.13548499540E+04 -0.12050473218E+04 -0.49980352624E+03  0.18808405064E+04  0.00000000000E+00 0. -1.
<mgrwt>
<rscale>  0 0.36728544E+04</rscale>
<asrwt>0</asrwt>
<pdfrwt beam="1">  1        2 0.25148098E+00 0.36728544E+04</pdfrwt>
<pdfrwt beam="2">  1       -2 0.31740632E+00 0.36728544E+04</pdfrwt>
<totfact> 0.21464506E-01</totfact>
</mgrwt>
</event>
<event>
 6    1  0.1585031E-006  0.8017737E+03  0.7818608E-02  0.9557453E-01
         -1   -1    0    0    0  501 -0.00000000000E+00  0.00000000000E+00  0.82663273528E+02  0.82663273528E+02  0.00000000000E+00 0.  1.
          1   -1    0    0  501    0  0.00000000000E+00 -0.00000000000E+00 -0.19441554868E+04  0.19441554868E+04  0.00000000000E+00 0. -1.
         23    2    1    2    0    0  0.42947063509E+02 -0.39051416185E+03 -0.82356017782E+03  0.91702208026E+03  0.91281807197E+02 0.  0.
         13    1    3    3    0    0  0.22265818304E+02 -0.10031356378E+03 -0.31239637474E+03  0.32886178357E+03  0.00000000000E+00 0.  1.
        -13    1    3    3    0    0  0.20681245205E+02 -0.29020059807E+03 -0.51116380309E+03  0.58816029670E+03  0.00000000000E+00 0. -1.
         22    1    1    2    0    0 -0.42947063509E+02  0.39051416185E+03 -0.10379320354E+04  0.11097966801E+04  0.00000000000E+00 0. -1.
<mgrwt>
<rscale>  0 0.80177368E+03</rscale>
<asrwt>0</asrwt>
<pdfrwt beam="1">  1        1 0.29910086E+00 0.80177368E+03</pdfrwt>
<pdfrwt beam="2">  1       -1 0.12717426E-01 0.80177368E+03</pdfrwt>
<totfact> 0.14307833E+02</totfact>
</mgrwt>
</event>
<event>
 6    1  0.1585031E-006  0.5613344E+03  0.7818608E-02  0.9989040E-01
         -1   -1    0    0    0  501 -0.00000000000E+00  0.00000000000E+00  0.79527410042E+02  0.79527410042E+02  0.00000000000E+00 0.  1.
          1   -1    0    0  501    0  0.00000000000E+00 -0.00000000000E+00 -0.99052752278E+03  0.99052752278E+03  0.00000000000E+00 0. -1.
         23    2    1    2    0    0  0.12438151593E+03  0.23959385721E+03 -0.54899859785E+03  0.61847872142E+03  0.90777147436E+02 0.  0.
         13    1    3    3    0    0  0.69006431043E+02  0.47226641768E+02 -0.18631272511E+03  0.20421722443E+03  0.00000000000E+00 0. -1.
        -13    1    3    3    0    0  0.55375084883E+02  0.19236721544E+03 -0.36268587274E+03  0.41426149699E+03  0.00000000000E+00 0.  1.
         22    1    1    2    0    0 -0.12438151593E+03 -0.23959385721E+03 -0.36200151489E+03  0.45157621140E+03  0.00000000000E+00 0.  1.
<mgrwt>
<rscale>  0 0.56133444E+03</rscale>
<asrwt>0</asrwt>
<pdfrwt beam="1">  1        1 0.15238884E+00 0.56133444E+03</pdfrwt>
<pdfrwt beam="2">  1       -1 0.12234987E-01 0.56133444E+03</pdfrwt>
<totfact> 0.71430460E+02</totfact>
</mgrwt>
</event>
<event>
 6    1  0.1852454E-006  0.3744124E+04  0.7818608E-02  0.8058253E-01
         -2   -1    0    0    0  501 -0.00000000000E+00  0.00000000000E+00  0.12959312271E+04  0.12959312271E+04  0.00000000000E+00 0.  1.
          2   -1    0    0  501    0  0.00000000000E+00 -0.00000000000E+00 -0.27043231888E+04  0.27043231888E+04  0.00000000000E+00 0. -1.
         23    2    1    2    0    0 -0.16865671334E+04 -0.74483691359E+03 -0.36536292623E+03  0.18819531408E+04  0.94693363165E+02 0.  0.
         13    1    3    3    0    0 -0.43764500272E+03 -0.23892646192E+03 -0.93824767225E+02  0.50736780501E+03  0.00000000000E+00 0. -1.
        -13    1    3    3    0    0 -0.12489221306E+04 -0.50591045167E+03 -0.27153815900E+03  0.13745853358E+04  0.00000000000E+00 0.  1.
         22    1    1    2    0    0  0.16865671334E+04  0.74483691359E+03 -0.10430290355E+04  0.21183012751E+04  0.00000000000E+00 0. -1.
<mgrwt>
<rscale>  0 0.37441244E+04</rscale>
<asrwt>0</asrwt>
<pdfrwt beam="1">  1        2 0.41604972E+00 0.37441244E+04</pdfrwt>
<pdfrwt beam="2">  1       -2 0.19937404E+00 0.37441244E+04</pdfrwt>
<totfact> 0.28542711E-01</totfact>
</mgrwt>
</event>
<event>
 6    1  0.1585031E-006  0.1060935E+04  0.7818608E-02  0.9244127E-01
         -1   -1    0    0    0  501 -0.00000000000E+00  0.00000000000E+00  0.18672465631E+03  0.18672465631E+03  0.00000000000E+00 0.  1.
          1   -1    0    0  501    0  0.00000000000E+00 -0.00000000000E+00 -0.15070079729E+04  0.15070079729E+04  0.00000000000E+00 0. -1.
         23    2    1    2    0    0  0.42506199578E+03 -0.20778665867E+03 -0.29598646691E+03  0.56544320177E+03  0.90912210754E+02 0.  0.
         11    1    3    3    0    0  0.22773701053E+03 -0.15927570891E+03 -0.15610062171E+03  0.31874802197E+03  0.00000000000E+00 0. -1.
        -11    1    3    3    0    0  0.19732498525E+03 -0.48510949758E+02 -0.13988584520E+03  0.24669517980E+03  0.00000000000E+00 0.  1.
         22    1    1    2    0    0 -0.42506199578E+03  0.20778665867E+03 -0.10242968497E+04  0.11282894274E+04  0.00000000000E+00 0. -1.
<mgrwt>
<rscale>  0 0.10609346E+04</rscale>
<asrwt>0</asrwt>
<pdfrwt beam="1">  1        1 0.23184737E+00 0.10609346E+04</pdfrwt>
<pdfrwt beam="2">  1       -1 0.28726871E-01 0.10609346E+04</pdfrwt>
<totfact> 0.71133697E+01</totfact>
</mgrwt>
</event>
<event>
 6    1  0.1585031E-006  0.1680536E+04  0.7818608E-02  0.8772544E-01
         -2   -1    0    0    0  501 -0.00000000000E+00  0.00000000000E+00  0.37776393407E+03  0.37776393407E+03  0.00000000000E+00 0.  1.
          2   -1    0    0  501    0  0.00000000000E+00 -0.00000000000E+00 -0.18690260540E+04  0.18690260540E+04  0.00000000000E+00 0. -1.
         23    2    1    2    0    0 -0.13534980373E+03 -0.73941002469E+03 -0.12422788375E+04  0.14549317754E+04  0.92320133902E+02 0.  0.
         11    1    3    3    0    0 -0.10567618148E+03 -0.40163403143E+03 -0.61945184824E+03  0.74578679448E+03  0.00000000000E+00 0.  1.
        -11    1    3    3    0    0 -0.29673622254E+02 -0.33777599326E+03 -0.62282698921E+03  0.70914498093E+03  0.00000000000E+00 0. -1.
         22    1    1    2    0    0  0.13534980373E+03  0.73941002469E+03 -0.24898328246E+03  0.79185821264E+03  0.00000000000E+00 0.  1.
<mgrwt>
<rscale>  0 0.16805364E+04</rscale>
<asrwt>0</asrwt>
<pdfrwt beam="1">  1        2 0.28754246E+00 0.16805364E+04</pdfrwt>
<pdfrwt beam="2">  1       -2 0.58117530E-01 0.16805364E+04</pdfrwt>
<totfact> 0.20855310E+01</totfact>
</mgrwt>
</event>
<event>
 6    1  0.1585031E-006  0.8693212E+03  0.7818608E-02  0.9464765E-01
         -2   -1    0    0    0  501 -0.00000000000E+00  0.00000000000E+00  0.32995374467E+03  0.32995374467E+03  0.00000000000E+00 0.  1.
          2   -1    0    0  501    0  0.00000000000E+00 -0.00000000000E+00 -0.57259497670E+03  0.57259497670E+03  0.00000000000E+00 0. -1.
         23    2    1    2    0    0 -0.42722159882E+03  0.35879029567E+02 -0.93545349159E+02  0.44863773720E+03  0.93378196762E+02 0.  0.
         13    1    3    3    0    0 -0.26193577968E+03  0.54180365664E+02 -0.24577226991E+02  0.26860734314E+03  0.00000000000E+00 0. -1.
        -13    1    3    3    0    0 -0.16528581914E+03 -0.18301336098E+02 -0.68968122168E+02  0.18003039406E+03  0.00000000000E+00 0.  1.
         22    1    1    2    0    0  0.42722159882E+03 -0.35879029567E+02 -0.14909588287E+03  0.45391098417E+03  0.00000000000E+00 0. -1.
<mgrwt>
<rscale>  0 0.86932124E+03</rscale>
<asrwt>0</asrwt>
<pdfrwt beam="1">  1        2 0.88091534E-01 0.86932124E+03</pdfrwt>
<pdfrwt beam="2">  1       -2 0.50762115E-01 0.86932124E+03</pdfrwt>
<totfact> 0.19341171E+02</totfact>
</mgrwt>
</event>
<event>
 6    1  0.1585031E-006  0.3161195E+04  0.7818608E-02  0.8199141E-01
          2   -1    0    0  501    0  0.00000000000E+00  0.00000000000E+00  0.15351598331E+04  0.15351598331E+04  0.00000000000E+00 0. -1.
         -2   -1    0    0    0  501 -0.00000000000E+00 -0.00000000000E+00 -0.16273799840E+04  0.16273799840E+04  0.00000000000E+00 0.  1.
         23    2    1    2    0    0 -0.14030634647E+03  0.12583324901E+04 -0.99050065601E+03  0.16101241535E+04  0.91223426767E+02 0.  0.
         11    1    3    3    0    0 -0.65134825736E+02  0.80964630761E+03 -0.58884060079E+03  0.10032462021E+04  0.00000000000E+00 0. -1.
        -11    1    3    3    0    0 -0.75171520735E+02  0.44868618250E+03 -0.40166005521E+03  0.60687795136E+03  0.00000000000E+00 0.  1.
         22    1    1    2    0    0  0.14030634647E+03 -0.12583324901E+04  0.89828050513E+03  0.15524156635E+04  0.00000000000E+00 0. -1.
<mgrwt>
<rscale>  0 0.31611950E+04</rscale>
<asrwt>0</asrwt>
<pdfrwt beam="1">  1        2 0.23617844E+00 0.31611950E+04</pdfrwt>
<pdfrwt beam="2">  1       -2 0.25036615E+00 0.31611950E+04</pdfrwt>
<totfact> 0.65493393E-01</totfact>
</mgrwt>
</event>
<event>
 6    1  0.1585031E-006  0.1747701E+04  0.7818608E-02  0.8734617E-01
         -2   -1    0    0    0  501 -0.00000000000E+00  0.00000000000E+00  0.19683611010E+04  0.19683611010E+04  0.00000000000E+00 0.  1.
          2   -1    0    0  501    0  0.00000000000E+00 -0.00000000000E+00 -0.38794453553E+03  0.38794453553E+03  0.00000000000E+00 0. -1.
         23    2    1    2    0    0  0.81782858699E+03 -0.18487730354E+03  0.47228092020E+03  0.96670575765E+03  0.91910495703E+02 0.  0.
         11    1    3    3    0    0  0.41089147884E+03 -0.98573212899E+02  0.18568497721E+03  0.46154891014E+03  0.00000000000E+00 0.  1.
        -11    1    3    3    0    0  0.40693710815E+03 -0.86304090644E+02  0.28659594299E+03  0.50515684751E+03  0.00000000000E+00 0. -1.
         22    1    1    2    0    0 -0.81782858699E+03  0.18487730354E+03  0.11081356453E+04  0.13895998789E+04  0.00000000000E+00 0.  1.
<mgrwt>
<rscale>  0 0.17477013E+04</rscale>
<asrwt>0</asrwt>
<pdfrwt beam="1">  1        2 0.59683776E-01 0.17477013E+04</pdfrwt>
<pdfrwt beam="2">  1       -2 0.30282478E+00 0.17477013E+04</pdfrwt>
<totfact> 0.23883119E+00</totfact>
</mgrwt>
</event>
<event>
 6    1  0.1585031E-006  0.3162065E+04  0.7818608E-02  0.8198908E-01
          2   -1    0    0  501    0  0.00000000000E+00  0.00000000000E+00  0.16686507509E+04  0.16686507509E+04  0.00000000000E+00 0. -1.
         -2   -1    0    0    0  501 -0.00000000000E+00 -0.00000000000E+00 -0.14980154178E+04  0.14980154178E+04  0.00000000000E+00 0.  1.
         23    2    1    2    0    0 -0.12022882598E+03 -0.39377830615E+03 -0.14417830430E+04  0.15025119257E+04  0.96371255492E+02 0.  0.
         13    1    3    3    0    0 -0.49940728850E+02 -0.64986200432E+02 -0.20322418667E+03  0.21912862135E+03  0.00000000000E+00 0. -1.
        -13    1    3    3    0    0 -0.70288097132E+02 -0.32879210572E+03 -0.12385588563E+04  0.12833833044E+04  0.00000000000E+00 0.  1.
         22    1    1    2    0    0  0.12022882598E+03  0.39377830615E+03  0.16124183761E+04  0.16641542430E+04  0.00000000000E+00 0. -1.
<mgrwt>
<rscale>  0 0.31620655E+04</rscale>
<asrwt>0</asrwt>
<pdfrwt beam="1">  1        2 0.25671550E+00 0.31620655E+04</pdfrwt>
<pdfrwt beam="2">  1       -2 0.23046391E+00 0.31620655E+04</pdfrwt>
<totfact> 0.73245713E-01</totfact>
</mgrwt>
</event>
<event>
 6    1  0.1585031E-006  0.5335233E+03  0.7818608E-02  0.1005381E+00
         -1   -1    0    0    0  501 -0.00000000000E+00  0.00000000000E+00  0.11471184450E+03  0.11471184450E+03  0.00000000000E+00 0.  1.
          1   -1    0    0  501    0  0.00000000000E+00 -0.00000000000E+00 -0.62035249087E+03  0.62035249087E+03  0.00000000000E+00 0. -1.
         23    2    1    2    0    0  0.22790690061E+03 -0.72171065893E+02 -0.40478262380E+03  0.47559842467E+03  0.72074065527E+02 0.  0.
         13    1    3    3    0    0  0.64044022080E+02 -0.39637008708E+02 -0.77077559451E+02  0.10776678243E+03  0.00000000000E+00 0. -1.
        -13    1    3    3    0    0  0.16386287853E+03 -0.32534057185E+02 -0.32770506435E+03  0.36783164224E+03  0.00000000000E+00 0.  1.
         22    1    1    2    0    0 -0.22790690061E+03  0.72171065893E+02 -0.10085802257E+03  0.25946591070E+03  0.00000000000E+00 0.  1.
<mgrwt>
<rscale>  0 0.53352330E+03</rscale>
<asrwt>0</asrwt>
<pdfrwt beam="1">  1        1 0.95438844E-01 0.53352330E+03</pdfrwt>
<pdfrwt beam="2">  1       -1 0.17647976E-01 0.53352330E+03</pdfrwt>
<totfact> 0.82775380E+02</totfact>
</mgrwt>
</event>
<event>
 6    1  0.1585031E-006  0.1453330E+04  0.7818608E-02  0.8916095E-01
          1   -1    0    0  501    0  0.00000000000E+00  0.00000000000E+00  0.65229675465E+03  0.65229675465E+03  0.00000000000E+00 0. -1.
         -1   -1    0    0    0  501 -0.00000000000E+00 -0.00000000000E+00 -0.80951154347E+03  0.80951154347E+03  0.00000000000E+00 0.  1.
         23    2    1    2    0    0 -0.45228998376E+03  0.55412067631E+03  0.32323594077E+02  0.72184833170E+03  0.91674674368E+02 0.  0.
         11    1    3    3    0    0 -0.19403609773E+03  0.17293895946E+03  0.27758033317E+02  0.26139701478E+03  0.00000000000E+00 0.  1.
        -11    1    3    3    0    0 -0.25825388603E+03  0.38118171684E+03  0.45655607602E+01  0.46045131692E+03  0.00000000000E+00 0. -1.
         22    1    1    2    0    0  0.45228998376E+03 -0.55412067631E+03 -0.18953838290E+03  0.73995996643E+03  0.00000000000E+00 0. -1.
<mgrwt>
<rscale>  0 0.14533296E+04</rscale>
<asrwt>0</asrwt>
<pdfrwt beam="1">  1        1 0.10035335E+00 0.14533296E+04</pdfrwt>
<pdfrwt beam="2">  1       -1 0.12454024E+00 0.14533296E+04</pdfrwt>
<totfact> 0.16619999E+01</totfact>
</mgrwt>
</event>
<event>
 6    1  0.1585031E-006  0.3304570E+04  0.7818608E-02  0.8161734E-01
         -2   -1    0    0    0  501 -0.00000000000E+00  0.00000000000E+00  0.13359301480E+04  0.13359301480E+04  0.00000000000E+00 0.  1.
          2   -1    0    0  501    0  0.00000000000E+00 -0.00000000000E+00 -0.20435541763E+04  0.20435541763E+04  0.00000000000E+00 0. -1.
         23    2    1    2    0    0  0.86163039414E+03  0.89596464118E+03  0.75710931428E+03  0.14583900166E+04  0.92343665095E+02 0.  0.
         13    1    3    3    0    0  0.52416749986E+03  0.60850385957E+03  0.49292212101E+03  0.94233790776E+03  0.00000000000E+00 0.  1.
        -13    1    3    3    0    0  0.33746289428E+03  0.28746078161E+03  0.26418719327E+03  0.51605210887E+03  0.00000000000E+00 0. -1.
         22    1    1    2    0    0 -0.86163039414E+03 -0.89596464118E+03 -0.14647333426E+04  0.19210943077E+04  0.00000000000E+00 0. -1.
<mgrwt>
<rscale>  0 0.33045699E+04</rscale>
<asrwt>0</asrwt>
<pdfrwt beam="1">  1        2 0.31439295E+00 0.33045699E+04</pdfrwt>
<pdfrwt beam="2">  1       -2 0.20552772E+00 0.33045699E+04</pdfrwt>
<totfact> 0.64565224E-01</totfact>
</mgrwt>
</event>
<event>
 6    1  0.1585031E-006  0.1506787E+04  0.7818608E-02  0.8879952E-01
          1   -1    0    0  501    0  0.00000000000E+00  0.00000000000E+00  0.18656805434E+04  0.18656805434E+04  0.00000000000E+00 0.  1.
         -1   -1    0    0    0  501 -0.00000000000E+00 -0.00000000000E+00 -0.30423296285E+03  0.30423296285E+03  0.00000000000E+00 0. -1.
         23    2    1    2    0    0 -0.59213174185E+03 -0.25364435108E+03  0.22799130917E+03  0.68901476418E+03  0.88350730940E+02 0.  0.
         13    1    3    3    0    0 -0.12137495957E+03 -0.25556726963E+02  0.17992744533E+02  0.12533461597E+03  0.00000000000E+00 0. -1.
        -13    1    3    3    0    0 -0.47075678228E+03 -0.22808762412E+03  0.20999856464E+03  0.56368014821E+03  0.00000000000E+00 0.  1.
         22    1    1    2    0    0  0.59213174185E+03  0.25364435108E+03  0.13334562714E+04  0.14808987421E+04  0.00000000000E+00 0.  1.
<mgrwt>
<rscale>  0 0.15067867E+04</rscale>
<asrwt>0</asrwt>
<pdfrwt beam="1">  1        1 0.28702777E+00 0.15067867E+04</pdfrwt>
<pdfrwt beam="2">  1       -1 0.46805072E-01 0.15067867E+04</pdfrwt>
<totfact> 0.16172654E+01</totfact>
</mgrwt>
</event>
<event>
 6    1  0.1585031E-006  0.2337271E+04  0.7818608E-02  0.8463369E-01
          1   -1    0    0  501    0  0.00000000000E+00  0.00000000000E+00  0.80974303822E+03  0.80974303822E+03  0.00000000000E+00 0. -1.
         -1   -1    0    0    0  501 -0.00000000000E+00 -0.00000000000E+00 -0.16865955224E+04  0.16865955224E+04  0.00000000000E+00 0.  1.
         23    2    1    2    0    0 -0.74975014189E+03  0.89306081098E+03 -0.39288060296E+03  0.12338364144E+04  0.91182465025E+02 0.  0.
         13    1    3    3    0    0 -0.52988233928E+03  0.69283479377E+03 -0.29186545538E+03  0.91977213971E+03  0.00000000000E+00 0.  1.
        -13    1    3    3    0    0 -0.21986780261E+03  0.20022601721E+03 -0.10101514758E+03  0.31406427468E+03  0.00000000000E+00 0. -1.
         22    1    1    2    0    0  0.74975014189E+03 -0.89306081098E+03 -0.48397188122E+03  0.12625021462E+04  0.00000000000E+00 0.  1.
<mgrwt>
<rscale>  0 0.23372710E+04</rscale>
<asrwt>0</asrwt>
<pdfrwt beam="1">  1        1 0.12457585E+00 0.23372710E+04</pdfrwt>
<pdfrwt beam="2">  1       -1 0.25947623E+00 0.23372710E+04</pdfrwt>
<totfact> 0.11813413E+00</totfact>
</mgrwt>
</event>
<event>
 6    1  0.1585031E-006  0.1353719E+04  0.7818608E-02  0.8988018E-01
          2   -1    0    0  501    0  0.00000000000E+00  0.00000000000E+00  0.35896554330E+03  0.35896554330E+03  0.00000000000E+00 0. -1.
         -2   -1    0    0    0  501 -0.00000000000E+00 -0.00000000000E+00 -0.12762749051E+04  0.12762749051E+04  0.00000000000E+00 0.  1.
         23    2    1    2    0    0 -0.28133886110E+03  0.12912549968E+03 -0.11837196395E+04  0.12268296435E+04  0.89965770155E+02 0.  0.
         13    1    3    3    0    0 -0.13973645206E+03  0.20904389992E+02 -0.44378943121E+03  0.46573847684E+03  0.00000000000E+00 0. -1.
        -13    1    3    3    0    0 -0.14160240904E+03  0.10822110969E+03 -0.73993020832E+03  0.76109116669E+03  0.00000000000E+00 0.  1.
         22    1    1    2    0    0  0.28133886110E+03 -0.12912549968E+03  0.26641027774E+03  0.40841080485E+03  0.00000000000E+00 0. -1.
<mgrwt>
<rscale>  0 0.13537189E+04</rscale>
<asrwt>0</asrwt>
<pdfrwt beam="1">  1        2 0.55225467E-01 0.13537189E+04</pdfrwt>
<pdfrwt beam="2">  1       -2 0.19634999E+00 0.13537189E+04</pdfrwt>
<totfact> 0.12319293E+01</totfact>
</mgrwt>
</event>
<event>
 6    1  0.1585031E-006  0.2973689E+04  0.7818608E-02  0.8251284E-01
         -2   -1    0    0    0  501 -0.00000000000E+00  0.00000000000E+00  0.11292146252E+04  0.11292146252E+04  0.00000000000E+00 0.  1.
          2   -1    0    0  501    0  0.00000000000E+00 -0.00000000000E+00 -0.19577378150E+04  0.19577378150E+04  0.00000000000E+00 0. -1.
         23    2    1    2    0    0 -0.43557235705E+03  0.36640195814E+03 -0.18389878423E+04  0.19272057062E+04  0.90949858848E+02 0.  0.
         11    1    3    3    0    0 -0.13684606578E+03  0.16965645113E+03 -0.74435493359E+03  0.77561228993E+03  0.00000000000E+00 0. -1.
        -11    1    3    3    0    0 -0.29872629128E+03  0.19674550701E+03 -0.10946329087E+04  0.11515934163E+04  0.00000000000E+00 0.  1.
         22    1    1    2    0    0  0.43557235705E+03 -0.36640195814E+03  0.10104646525E+04  0.11597467340E+04  0.00000000000E+00 0.  1.
<mgrwt>
<rscale>  0 0.29736887E+04</rscale>
<asrwt>0</asrwt>
<pdfrwt beam="1">  1        2 0.30119043E+00 0.29736887E+04</pdfrwt>
<pdfrwt beam="2">  1       -2 0.17372533E+00 0.29736887E+04</pdfrwt>
<totfact> 0.12137124E+00</totfact>
</mgrwt>
</event>
<event>
 6    1  0.1585031E-006  0.2818985E+04  0.7818608E-02  0.8297398E-01
         -2   -1    0    0    0  501 -0.00000000000E+00  0.00000000000E+00  0.71913033523E+03  0.71913033523E+03  0.00000000000E+00 0.  1.
          2   -1    0    0  501    0  0.00000000000E+00 -0.00000000000E+00 -0.27625995122E+04  0.27625995122E+04  0.00000000000E+00 0. -1.
         23    2    1    2    0    0  0.75636524664E+02  0.11801534960E+04 -0.19666499352E+04  0.22966626114E+04  0.92000136777E+02 0.  0.
         11    1    3    3    0    0  0.80736536945E+02  0.88921871439E+03 -0.15428230972E+04  0.17825631601E+04  0.00000000000E+00 0. -1.
        -11    1    3    3    0    0 -0.51000122815E+01  0.29093478160E+03 -0.42382683797E+03  0.51409945133E+03  0.00000000000E+00 0.  1.
         22    1    1    2    0    0 -0.75636524664E+02 -0.11801534960E+04 -0.76819241779E+02  0.11850672360E+04  0.00000000000E+00 0.  1.
<mgrwt>
<rscale>  0 0.28189850E+04</rscale>
<asrwt>0</asrwt>
<pdfrwt beam="1">  1        2 0.42501530E+00 0.28189850E+04</pdfrwt>
<pdfrwt beam="2">  1       -2 0.11063544E+00 0.28189850E+04</pdfrwt>
<totfact> 0.13706259E+00</totfact>
</mgrwt>
</event>
<event>
 6    1  0.1585031E-006  0.9013946E+03  0.7818608E-02  0.9423840E-01
          2   -1    0    0  501    0  0.00000000000E+00  0.00000000000E+00  0.38019373841E+03  0.38019373841E+03  0.00000000000E+00 0. -1.
         -2   -1    0    0    0  501 -0.00000000000E+00 -0.00000000000E+00 -0.53427517800E+03  0.53427517800E+03  0.00000000000E+00 0.  1.
         23    2    1    2    0    0 -0.22744367903E+03  0.29207070033E+03 -0.32985952736E+03  0.50467157960E+03  0.94075365222E+02 0.  0.
         13    1    3    3    0    0 -0.13695596073E+03  0.23507955835E+03 -0.26388899955E+03  0.37902076198E+03  0.00000000000E+00 0.  1.
        -13    1    3    3    0    0 -0.90487718297E+02  0.56991141980E+02 -0.65970527818E+02  0.12565081761E+03  0.00000000000E+00 0. -1.
         22    1    1    2    0    0  0.22744367903E+03 -0.29207070033E+03  0.17577808777E+03  0.40979733681E+03  0.00000000000E+00 0. -1.
<mgrwt>
<rscale>  0 0.90139465E+03</rscale>
<asrwt>0</asrwt>
<pdfrwt beam="1">  1        2 0.58491344E-01 0.90139465E+03</pdfrwt>
<pdfrwt beam="2">  1       -2 0.82196181E-01 0.90139465E+03</pdfrwt>
<totfact> 0.10991325E+02</totfact>
</mgrwt>
</event>
<event>
 6    1  0.1585031E-006  0.1569364E+04  0.7818608E-02  0.8839593E-01
          1   -1    0    0  501    0  0.00000000000E+00  0.00000000000E+00  0.70534459639E+03  0.70534459639E+03  0.00000000000E+00 0. -1.
         -1   -1    0    0    0  501 -0.00000000000E+00 -0.00000000000E+00 -0.87294289499E+03  0.87294289499E+03  0.00000000000E+00 0.  1.
         23    2    1    2    0    0 -0.31434750557E+03  0.62224563216E+03  0.27342650313E+03  0.75335909645E+03  0.82364401193E+02 0.  0.
         11    1    3    3    0    0 -0.43753843682E+02  0.15739434718E+03  0.78603051686E+02  0.18128932427E+03  0.00000000000E+00 0.  1.
        -11    1    3    3    0    0 -0.27059366189E+03  0.46485128499E+03  0.19482345144E+03  0.57206977218E+03  0.00000000000E+00 0. -1.
         22    1    1    2    0    0  0.31434750557E+03 -0.62224563216E+03 -0.44102480173E+03  0.82492839492E+03  0.00000000000E+00 0.  1.
<mgrwt>
<rscale>  0 0.15693636E+04</rscale>
<asrwt>0</asrwt>
<pdfrwt beam="1">  1        1 0.10851455E+00 0.15693636E+04</pdfrwt>
<pdfrwt beam="2">  1       -1 0.13429891E+00 0.15693636E+04</pdfrwt>
<totfact> 0.12095606E+01</totfact>
</mgrwt>
</event>
<event>
 6    1  0.1585031E-006  0.3595864E+04  0.7818608E-02  0.8091440E-01
         -2   -1    0    0    0  501 -0.00000000000E+00  0.00000000000E+00  0.11729638355E+04  0.11729638355E+04  0.00000000000E+00 0.  1.
          2   -1    0    0  501    0  0.00000000000E+00 -0.00000000000E+00 -0.27558899724E+04  0.27558899724E+04  0.00000000000E+00 0. -1.
         23    2    1    2    0    0 -0.99760974202E+03  0.60649346448E+03 -0.22841453061E+04  0.25669551908E+04  0.94231908388E+02 0.  0.
         13    1    3    3    0    0 -0.35430765883E+03  0.25055666524E+03 -0.92383900857E+03  0.10206816709E+04  0.00000000000E+00 0.  1.
        -13    1    3    3    0    0 -0.64330208319E+03  0.35593679924E+03 -0.13603062975E+04  0.15462735199E+04  0.00000000000E+00 0. -1.
         22    1    1    2    0    0  0.99760974202E+03 -0.60649346448E+03  0.70121916928E+03  0.13618986171E+04  0.00000000000E+00 0.  1.
<mgrwt>
<rscale>  0 0.35958639E+04</rscale>
<asrwt>0</asrwt>
<pdfrwt beam="1">  1        2 0.42398306E+00 0.35958639E+04</pdfrwt>
<pdfrwt beam="2">  1       -2 0.18045598E+00 0.35958639E+04</pdfrwt>
<totfact> 0.36072064E-01</totfact>
</mgrwt>
</event>
<event>
 6    1  0.1585031E-006  0.1125852E+04  0.7818608E-02  0.9180355E-01
         -2   -1    0    0    0  501 -0.00000000000E+00  0.00000000000E+00  0.12536897580E+03  0.12536897580E+03  0.00000000000E+00 0. -1.
          2   -1    0    0  501    0  0.00000000000E+00 -0.00000000000E+00 -0.25276243376E+04  0.25276243376E+04  0.00000000000E+00 0.  1.
         23    2    1    2    0    0  0.39690110169E+03  0.14187352846E+03 -0.20750789215E+04  0.21194176340E+04  0.91214001446E+02 0.  0.
         13    1    3    3    0    0  0.46641081618E+02  0.49650820061E+02 -0.28060671958E+03  0.28875720857E+03  0.00000000000E+00 0. -1.
        -13    1    3    3    0    0  0.35026002007E+03  0.92222708401E+02 -0.17944722019E+04  0.18306604254E+04  0.00000000000E+00 0.  1.
         22    1    1    2    0    0 -0.39690110169E+03 -0.14187352846E+03 -0.32717644028E+03  0.53357567943E+03  0.00000000000E+00 0. -1.
<mgrwt>
<rscale>  0 0.11258520E+04</rscale>
<asrwt>0</asrwt>
<pdfrwt beam="1">  1        2 0.38886524E+00 0.11258520E+04</pdfrwt>
<pdfrwt beam="2">  1       -2 0.19287537E-01 0.11258520E+04</pdfrwt>
<totfact> 0.76408449E+01</totfact>
</mgrwt>
</event>
<event>
 6    1  0.1585031E-006  0.3162823E+04  0.7818608E-02  0.8198705E-01
         -2   -1    0    0    0  501 -0.00000000000E+00  0.00000000000E+00  0.18126777597E+04  0.18126777597E+04  0.00000000000E+00 0.  1.
          2   -1    0    0  501    0  0.00000000000E+00 -0.00000000000E+00 -0.13796507607E+04  0.13796507607E+04  0.00000000000E+00 0. -1.
         23    2    1    2    0    0  0.10219183583E+04 -0.11615976599E+04  0.54055768635E+03  0.16414613103E+04  0.92554665903E+02 0.  0.
         11    1    3    3    0    0  0.51582149631E+03 -0.65306866467E+03  0.27583197280E+03  0.87672901973E+03  0.00000000000E+00 0. -1.
        -11    1    3    3    0    0  0.50609686199E+03 -0.50852899527E+03  0.26472571355E+03  0.76473229052E+03  0.00000000000E+00 0.  1.
         22    1    1    2    0    0 -0.10219183583E+04  0.11615976599E+04 -0.10753068735E+03  0.15508672101E+04  0.00000000000E+00 0. -1.
<mgrwt>
<rscale>  0 0.31628229E+04</rscale>
<asrwt>0</asrwt>
<pdfrwt beam="1">  1        2 0.21225396E+00 0.31628229E+04</pdfrwt>
<pdfrwt beam="2">  1       -2 0.27887350E+00 0.31628229E+04</pdfrwt>
<totfact> 0.53716322E-01</totfact>
</mgrwt>
</event>
<event>
 6    1  0.1585031E-006  0.3481304E+04  0.7818608E-02  0.8118235E-01
          1   -1    0    0  501    0  0.00000000000E+00  0.00000000000E+00  0.10128785715E+04  0.10128785715E+04  0.00000000000E+00 0. -1.
         -1   -1    0    0    0  501 -0.00000000000E+00 -0.00000000000E+00 -0.29913443180E+04  0.29913443180E+04  0.00000000000E+00 0.  1.
         23    2    1    2    0    0  0.16507146282E+04  0.43560086951E+03 -0.13730225981E+04  0.21928233457E+04  0.93146494873E+02 0.  0.
         13    1    3    3    0    0  0.73042904407E+03  0.14826689542E+03 -0.57709020345E+03  0.94262546306E+03  0.00000000000E+00 0.  1.
        -13    1    3    3    0    0  0.92028558412E+03  0.28733397408E+03 -0.79593239463E+03  0.12501978827E+04  0.00000000000E+00 0. -1.
         22    1    1    2    0    0 -0.16507146282E+04 -0.43560086951E+03 -0.60544314834E+03  0.18113995438E+04  0.00000000000E+00 0. -1.
<mgrwt>
<rscale>  0 0.34813035E+04</rscale>
<asrwt>0</asrwt>
<pdfrwt beam="1">  1        1 0.15582748E+00 0.34813035E+04</pdfrwt>
<pdfrwt beam="2">  1       -1 0.46020681E+00 0.34813035E+04</pdfrwt>
<totfact> 0.33227871E-02</totfact>
</mgrwt>
</event>
<event>
 6    1  0.1585031E-006  0.5371457E+03  0.7818608E-02  0.1004514E+00
         -1   -1    0    0    0  501 -0.00000000000E+00  0.00000000000E+00  0.47057177339E+02  0.47057177339E+02  0.00000000000E+00 0.  1.
          1   -1    0    0  501    0  0.00000000000E+00 -0.00000000000E+00 -0.15328451744E+04  0.15328451744E+04  0.00000000000E+00 0. -1.
         23    2    1    2    0    0 -0.25945639396E+03  0.88048893761E+01 -0.69410189515E+03  0.74673848406E+03  0.91900904701E+02 0.  0.
         11    1    3    3    0    0 -0.79594550800E+02  0.32094007906E+02 -0.31509152941E+03  0.32657003808E+03  0.00000000000E+00 0. -1.
        -11    1    3    3    0    0 -0.17986184316E+03 -0.23289118530E+02 -0.37901036574E+03  0.42016844599E+03  0.00000000000E+00 0.  1.
         22    1    1    2    0    0  0.25945639396E+03 -0.88048893761E+01 -0.79168610196E+03  0.83316386772E+03  0.00000000000E+00 0. -1.
<mgrwt>
<rscale>  0 0.53714567E+03</rscale>
<asrwt>0</asrwt>
<pdfrwt beam="1">  1        1 0.23582230E+00 0.53714567E+03</pdfrwt>
<pdfrwt beam="2">  1       -1 0.72395667E-02 0.53714567E+03</pdfrwt>
<totfact> 0.66999358E+02</totfact>
</mgrwt>
</event>
<event>
 6    1  0.1585031E-006  0.3899909E+04  0.7818608E-02  0.8025048E-01
         -1   -1    0    0    0  501 -0.00000000000E+00  0.00000000000E+00  0.30867073000E+04  0.30867073000E+04  0.00000000000E+00 0.  1.
          1   -1    0    0  501    0  0.00000000000E+00 -0.00000000000E+00 -0.12318374855E+04  0.12318374855E+04  0.00000000000E+00 0. -1.
         23    2    1    2    0    0  0.15110938729E+04  0.79506606270E+03  0.19673876251E+04  0.26073478376E+04  0.11006335599E+03 0.  0.
         13    1    3    3    0    0  0.12192729743E+03  0.32031287595E+02  0.14022890817E+03  0.18856408972E+03  0.00000000000E+00 0. -1.
        -13    1    3    3    0    0  0.13891665755E+04  0.76303477510E+03  0.18271587169E+04  0.24187837479E+04  0.00000000000E+00 0.  1.
         22    1    1    2    0    0 -0.15110938729E+04 -0.79506606270E+03 -0.11251781058E+03  0.17111969479E+04  0.00000000000E+00 0. -1.
<mgrwt>
<rscale>  0 0.38999086E+04</rscale>
<asrwt>0</asrwt>
<pdfrwt beam="1">  1        1 0.18951346E+00 0.38999086E+04</pdfrwt>
<pdfrwt beam="2">  1       -1 0.47487804E+00 0.38999086E+04</pdfrwt>
<totfact> 0.17480684E-02</totfact>
</mgrwt>
</event>
<event>
 6    1  0.1585031E-006  0.3969901E+04  0.7818608E-02  0.8010646E-01
         -2   -1    0    0    0  501 -0.00000000000E+00  0.00000000000E+00  0.15704389933E+04  0.15704389933E+04  0.00000000000E+00 0.  1.
          2   -1    0    0  501    0  0.00000000000E+00 -0.00000000000E+00 -0.25088709200E+04  0.25088709200E+04  0.00000000000E+00 0. -1.
         23    2    1    2    0    0 -0.91055519966E+03 -0.12609675953E+04 -0.17349338182E+04  0.23318645461E+04  0.91906799205E+02 0.  0.
         11    1    3    3    0    0 -0.58247815544E+03 -0.77875202344E+03 -0.10219081458E+04  0.14106848599E+04  0.00000000000E+00 0.  1.
        -11    1    3    3    0    0 -0.32807704422E+03 -0.48221557188E+03 -0.71302567245E+03  0.92117968621E+03  0.00000000000E+00 0. -1.
         22    1    1    2    0    0  0.91055519966E+03  0.12609675953E+04  0.79650189152E+03  0.17474453672E+04  0.00000000000E+00 0.  1.
<mgrwt>
<rscale>  0 0.39699011E+04</rscale>
<asrwt>0</asrwt>
<pdfrwt beam="1">  1        2 0.38598014E+00 0.39699011E+04</pdfrwt>
<pdfrwt beam="2">  1       -2 0.24160600E+00 0.39699011E+04</pdfrwt>
<totfact> 0.19695369E-01</totfact>
</mgrwt>
</event>
<event>
 6    1  0.1585031E-006  0.8954709E+03  0.7818608E-02  0.9431261E-01
         -2   -1    0    0    0  501 -0.00000000000E+00  0.00000000000E+00  0.61803960972E+02  0.61803960972E+02  0.00000000000E+00 0. -1.
          2   -1    0    0  501    0  0.00000000000E+00 -0.00000000000E+00 -0.32435955533E+04  0.32435955533E+04  0.00000000000E+00 0.  1.
         23    2    1    2    0    0 -0.27473936837E+03  0.30606214858E+03 -0.99135190327E+03  0.10766819928E+04  0.85497123211E+02 0.  0.
         11    1    3    3    0    0 -0.18533956759E+03  0.18305144526E+03 -0.52339061712E+03  0.58463349631E+03  0.00000000000E+00 0. -1.
        -11    1    3    3    0    0 -0.89399800782E+02  0.12301070332E+03 -0.46796128615E+03  0.49204849644E+03  0.00000000000E+00 0.  1.
         22    1    1    2    0    0  0.27473936837E+03 -0.30606214858E+03 -0.21904396891E+04  0.22287175216E+04  0.00000000000E+00 0. -1.
<mgrwt>
<rscale>  0 0.89547094E+03</rscale>
<asrwt>0</asrwt>
<pdfrwt beam="1">  1        2 0.49901475E+00 0.89547094E+03</pdfrwt>
<pdfrwt beam="2">  1       -2 0.95083008E-02 0.89547094E+03</pdfrwt>
<totfact> 0.94605201E+01</totfact>
</mgrwt>
</event>
<event>
 6    1  0.1585031E-006  0.2330967E+04  0.7818608E-02  0.8465810E-01
         -1   -1    0    0    0  501 -0.00000000000E+00  0.00000000000E+00  0.80518908465E+03  0.80518908465E+03  0.00000000000E+00 0. -1.
          1   -1    0    0  501    0  0.00000000000E+00 -0.00000000000E+00 -0.16869976839E+04  0.16869976839E+04  0.00000000000E+00 0.  1.
         23    2    1    2    0    0  0.25131094039E+02  0.67148642972E+03 -0.14573971803E+04  0.16074111971E+04  0.90766835073E+02 0.  0.
         11    1    3    3    0    0  0.39269102902E+02  0.63615032081E+03 -0.13371182374E+04  0.14812543583E+04  0.00000000000E+00 0.  1.
        -11    1    3    3    0    0 -0.14138008862E+02  0.35336108908E+02 -0.12027894290E+03  0.12615683886E+03  0.00000000000E+00 0. -1.
         22    1    1    2    0    0 -0.25131094039E+02 -0.67148642972E+03  0.57558858103E+03  0.88477557143E+03  0.00000000000E+00 0. -1.
<mgrwt>
<rscale>  0 0.23309673E+04</rscale>
<asrwt>0</asrwt>
<pdfrwt beam="1">  1        1 0.25953810E+00 0.23309673E+04</pdfrwt>
<pdfrwt beam="2">  1       -1 0.12387524E+00 0.23309673E+04</pdfrwt>
<totfact> 0.25097538E+00</totfact>
</mgrwt>
</event>
<event>
 6    1  0.1585031E-006  0.2017541E+04  0.7818608E-02  0.8598463E-01
         -2   -1    0    0    0  501 -0.00000000000E+00  0.00000000000E+00  0.10925215751E+04  0.10925215751E+04  0.00000000000E+00 0.  1.
          2   -1    0    0  501    0  0.00000000000E+00 -0.00000000000E+00 -0.93143936044E+03  0.93143936044E+03  0.00000000000E+00 0. -1.
         23    2    1    2    0    0 -0.87057236085E+03 -0.50505811356E+03  0.10955119964E+03  0.10161735675E+04  0.87334532058E+02 0.  0.
         13    1    3    3    0    0 -0.52287732419E+03 -0.35187835047E+03  0.63165445724E+02  0.63341056450E+03  0.00000000000E+00 0.  1.
        -13    1    3    3    0    0 -0.34769503666E+03 -0.15317976309E+03  0.46385753915E+02  0.38276300305E+03  0.00000000000E+00 0. -1.
         22    1    1    2    0    0  0.87057236085E+03  0.50505811356E+03  0.51531014994E+02  0.10077873680E+04  0.00000000000E+00 0. -1.
<mgrwt>
<rscale>  0 0.20175407E+04</rscale>
<asrwt>0</asrwt>
<pdfrwt beam="1">  1        2 0.14329836E+00 0.20175407E+04</pdfrwt>
<pdfrwt beam="2">  1       -2 0.16808024E+00 0.20175407E+04</pdfrwt>
<totfact> 0.56983007E+00</totfact>
</mgrwt>
</event>
<event>
 6    1  0.1585031E-006  0.2543100E+03  0.7818608E-02  0.1110611E+00
         -2   -1    0    0    0  501 -0.00000000000E+00  0.00000000000E+00  0.92535408171E+02  0.92535408171E+02  0.00000000000E+00 0.  1.
          2   -1    0    0  501    0  0.00000000000E+00 -0.00000000000E+00 -0.17472650836E+03  0.17472650836E+03  0.00000000000E+00 0. -1.
         23    2    1    2    0    0  0.81646445833E+02  0.68785709506E+02 -0.24143930766E+02  0.14574200118E+03  0.96229857967E+02 0.  0.
         11    1    3    3    0    0  0.62342307136E+02  0.21636813592E+02  0.29035938902E+02  0.72095774560E+02  0.00000000000E+00 0. -1.
        -11    1    3    3    0    0  0.19304138697E+02  0.47148895914E+02 -0.53179869668E+02  0.73646226615E+02  0.00000000000E+00 0.  1.
         22    1    1    2    0    0 -0.81646445833E+02 -0.68785709506E+02 -0.58047169418E+02  0.12151991535E+03  0.00000000000E+00 0. -1.
<mgrwt>
<rscale>  0 0.25430996E+03</rscale>
<asrwt>0</asrwt>
<pdfrwt beam="1">  1        2 0.26881001E-01 0.25430996E+03</pdfrwt>
<pdfrwt beam="2">  1       -2 0.14236217E-01 0.25430996E+03</pdfrwt>
<totfact> 0.73068726E+03</totfact>
</mgrwt>
</event>
<event>
 6    1  0.1585031E-006  0.2496636E+04  0.7818608E-02  0.8404185E-01
          2   -1    0    0  501    0  0.00000000000E+00  0.00000000000E+00  0.36600198911E+04  0.36600198911E+04  0.00000000000E+00 0. -1.
         -2   -1    0    0    0  501 -0.00000000000E+00 -0.00000000000E+00 -0.42576228403E+03  0.42576228403E+03  0.00000000000E+00 0.  1.
         23    2    1    2    0    0  0.54960580215E+03  0.61746861436E+03  0.92091216022E+02  0.83669866489E+03  0.90828609408E+02 0.  0.
         13    1    3    3    0    0  0.37707187064E+03  0.45907121746E+03  0.99554582167E+02  0.60236259277E+03  0.00000000000E+00 0.  1.
        -13    1    3    3    0    0  0.17253393151E+03  0.15839739689E+03 -0.74633661452E+01  0.23433607212E+03  0.00000000000E+00 0. -1.
         22    1    1    2    0    0 -0.54960580215E+03 -0.61746861436E+03  0.31421663910E+04  0.32490835102E+04  0.00000000000E+00 0. -1.
<mgrwt>
<rscale>  0 0.24966365E+04</rscale>
<asrwt>0</asrwt>
<pdfrwt beam="1">  1        2 0.56307996E+00 0.24966365E+04</pdfrwt>
<pdfrwt beam="2">  1       -2 0.65501892E-01 0.24966365E+04</pdfrwt>
<totfact> 0.11987271E+00</totfact>
</mgrwt>
</event>
<event>
 6    1  0.1585031E-006  0.2217498E+04  0.7818608E-02  0.8511180E-01
          2   -1    0    0  501    0  0.00000000000E+00  0.00000000000E+00  0.26703803660E+04  0.26703803660E+04  0.00000000000E+00 0. -1.
         -2   -1    0    0    0  501 -0.00000000000E+00 -0.00000000000E+00 -0.46035572627E+03  0.46035572627E+03  0.00000000000E+00 0.  1.
         23    2    1    2    0    0 -0.66126382128E+03 -0.74978136511E+03  0.43594918239E+03  0.10943702938E+04  0.90292378187E+02 0.  0.
         11    1    3    3    0    0 -0.38374331465E+03 -0.36698863458E+03  0.23163340893E+03  0.57930443256E+03  0.00000000000E+00 0.  1.
        -11    1    3    3    0    0 -0.27752050662E+03 -0.38279273053E+03  0.20431577346E+03  0.51506586125E+03  0.00000000000E+00 0. -1.
         22    1    1    2    0    0  0.66126382128E+03  0.74978136511E+03  0.17740754573E+04  0.20363657985E+04  0.00000000000E+00 0. -1.
<mgrwt>
<rscale>  0 0.22174985E+04</rscale>
<asrwt>0</asrwt>
<pdfrwt beam="1">  1        2 0.41082774E+00 0.22174985E+04</pdfrwt>
<pdfrwt beam="2">  1       -2 0.70823959E-01 0.22174985E+04</pdfrwt>
<totfact> 0.45749149E+00</totfact>
</mgrwt>
</event>
<event>
 6    1  0.1585031E-006  0.5293283E+03  0.7818608E-02  0.1006395E+00
          1   -1    0    0  501    0  0.00000000000E+00  0.00000000000E+00  0.60146295045E+03  0.60146295045E+03  0.00000000000E+00 0.  1.
         -1   -1    0    0    0  501 -0.00000000000E+00 -0.00000000000E+00 -0.11646121750E+03  0.11646121750E+03  0.00000000000E+00 0. -1.
         23    2    1    2    0    0 -0.16916669479E+03 -0.18945753893E+03  0.19350612014E+03  0.33129615296E+03  0.88323228852E+02 0.  0.
         11    1    3    3    0    0 -0.10191485418E+03 -0.14067491507E+03  0.17417776794E+03  0.24599586191E+03  0.00000000000E+00 0.  1.
        -11    1    3    3    0    0 -0.67251840605E+02 -0.48782623860E+02  0.19328352204E+02  0.85300291057E+02  0.00000000000E+00 0. -1.
         22    1    1    2    0    0  0.16916669479E+03  0.18945753893E+03  0.29149561282E+03  0.38662801499E+03  0.00000000000E+00 0.  1.
<mgrwt>
<rscale>  0 0.52932828E+03</rscale>
<asrwt>0</asrwt>
<pdfrwt beam="1">  1        1 0.92532760E-01 0.52932828E+03</pdfrwt>
<pdfrwt beam="2">  1       -1 0.17917111E-01 0.52932828E+03</pdfrwt>
<totfact> 0.84410524E+02</totfact>
</mgrwt>
</event>
<event>
 6    1  0.1585031E-006  0.1465450E+04  0.7818608E-02  0.8907759E-01
          1   -1    0    0  501    0  0.00000000000E+00  0.00000000000E+00  0.13232502399E+04  0.13232502399E+04  0.00000000000E+00 0. -1.
         -1   -1    0    0    0  501 -0.00000000000E+00 -0.00000000000E+00 -0.40573281682E+03  0.40573281682E+03  0.00000000000E+00 0.  1.
         23    2    1    2    0    0 -0.54595206507E+03  0.18670237396E+03 -0.66630022015E+02  0.58816421592E+03  0.92607511894E+02 0.  0.
         11    1    3    3    0    0 -0.19597676853E+03  0.76374812222E+02  0.19509589920E+02  0.21123595774E+03  0.00000000000E+00 0. -1.
        -11    1    3    3    0    0 -0.34997529654E+03  0.11032756174E+03 -0.86139611935E+02  0.37692825818E+03  0.00000000000E+00 0.  1.
         22    1    1    2    0    0  0.54595206507E+03 -0.18670237396E+03  0.98414744508E+03  0.11408188408E+04  0.00000000000E+00 0. -1.
<mgrwt>
<rscale>  0 0.14654502E+04</rscale>
<asrwt>0</asrwt>
<pdfrwt beam="1">  1        1 0.20357696E+00 0.14654502E+04</pdfrwt>
<pdfrwt beam="2">  1       -1 0.62420434E-01 0.14654502E+04</pdfrwt>
<totfact> 0.21984431E+01</totfact>
</mgrwt>
</event>
<event>
 6    1  0.1585031E-006  0.1917758E+04  0.7818608E-02  0.8646067E-01
          2   -1    0    0  501    0  0.00000000000E+00  0.00000000000E+00  0.69083187258E+03  0.69083187258E+03  0.00000000000E+00 0. -1.
         -2   -1    0    0    0  501 -0.00000000000E+00 -0.00000000000E+00 -0.13309299076E+04  0.13309299076E+04  0.00000000000E+00 0.  1.
         23    2    1    2    0    0  0.22144130332E+03  0.13248564256E+03  0.65051840791E+03  0.70560088613E+03  0.90053957044E+02 0.  0.
         13    1    3    3    0    0  0.21519909438E+03  0.13995797939E+03  0.57813270005E+03  0.63256328149E+03  0.00000000000E+00 0. -1.
        -13    1    3    3    0    0  0.62422089356E+01 -0.74723368246E+01  0.72385707855E+02  0.73037604640E+02  0.00000000000E+00 0.  1.
         22    1    1    2    0    0 -0.22144130332E+03 -0.13248564256E+03 -0.12906164429E+04  0.13161608941E+04  0.00000000000E+00 0.  1.
<mgrwt>
<rscale>  0 0.19177579E+04</rscale>
<asrwt>0</asrwt>
<pdfrwt beam="1">  1        2 0.10628183E+00 0.19177579E+04</pdfrwt>
<pdfrwt beam="2">  1       -2 0.20475845E+00 0.19177579E+04</pdfrwt>
<totfact> 0.48208091E+00</totfact>
</mgrwt>
</event>
<event>
 6    1  0.1585031E-006  0.3211804E+04  0.7818608E-02  0.8185707E-01
          2   -1    0    0  501    0  0.00000000000E+00  0.00000000000E+00  0.30145401615E+04  0.30145401615E+04  0.00000000000E+00 0. -1.
         -2   -1    0    0    0  501 -0.00000000000E+00 -0.00000000000E+00 -0.85549420102E+03  0.85549420102E+03  0.00000000000E+00 0.  1.
         23    2    1    2    0    0 -0.12338411133E+04 -0.60843085539E+03  0.20758457527E+04  0.24918202017E+04  0.86488900682E+02 0.  0.
         13    1    3    3    0    0 -0.10597338043E+04 -0.55364601127E+03  0.18167790776E+04  0.21749128393E+04  0.00000000000E+00 0.  1.
        -13    1    3    3    0    0 -0.17410730901E+03 -0.54784844125E+02  0.25906667512E+03  0.31690736242E+03  0.00000000000E+00 0. -1.
         22    1    1    2    0    0  0.12338411133E+04  0.60843085539E+03  0.83200207780E+02  0.13782141608E+04  0.00000000000E+00 0.  1.
<mgrwt>
<rscale>  0 0.32118042E+04</rscale>
<asrwt>0</asrwt>
<pdfrwt beam="1">  1        2 0.46377540E+00 0.32118042E+04</pdfrwt>
<pdfrwt beam="2">  1       -2 0.13161449E+00 0.32118042E+04</pdfrwt>
<totfact> 0.60323940E-01</totfact>
</mgrwt>
</event>
<event>
 6    1  0.1585031E-006  0.3565860E+04  0.7818608E-02  0.8098357E-01
         -1   -1    0    0    0  501 -0.00000000000E+00  0.00000000000E+00  0.77092344228E+03  0.77092344228E+03  0.00000000000E+00 0.  1.
          1   -1    0    0  501    0  0.00000000000E+00 -0.00000000000E+00 -0.41234169698E+04  0.41234169698E+04  0.00000000000E+00 0. -1.
         23    2    1    2    0    0 -0.86872277368E+03  0.14895628729E+04 -0.10617484462E+04  0.20271135572E+04  0.91666792386E+02 0.  0.
         13    1    3    3    0    0 -0.13940154585E+03  0.26312045029E+03 -0.14604439680E+03  0.33165362682E+03  0.00000000000E+00 0.  1.
        -13    1    3    3    0    0 -0.72932122783E+03  0.12264424226E+04 -0.91570404941E+03  0.16954599304E+04  0.00000000000E+00 0. -1.
         22    1    1    2    0    0  0.86872277368E+03 -0.14895628729E+04 -0.22907450813E+04  0.28672268549E+04  0.00000000000E+00 0. -1.
<mgrwt>
<rscale>  0 0.35658597E+04</rscale>
<asrwt>0</asrwt>
<pdfrwt beam="1">  1        1 0.63437183E+00 0.35658597E+04</pdfrwt>
<pdfrwt beam="2">  1       -1 0.11860361E+00 0.35658597E+04</pdfrwt>
<totfact> 0.38341847E-02</totfact>
</mgrwt>
</event>
<event>
 6    1  0.1585031E-006  0.5648395E+03  0.7818608E-02  0.9981164E-01
          1   -1    0    0  501    0  0.00000000000E+00  0.00000000000E+00  0.36912639065E+03  0.36912639065E+03  0.00000000000E+00 0. -1.
         -1   -1    0    0    0  501 -0.00000000000E+00 -0.00000000000E+00 -0.21608022782E+03  0.21608022782E+03  0.00000000000E+00 0.  1.
         23    2    1    2    0    0  0.13543749205E+03  0.23917220533E+03  0.73827644004E+02  0.29916076239E+03  0.92195350640E+02 0.  0.
         13    1    3    3    0    0  0.68891721398E+02  0.20255097045E+03  0.53719647274E+02  0.22058731924E+03  0.00000000000E+00 0. -1.
        -13    1    3    3    0    0  0.66545770650E+02  0.36621234882E+02  0.20107996730E+02  0.78573443149E+02  0.00000000000E+00 0.  1.
         22    1    1    2    0    0 -0.13543749205E+03 -0.23917220533E+03  0.79218518820E+02  0.28604585608E+03  0.00000000000E+00 0. -1.
<mgrwt>
<rscale>  0 0.56483950E+03</rscale>
<asrwt>0</asrwt>
<pdfrwt beam="1">  1        1 0.56788675E-01 0.56483950E+03</pdfrwt>
<pdfrwt beam="2">  1       -1 0.33243112E-01 0.56483950E+03</pdfrwt>
<totfact> 0.57349920E+02</totfact>
</mgrwt>
</event>
<event>
 6    1  0.1585031E-006  0.2821707E+04  0.7818608E-02  0.8296561E-01
         -2   -1    0    0    0  501 -0.00000000000E+00  0.00000000000E+00  0.10862516289E+04  0.10862516289E+04  0.00000000000E+00 0.  1.
          2   -1    0    0  501    0  0.00000000000E+00 -0.00000000000E+00 -0.18324547897E+04  0.18324547897E+04  0.00000000000E+00 0. -1.
         23    2    1    2    0    0  0.77736624586E+03 -0.10352438306E+04 -0.94967592724E+03  0.16081991750E+04  0.91608681483E+02 0.  0.
         11    1    3    3    0    0  0.18817138416E+03 -0.26414709803E+03 -0.28719036281E+03  0.43319794979E+03  0.00000000000E+00 0.  1.
        -11    1    3    3    0    0  0.58919486169E+03 -0.77109673259E+03 -0.66248556443E+03  0.11750012252E+04  0.00000000000E+00 0. -1.
         22    1    1    2    0    0 -0.77736624586E+03  0.10352438306E+04  0.20347276648E+03  0.13105072437E+04  0.00000000000E+00 0.  1.
<mgrwt>
<rscale>  0 0.28217066E+04</rscale>
<asrwt>0</asrwt>
<pdfrwt beam="1">  1        2 0.28191612E+00 0.28217066E+04</pdfrwt>
<pdfrwt beam="2">  1       -2 0.16711564E+00 0.28217066E+04</pdfrwt>
<totfact> 0.16073724E+00</totfact>
</mgrwt>
</event>
<event>
 6    1  0.1585031E-006  0.3253290E+04  0.7818608E-02  0.8174883E-01
         -1   -1    0    0    0  501 -0.00000000000E+00  0.00000000000E+00  0.11344580119E+04  0.11344580119E+04  0.00000000000E+00 0.  1.
          1   -1    0    0  501    0  0.00000000000E+00 -0.00000000000E+00 -0.23323683075E+04  0.23323683075E+04  0.00000000000E+00 0. -1.
         23    2    1    2    0    0  0.11515913182E+04 -0.44839281005E+03 -0.17244423261E+04  0.21235264068E+04  0.91893352831E+02 0.  0.
         13    1    3    3    0    0  0.36200437245E+03 -0.13728262371E+03 -0.46915835272E+03  0.60827891988E+03  0.00000000000E+00 0.  1.
        -13    1    3    3    0    0  0.78958694571E+03 -0.31111018634E+03 -0.12552839733E+04  0.15152474869E+04  0.00000000000E+00 0. -1.
         22    1    1    2    0    0 -0.11515913182E+04  0.44839281005E+03  0.52653203041E+03  0.13432999126E+04  0.00000000000E+00 0.  1.
<mgrwt>
<rscale>  0 0.32532900E+04</rscale>
<asrwt>0</asrwt>
<pdfrwt beam="1">  1        1 0.35882589E+00 0.32532900E+04</pdfrwt>
<pdfrwt beam="2">  1       -1 0.17453200E+00 0.32532900E+04</pdfrwt>
<totfact> 0.33571669E-01</totfact>
</mgrwt>
</event>
<event>
 6    1  0.1585031E-006  0.3274924E+04  0.7818608E-02  0.8169305E-01
          2   -1    0    0  501    0  0.00000000000E+00  0.00000000000E+00  0.13047137390E+04  0.13047137390E+04  0.00000000000E+00 0.  1.
         -2   -1    0    0    0  501 -0.00000000000E+00 -0.00000000000E+00 -0.20550729084E+04  0.20550729084E+04  0.00000000000E+00 0. -1.
         23    2    1    2    0    0  0.82162768542E+03 -0.12630284804E+04 -0.10299110599E+04  0.18273173148E+04  0.89770718381E+02 0.  0.
         13    1    3    3    0    0  0.45717191027E+02 -0.10437928732E+03 -0.60611295073E+02  0.12906907557E+03  0.00000000000E+00 0.  1.
        -13    1    3    3    0    0  0.77591049439E+03 -0.11586491930E+04 -0.96929976487E+03  0.16982482392E+04  0.00000000000E+00 0. -1.
         22    1    1    2    0    0 -0.82162768542E+03  0.12630284804E+04  0.27955189054E+03  0.15324693325E+04  0.00000000000E+00 0. -1.
<mgrwt>
<rscale>  0 0.32749240E+04</rscale>
<asrwt>0</asrwt>
<pdfrwt beam="1">  1        2 0.20072519E+00 0.32749240E+04</pdfrwt>
<pdfrwt beam="2">  1       -2 0.31616506E+00 0.32749240E+04</pdfrwt>
<totfact> 0.34755733E-01</totfact>
</mgrwt>
</event>
<event>
 6    1  0.1585031E-006  0.2525967E+04  0.7818608E-02  0.8393793E-01
         -2   -1    0    0    0  501 -0.00000000000E+00  0.00000000000E+00  0.75072681365E+03  0.75072681365E+03  0.00000000000E+00 0.  1.
          2   -1    0    0  501    0  0.00000000000E+00 -0.00000000000E+00 -0.21247766933E+04  0.21247766933E+04  0.00000000000E+00 0. -1.
         23    2    1    2    0    0 -0.10127880311E+04 -0.63870417810E+03 -0.11394975685E+04  0.16553816238E+04  0.90282825760E+02 0.  0.
         11    1    3    3    0    0 -0.69656933569E+03 -0.47522764321E+03 -0.76222646240E+03  0.11366790806E+04  0.00000000000E+00 0. -1.
        -11    1    3    3    0    0 -0.31621869543E+03 -0.16347653489E+03 -0.37727110615E+03  0.51870254321E+03  0.00000000000E+00 0.  1.
         22    1    1    2    0    0  0.10127880311E+04  0.63870417810E+03 -0.23455231113E+03  0.12201218832E+04  0.00000000000E+00 0.  1.
<mgrwt>
<rscale>  0 0.25259666E+04</rscale>
<asrwt>0</asrwt>
<pdfrwt beam="1">  1        2 0.32688871E+00 0.25259666E+04</pdfrwt>
<pdfrwt beam="2">  1       -2 0.11549644E+00 0.25259666E+04</pdfrwt>
<totfact> 0.29551123E+00</totfact>
</mgrwt>
</event>
<event>
 6    1  0.1585031E-006  0.2620984E+04  0.7818608E-02  0.8361108E-01
         -2   -1    0    0    0  501 -0.00000000000E+00  0.00000000000E+00  0.77975783638E+03  0.77975783638E+03  0.00000000000E+00 0.  1.
          2   -1    0    0  501    0  0.00000000000E+00 -0.00000000000E+00 -0.22024651214E+04  0.22024651214E+04  0.00000000000E+00 0. -1.
         23    2    1    2    0    0 -0.66532284027E+03 -0.43566248296E+03 -0.18949953881E+04  0.20572838608E+04  0.94620727876E+02 0.  0.
         11    1    3    3    0    0 -0.23306983841E+03 -0.12442603203E+03 -0.72863552413E+03  0.77505684568E+03  0.00000000000E+00 0. -1.
        -11    1    3    3    0    0 -0.43225300186E+03 -0.31123645093E+03 -0.11663598640E+04  0.12822270152E+04  0.00000000000E+00 0.  1.
         22    1    1    2    0    0  0.66532284027E+03  0.43566248296E+03  0.47228810307E+03  0.92493909700E+03  0.00000000000E+00 0.  1.
<mgrwt>
<rscale>  0 0.26209841E+04</rscale>
<asrwt>0</asrwt>
<pdfrwt beam="1">  1        2 0.33884079E+00 0.26209841E+04</pdfrwt>
<pdfrwt beam="2">  1       -2 0.11996274E+00 0.26209841E+04</pdfrwt>
<totfact> 0.24151838E+00</totfact>
</mgrwt>
</event>
<event>
 6    1  0.1585031E-006  0.1695649E+04  0.7818608E-02  0.8763850E-01
         -2   -1    0    0    0  501 -0.00000000000E+00  0.00000000000E+00  0.96745233958E+03  0.96745233958E+03  0.00000000000E+00 0.  1.
          2   -1    0    0  501    0  0.00000000000E+00 -0.00000000000E+00 -0.74298909283E+03  0.74298909283E+03  0.00000000000E+00 0. -1.
         23    2    1    2    0    0 -0.47835080722E+02  0.16580873240E+03 -0.72229417678E+03  0.74808476792E+03  0.90228662246E+02 0.  0.
         11    1    3    3    0    0 -0.54302057902E+02  0.37228757771E+02 -0.23047468156E+03  0.23969412328E+03  0.00000000000E+00 0. -1.
        -11    1    3    3    0    0  0.64669771808E+01  0.12857997463E+03 -0.49181949523E+03  0.50839064464E+03  0.00000000000E+00 0.  1.
         22    1    1    2    0    0  0.47835080722E+02 -0.16580873240E+03  0.94675742353E+03  0.96235666450E+03  0.00000000000E+00 0.  1.
<mgrwt>
<rscale>  0 0.16956492E+04</rscale>
<asrwt>0</asrwt>
<pdfrwt beam="1">  1        2 0.11430601E+00 0.16956492E+04</pdfrwt>
<pdfrwt beam="2">  1       -2 0.14883882E+00 0.16956492E+04</pdfrwt>
<totfact> 0.11046140E+01</totfact>
</mgrwt>
</event>
<event>
 6    1  0.1585031E-006  0.1235416E+04  0.7818608E-02  0.9082410E-01
          1   -1    0    0  501    0  0.00000000000E+00  0.00000000000E+00  0.26707414129E+03  0.26707414129E+03  0.00000000000E+00 0. -1.
         -1   -1    0    0    0  501 -0.00000000000E+00 -0.00000000000E+00 -0.14286782055E+04  0.14286782055E+04  0.00000000000E+00 0.  1.
         23    2    1    2    0    0 -0.79679514637E+02  0.23037792310E+03  0.18976230506E+03  0.32257578258E+03  0.92857905317E+02 0.  0.
         11    1    3    3    0    0 -0.71661402261E+02  0.11295258881E+03  0.57713417752E+02  0.14568624671E+03  0.00000000000E+00 0. -1.
        -11    1    3    3    0    0 -0.80181123757E+01  0.11742533429E+03  0.13204888731E+03  0.17688953586E+03  0.00000000000E+00 0.  1.
         22    1    1    2    0    0  0.79679514637E+02 -0.23037792310E+03 -0.13513663693E+04  0.13731765642E+04  0.00000000000E+00 0.  1.
<mgrwt>
<rscale>  0 0.12354157E+04</rscale>
<asrwt>0</asrwt>
<pdfrwt beam="1">  1        1 0.41088329E-01 0.12354157E+04</pdfrwt>
<pdfrwt beam="2">  1       -1 0.21979665E+00 0.12354157E+04</pdfrwt>
<totfact> 0.11128361E+01</totfact>
</mgrwt>
</event>
<event>
 6    1  0.1585031E-006  0.3065014E+04  0.7818608E-02  0.8225405E-01
         -1   -1    0    0    0  501 -0.00000000000E+00  0.00000000000E+00  0.75972766271E+03  0.75972766271E+03  0.00000000000E+00 0.  1.
          1   -1    0    0  501    0  0.00000000000E+00 -0.00000000000E+00 -0.30913425304E+04  0.30913425304E+04  0.00000000000E+00 0. -1.
         23    2    1    2    0    0 -0.14234698325E+04  0.34670309781E+03 -0.17256740075E+04  0.22656258616E+04  0.92953550165E+02 0.  0.
         13    1    3    3    0    0 -0.51633175402E+03  0.93092564809E+02 -0.66609197661E+03  0.84790519938E+03  0.00000000000E+00 0. -1.
        -13    1    3    3    0    0 -0.90713807852E+03  0.25361053300E+03 -0.10595820309E+04  0.14177206622E+04  0.00000000000E+00 0.  1.
         22    1    1    2    0    0  0.14234698325E+04 -0.34670309781E+03 -0.60594086017E+03  0.15854443315E+04  0.00000000000E+00 0.  1.
<mgrwt>
<rscale>  0 0.30650145E+04</rscale>
<asrwt>0</asrwt>
<pdfrwt beam="1">  1        1 0.47559116E+00 0.30650145E+04</pdfrwt>
<pdfrwt beam="2">  1       -1 0.11688118E+00 0.30650145E+04</pdfrwt>
<totfact> 0.28588020E-01</totfact>
</mgrwt>
</event>
<event>
 6    1  0.1769083E-006  0.4624046E+04  0.7818608E-02  0.7889273E-01
         -2   -1    0    0    0  501 -0.00000000000E+00  0.00000000000E+00  0.18244713735E+04  0.18244713735E+04  0.00000000000E+00 0.  1.
          2   -1    0    0  501    0  0.00000000000E+00 -0.00000000000E+00 -0.29298629102E+04  0.29298629102E+04  0.00000000000E+00 0. -1.
         23    2    1    2    0    0 -0.11573775354E+04  0.31816562287E+03  0.14776941835E+04  0.19059866995E+04  0.91940609036E+02 0.  0.
         13    1    3    3    0    0 -0.62055600933E+03  0.16719393710E+03  0.71847130508E+03  0.96397333445E+03  0.00000000000E+00 0.  1.
        -13    1    3    3    0    0 -0.53682152610E+03  0.15097168577E+03  0.75922287840E+03  0.94201336502E+03  0.00000000000E+00 0. -1.
         22    1    1    2    0    0  0.11573775354E+04 -0.31816562287E+03 -0.25830857202E+04  0.28483475843E+04  0.00000000000E+00 0. -1.
<mgrwt>
<rscale>  0 0.46240463E+04</rscale>
<asrwt>0</asrwt>
<pdfrwt beam="1">  1        2 0.45074814E+00 0.46240463E+04</pdfrwt>
<pdfrwt beam="2">  1       -2 0.28068790E+00 0.46240463E+04</pdfrwt>
<totfact> 0.60220720E-02</totfact>
</mgrwt>
</event>
<event>
 6    1  0.1585031E-006  0.2882042E+04  0.7818608E-02  0.8278241E-01
         -2   -1    0    0    0  501 -0.00000000000E+00  0.00000000000E+00  0.19365675689E+04  0.19365675689E+04  0.00000000000E+00 0.  1.
          2   -1    0    0  501    0  0.00000000000E+00 -0.00000000000E+00 -0.10722793936E+04  0.10722793936E+04  0.00000000000E+00 0. -1.
         23    2    1    2    0    0  0.78221135462E+03  0.15768486232E+03  0.16834775826E+04  0.18652603221E+04  0.91543316846E+02 0.  0.
         13    1    3    3    0    0  0.59119093239E+03  0.12214612772E+03  0.13591926554E+04  0.14872226026E+04  0.00000000000E+00 0.  1.
        -13    1    3    3    0    0  0.19102042223E+03  0.35538734595E+02  0.32428492723E+03  0.37803771953E+03  0.00000000000E+00 0. -1.
         22    1    1    2    0    0 -0.78221135462E+03 -0.15768486232E+03 -0.81918940736E+03  0.11435866405E+04  0.00000000000E+00 0. -1.
<mgrwt>
<rscale>  0 0.28820420E+04</rscale>
<asrwt>0</asrwt>
<pdfrwt beam="1">  1        2 0.16496606E+00 0.28820420E+04</pdfrwt>
<pdfrwt beam="2">  1       -2 0.29793347E+00 0.28820420E+04</pdfrwt>
<totfact> 0.64108636E-01</totfact>
</mgrwt>
</event>
<event>
 6    1  0.1585031E-006  0.1979178E+04  0.7818608E-02  0.8616418E-01
         -2   -1    0    0    0  501 -0.00000000000E+00  0.00000000000E+00  0.10803832060E+04  0.10803832060E+04  0.00000000000E+00 0.  1.
          2   -1    0    0  501    0  0.00000000000E+00 -0.00000000000E+00 -0.90642538112E+03  0.90642538112E+03  0.00000000000E+00 0. -1.
         23    2    1    2    0    0 -0.60319433451E+03  0.51176236817E+03  0.68048626864E+03  0.10474922449E+04  0.91838524344E+02 0.  0.
         13    1    3    3    0    0 -0.24008674613E+03  0.23303511697E+03  0.23597611762E+03  0.40942855237E+03  0.00000000000E+00 0. -1.
        -13    1    3    3    0    0 -0.36310758838E+03  0.27872725120E+03  0.44451015103E+03  0.63806369248E+03  0.00000000000E+00 0.  1.
         22    1    1    2    0    0  0.60319433451E+03 -0.51176236817E+03 -0.50652844371E+03  0.93931634232E+03  0.00000000000E+00 0. -1.
<mgrwt>
<rscale>  0 0.19791784E+04</rscale>
<asrwt>0</asrwt>
<pdfrwt beam="1">  1        2 0.13945006E+00 0.19791784E+04</pdfrwt>
<pdfrwt beam="2">  1       -2 0.16621280E+00 0.19791784E+04</pdfrwt>
<totfact> 0.61275744E+00</totfact>
</mgrwt>
</event>
<event>
 6    1  0.1585031E-006  0.2182256E+04  0.7818608E-02  0.8525850E-01
         -3   -1    0    0    0  501 -0.00000000000E+00  0.00000000000E+00  0.29843524007E+04  0.29843524007E+04  0.00000000000E+00 0.  1.
          3   -1    0    0  501    0  0.00000000000E+00 -0.00000000000E+00 -0.39893433206E+03  0.39893433206E+03  0.00000000000E+00 0. -1.
         23    2    1    2    0    0  0.20986243260E+03  0.10642740334E+04  0.11401839976E+04  0.15762385931E+04  0.88244518863E+02 0.  0.
         11    1    3    3    0    0  0.12864108812E+03  0.49598507609E+03  0.49147640761E+03  0.70999914401E+03  0.00000000000E+00 0. -1.
        -11    1    3    3    0    0  0.81221344485E+02  0.56828895736E+03  0.64870758995E+03  0.86623944907E+03  0.00000000000E+00 0.  1.
         22    1    1    2    0    0 -0.20986243260E+03 -0.10642740334E+04  0.14452340711E+04  0.18070481397E+04  0.00000000000E+00 0.  1.
<mgrwt>
<rscale>  0 0.21822563E+04</rscale>
<asrwt>0</asrwt>
<pdfrwt beam="1">  1        3 0.61374515E-01 0.21822563E+04</pdfrwt>
<pdfrwt beam="2">  1       -3 0.45913112E+00 0.21822563E+04</pdfrwt>
<totfact> 0.31153189E-02</totfact>
</mgrwt>
</event>
<event>
 6    1  0.1585031E-006  0.2195046E+04  0.7818608E-02  0.8520493E-01
          2   -1    0    0  501    0  0.00000000000E+00  0.00000000000E+00  0.17619112769E+04  0.17619112769E+04  0.00000000000E+00 0. -1.
         -2   -1    0    0    0  501 -0.00000000000E+00 -0.00000000000E+00 -0.68366508773E+03  0.68366508773E+03  0.00000000000E+00 0.  1.
         23    2    1    2    0    0 -0.74652998148E+03  0.53959886453E+03  0.12008340636E+04  0.15163284242E+04  0.93677605686E+02 0.  0.
         13    1    3    3    0    0 -0.51245916347E+03  0.33038865581E+03  0.84135933436E+03  0.10390652471E+04  0.00000000000E+00 0.  1.
        -13    1    3    3    0    0 -0.23407081801E+03  0.20921020872E+03  0.35947472923E+03  0.47726317711E+03  0.00000000000E+00 0. -1.
         22    1    1    2    0    0  0.74652998148E+03 -0.53959886453E+03 -0.12258787445E+03  0.92924794044E+03  0.00000000000E+00 0.  1.
<mgrwt>
<rscale>  0 0.21950464E+04</rscale>
<asrwt>0</asrwt>
<pdfrwt beam="1">  1        2 0.27106327E+00 0.21950464E+04</pdfrwt>
<pdfrwt beam="2">  1       -2 0.10517924E+00 0.21950464E+04</pdfrwt>
<totfact> 0.60648425E+00</totfact>
</mgrwt>
</event>
<event>
 6    1  0.1585031E-006  0.2879041E+04  0.7818608E-02  0.8279141E-01
         -2   -1    0    0    0  501 -0.00000000000E+00  0.00000000000E+00  0.13376127062E+04  0.13376127062E+04  0.00000000000E+00 0.  1.
          2   -1    0    0  501    0  0.00000000000E+00 -0.00000000000E+00 -0.15491926289E+04  0.15491926289E+04  0.00000000000E+00 0. -1.
         23    2    1    2    0    0 -0.12888989802E+04 -0.60963635435E+03  0.80748128120E+02  0.14313422627E+04  0.96453861014E+02 0.  0.
         13    1    3    3    0    0 -0.99217693363E+03 -0.42898188376E+03  0.41482963296E+02  0.10817399690E+04  0.00000000000E+00 0.  1.
        -13    1    3    3    0    0 -0.29672204654E+03 -0.18065447059E+03  0.39265164824E+02  0.34960229378E+03  0.00000000000E+00 0. -1.
         22    1    1    2    0    0  0.12888989802E+04  0.60963635435E+03 -0.29232805077E+03  0.14554630723E+04  0.00000000000E+00 0.  1.
<mgrwt>
<rscale>  0 0.28790413E+04</rscale>
<asrwt>0</asrwt>
<pdfrwt beam="1">  1        2 0.23833733E+00 0.28790413E+04</pdfrwt>
<pdfrwt beam="2">  1       -2 0.20578657E+00 0.28790413E+04</pdfrwt>
<totfact> 0.12553267E+00</totfact>
</mgrwt>
</event>
<event>
 6    1  0.1585031E-006  0.2171200E+04  0.7818608E-02  0.8530512E-01
         -2   -1    0    0    0  501 -0.00000000000E+00  0.00000000000E+00  0.16330061829E+04  0.16330061829E+04  0.00000000000E+00 0.  1.
          2   -1    0    0  501    0  0.00000000000E+00 -0.00000000000E+00 -0.72169198117E+03  0.72169198117E+03  0.00000000000E+00 0. -1.
         23    2    1    2    0    0 -0.65273852504E+02  0.10675583115E+04  0.26755828663E+03  0.11063540198E+04  0.92143129004E+02 0.  0.
         13    1    3    3    0    0 -0.21274986537E+02  0.27250289027E+03  0.11004222641E+03  0.29465189946E+03  0.00000000000E+00 0. -1.
        -13    1    3    3    0    0 -0.43998865967E+02  0.79505542119E+03  0.15751606022E+03  0.81170212036E+03  0.00000000000E+00 0.  1.
         22    1    1    2    0    0  0.65273852504E+02 -0.10675583115E+04  0.64375591507E+03  0.12483441442E+04  0.00000000000E+00 0.  1.
<mgrwt>
<rscale>  0 0.21712001E+04</rscale>
<asrwt>0</asrwt>
<pdfrwt beam="1">  1        2 0.11102954E+00 0.21712001E+04</pdfrwt>
<pdfrwt beam="2">  1       -2 0.25123172E+00 0.21712001E+04</pdfrwt>
<totfact> 0.22797081E+00</totfact>
</mgrwt>
</event>
<event>
 6    1  0.1585031E-006  0.2826600E+04  0.7818608E-02  0.8295057E-01
         -2   -1    0    0    0  501 -0.00000000000E+00  0.00000000000E+00  0.15909790186E+04  0.15909790186E+04  0.00000000000E+00 0.  1.
          2   -1    0    0  501    0  0.00000000000E+00 -0.00000000000E+00 -0.12554638809E+04  0.12554638809E+04  0.00000000000E+00 0. -1.
         23    2    1    2    0    0 -0.51777709038E+03  0.47007695788E+03 -0.10671225864E+04  0.12791337256E+04  0.91471372966E+02 0.  0.
         13    1    3    3    0    0 -0.14363737572E+03  0.12301829684E+03 -0.36575265652E+03  0.41175259904E+03  0.00000000000E+00 0. -1.
        -13    1    3    3    0    0 -0.37413971466E+03  0.34705866104E+03 -0.70136992985E+03  0.86738112660E+03  0.00000000000E+00 0.  1.
         22    1    1    2    0    0  0.51777709038E+03 -0.47007695788E+03  0.14026377240E+04  0.15673091739E+04  0.00000000000E+00 0.  1.
<mgrwt>
<rscale>  0 0.28265999E+04</rscale>
<asrwt>0</asrwt>
<pdfrwt beam="1">  1        2 0.19314829E+00 0.28265999E+04</pdfrwt>
<pdfrwt beam="2">  1       -2 0.24476600E+00 0.28265999E+04</pdfrwt>
<totfact> 0.10551298E+00</totfact>
</mgrwt>
</event>
<event>
 6    1  0.1585031E-006  0.2812657E+04  0.7818608E-02  0.8299350E-01
          2   -1    0    0  501    0  0.00000000000E+00  0.00000000000E+00  0.30395082462E+04  0.30395082462E+04  0.00000000000E+00 0.  1.
         -2   -1    0    0    0  501 -0.00000000000E+00 -0.00000000000E+00 -0.65068414895E+03  0.65068414895E+03  0.00000000000E+00 0. -1.
         23    2    1    2    0    0  0.12612644980E+04 -0.21988108550E+03  0.43712216322E+03  0.13560381019E+04  0.92885534472E+02 0.  0.
         13    1    3    3    0    0  0.56473686142E+03 -0.96217582910E+02  0.24444858595E+03  0.62284882362E+03  0.00000000000E+00 0. -1.
        -13    1    3    3    0    0  0.69652763654E+03 -0.12366350259E+03  0.19267357727E+03  0.73318927823E+03  0.00000000000E+00 0.  1.
         22    1    1    2    0    0 -0.12612644980E+04  0.21988108550E+03  0.19517019341E+04  0.23341542933E+04  0.00000000000E+00 0. -1.
<mgrwt>
<rscale>  0 0.28126570E+04</rscale>
<asrwt>0</asrwt>
<pdfrwt beam="1">  1        2 0.46761664E+00 0.28126570E+04</pdfrwt>
<pdfrwt beam="2">  1       -2 0.10010526E+00 0.28126570E+04</pdfrwt>
<totfact> 0.11771299E+00</totfact>
</mgrwt>
</event>
<event>
 6    1  0.1585031E-006  0.9068449E+03  0.7818608E-02  0.9417065E-01
         -1   -1    0    0    0  501 -0.00000000000E+00  0.00000000000E+00  0.10988583725E+04  0.10988583725E+04  0.00000000000E+00 0.  1.
          1   -1    0    0  501    0  0.00000000000E+00 -0.00000000000E+00 -0.18709593295E+03  0.18709593295E+03  0.00000000000E+00 0. -1.
         23    2    1    2    0    0  0.17075656010E+03 -0.17341899429E+03 -0.79950188734E+02  0.26481480103E+03  0.67103619615E+02 0.  0.
         11    1    3    3    0    0  0.92886672668E+02 -0.13204691084E+03 -0.32510118918E+02  0.16468524055E+03  0.00000000000E+00 0. -1.
        -11    1    3    3    0    0  0.77869887435E+02 -0.41372083454E+02 -0.47440069816E+02  0.10012956048E+03  0.00000000000E+00 0.  1.
         22    1    1    2    0    0 -0.17075656010E+03  0.17341899429E+03  0.99171262826E+03  0.10211395044E+04  0.00000000000E+00 0.  1.
<mgrwt>
<rscale>  0 0.90684493E+03</rscale>
<asrwt>0</asrwt>
<pdfrwt beam="1">  1        1 0.28783990E-01 0.90684493E+03</pdfrwt>
<pdfrwt beam="2">  1       -1 0.16905513E+00 0.90684493E+03</pdfrwt>
<totfact> 0.40964293E+01</totfact>
</mgrwt>
</event>
<event>
 6    1  0.1585031E-006  0.4181935E+04  0.7818608E-02  0.7968818E-01
          1   -1    0    0  501    0  0.00000000000E+00  0.00000000000E+00  0.23801089208E+04  0.23801089208E+04  0.00000000000E+00 0. -1.
         -1   -1    0    0    0  501 -0.00000000000E+00 -0.00000000000E+00 -0.18369512737E+04  0.18369512737E+04  0.00000000000E+00 0.  1.
         23    2    1    2    0    0  0.71305402957E+03  0.13481205521E+04  0.17127579499E+04  0.22951236867E+04  0.90431577790E+02 0.  0.
         13    1    3    3    0    0  0.55153858933E+03  0.10071486653E+04  0.12348968416E+04  0.16862720596E+04  0.00000000000E+00 0.  1.
        -13    1    3    3    0    0  0.16151544024E+03  0.34097188673E+03  0.47786110830E+03  0.60885162708E+03  0.00000000000E+00 0. -1.
         22    1    1    2    0    0 -0.71305402957E+03 -0.13481205521E+04 -0.11696003028E+04  0.19219365079E+04  0.00000000000E+00 0.  1.
<mgrwt>
<rscale>  0 0.41819345E+04</rscale>
<asrwt>0</asrwt>
<pdfrwt beam="1">  1        1 0.36617061E+00 0.41819345E+04</pdfrwt>
<pdfrwt beam="2">  1       -1 0.28260789E+00 0.41819345E+04</pdfrwt>
<totfact> 0.54130293E-02</totfact>
</mgrwt>
</event>
<event>
 6    1  0.1602295E-006  0.3173684E+04  0.7818608E-02  0.8195802E-01
          2   -1    0    0  501    0  0.00000000000E+00  0.00000000000E+00  0.28799504259E+04  0.28799504259E+04  0.00000000000E+00 0. -1.
         -2   -1    0    0    0  501 -0.00000000000E+00 -0.00000000000E+00 -0.87434420455E+03  0.87434420455E+03  0.00000000000E+00 0.  1.
         23    2    1    2    0    0 -0.11333036826E+04 -0.10770566228E+04  0.69108327250E+03  0.17116495833E+04  0.87863533648E+02 0.  0.
         11    1    3    3    0    0 -0.76870057552E+03 -0.68096065297E+03  0.47648748378E+03  0.11320990716E+04  0.00000000000E+00 0.  1.
        -11    1    3    3    0    0 -0.36460310708E+03 -0.39609596986E+03  0.21459578872E+03  0.57955051166E+03  0.00000000000E+00 0. -1.
         22    1    1    2    0    0  0.11333036826E+04  0.10770566228E+04  0.13145229489E+04  0.20426450472E+04  0.00000000000E+00 0. -1.
<mgrwt>
<rscale>  0 0.31736843E+04</rscale>
<asrwt>0</asrwt>
<pdfrwt beam="1">  1        2 0.44306929E+00 0.31736843E+04</pdfrwt>
<pdfrwt beam="2">  1       -2 0.13451449E+00 0.31736843E+04</pdfrwt>
<totfact> 0.69410236E-01</totfact>
</mgrwt>
</event>
<event>
 6    1  0.1585031E-006  0.1727866E+04  0.7818608E-02  0.8745629E-01
         -2   -1    0    0    0  501 -0.00000000000E+00  0.00000000000E+00  0.40059393237E+03  0.40059393237E+03  0.00000000000E+00 0. -1.
          2   -1    0    0  501    0  0.00000000000E+00 -0.00000000000E+00 -0.18631847022E+04  0.18631847022E+04  0.00000000000E+00 0.  1.
         23    2    1    2    0    0 -0.29781830461E+03  0.15578542536E+03  0.30591171688E+03  0.46362145065E+03  0.91640764207E+02 0.  0.
         11    1    3    3    0    0 -0.11001489171E+03  0.79081098756E+02  0.17837895614E+03  0.22400033164E+03  0.00000000000E+00 0.  1.
        -11    1    3    3    0    0 -0.18780341290E+03  0.76704326600E+02  0.12753276074E+03  0.23962111902E+03  0.00000000000E+00 0. -1.
         22    1    1    2    0    0  0.29781830461E+03 -0.15578542536E+03 -0.17685024867E+04  0.18001571839E+04  0.00000000000E+00 0.  1.
<mgrwt>
<rscale>  0 0.17278663E+04</rscale>
<asrwt>0</asrwt>
<pdfrwt beam="1">  1        2 0.28664380E+00 0.17278663E+04</pdfrwt>
<pdfrwt beam="2">  1       -2 0.61629836E-01 0.17278663E+04</pdfrwt>
<totfact> 0.18488926E+01</totfact>
</mgrwt>
</event>
<event>
 6    1  0.1585031E-006  0.2902049E+04  0.7818608E-02  0.8272268E-01
         -2   -1    0    0    0  501 -0.00000000000E+00  0.00000000000E+00  0.11538247700E+04  0.11538247700E+04  0.00000000000E+00 0.  1.
          2   -1    0    0  501    0  0.00000000000E+00 -0.00000000000E+00 -0.18247768457E+04  0.18247768457E+04  0.00000000000E+00 0. -1.
         23    2    1    2    0    0  0.63105026333E+03 -0.25207346500E+03  0.97834706587E+03  0.11947986207E+04  0.92818619419E+02 0.  0.
         11    1    3    3    0    0  0.24341783895E+03 -0.49234370710E+02  0.35471411848E+03  0.43301082369E+03  0.00000000000E+00 0. -1.
        -11    1    3    3    0    0  0.38763242437E+03 -0.20283909429E+03  0.62363294739E+03  0.76178779701E+03  0.00000000000E+00 0.  1.
         22    1    1    2    0    0 -0.63105026333E+03  0.25207346500E+03 -0.16492991416E+04  0.17838029950E+04  0.00000000000E+00 0. -1.
<mgrwt>
<rscale>  0 0.29020494E+04</rscale>
<asrwt>0</asrwt>
<pdfrwt beam="1">  1        2 0.28073490E+00 0.29020494E+04</pdfrwt>
<pdfrwt beam="2">  1       -2 0.17751150E+00 0.29020494E+04</pdfrwt>
<totfact> 0.13613269E+00</totfact>
</mgrwt>
</event>
<event>
 6    1  0.1585031E-006  0.2052506E+04  0.7818608E-02  0.8582458E-01
         -2   -1    0    0    0  501 -0.00000000000E+00  0.00000000000E+00  0.87646114282E+03  0.87646114282E+03  0.00000000000E+00 0.  1.
          2   -1    0    0  501    0  0.00000000000E+00 -0.00000000000E+00 -0.12016454169E+04  0.12016454169E+04  0.00000000000E+00 0. -1.
         23    2    1    2    0    0 -0.26860403896E+03 -0.91390490735E+03 -0.54455555594E+03  0.11006127906E+04  0.86240662590E+02 0.  0.
         13    1    3    3    0    0 -0.16579052100E+03 -0.69409879127E+03 -0.39733397582E+03  0.81678266218E+03  0.00000000000E+00 0.  1.
        -13    1    3    3    0    0 -0.10281351796E+03 -0.21980611608E+03 -0.14722158012E+03  0.28383012841E+03  0.00000000000E+00 0. -1.
         22    1    1    2    0    0  0.26860403896E+03  0.91390490735E+03  0.21937128185E+03  0.97749376915E+03  0.00000000000E+00 0.  1.
<mgrwt>
<rscale>  0 0.20525063E+04</rscale>
<asrwt>0</asrwt>
<pdfrwt beam="1">  1        2 0.18486853E+00 0.20525063E+04</pdfrwt>
<pdfrwt beam="2">  1       -2 0.13484017E+00 0.20525063E+04</pdfrwt>
<totfact> 0.69190055E+00</totfact>
</mgrwt>
</event>
<event>
 6    1  0.1585031E-006  0.2292652E+04  0.7818608E-02  0.8480824E-01
          2   -1    0    0  501    0  0.00000000000E+00  0.00000000000E+00  0.97588163478E+03  0.97588163478E+03  0.00000000000E+00 0.  1.
         -2   -1    0    0    0  501 -0.00000000000E+00 -0.00000000000E+00 -0.13465390609E+04  0.13465390609E+04  0.00000000000E+00 0. -1.
         23    2    1    2    0    0  0.16417421403E+03 -0.70543818138E+03  0.71199309349E+03  0.10198354401E+04  0.92379432106E+02 0.  0.
         11    1    3    3    0    0 -0.81839110333E+01 -0.99995043895E+02  0.87556944124E+02  0.13316232075E+03  0.00000000000E+00 0.  1.
        -11    1    3    3    0    0  0.17235812507E+03 -0.60544313748E+03  0.62443614937E+03  0.88667311939E+03  0.00000000000E+00 0. -1.
         22    1    1    2    0    0 -0.16417421403E+03  0.70543818138E+03 -0.10826505196E+04  0.13025852555E+04  0.00000000000E+00 0. -1.
<mgrwt>
<rscale>  0 0.22926515E+04</rscale>
<asrwt>0</asrwt>
<pdfrwt beam="1">  1        2 0.15013564E+00 0.22926515E+04</pdfrwt>
<pdfrwt beam="2">  1       -2 0.20715986E+00 0.22926515E+04</pdfrwt>
<totfact> 0.28284807E+00</totfact>
</mgrwt>
</event>
<event>
 6    1  0.1585031E-006  0.2642482E+04  0.7818608E-02  0.8353913E-01
         -2   -1    0    0    0  501 -0.00000000000E+00  0.00000000000E+00  0.59660025064E+03  0.59660025064E+03  0.00000000000E+00 0.  1.
          2   -1    0    0  501    0  0.00000000000E+00 -0.00000000000E+00 -0.29260422505E+04  0.29260422505E+04  0.00000000000E+00 0. -1.
         23    2    1    2    0    0 -0.19859449533E+03 -0.12635315228E+04 -0.15994954576E+04  0.20499668284E+04  0.89591270870E+02 0.  0.
         13    1    3    3    0    0 -0.10193401735E+03 -0.88573617228E+03 -0.11420396781E+04  0.14488525588E+04  0.00000000000E+00 0. -1.
        -13    1    3    3    0    0 -0.96660477974E+02 -0.37779535049E+03 -0.45745577953E+03  0.60111426957E+03  0.00000000000E+00 0.  1.
         22    1    1    2    0    0  0.19859449533E+03  0.12635315228E+04 -0.72994654219E+03  0.14726756727E+04  0.00000000000E+00 0. -1.
<mgrwt>
<rscale>  0 0.26424818E+04</rscale>
<asrwt>0</asrwt>
<pdfrwt beam="1">  1        2 0.45016035E+00 0.26424818E+04</pdfrwt>
<pdfrwt beam="2">  1       -2 0.91784653E-01 0.26424818E+04</pdfrwt>
<totfact> 0.17229838E+00</totfact>
</mgrwt>
</event>
<event>
 6    1  0.1585031E-006  0.1924103E+04  0.7818608E-02  0.8642951E-01
          1   -1    0    0  501    0  0.00000000000E+00  0.00000000000E+00  0.12135106016E+04  0.12135106016E+04  0.00000000000E+00 0. -1.
         -1   -1    0    0    0  501 -0.00000000000E+00 -0.00000000000E+00 -0.76269907484E+03  0.76269907484E+03  0.00000000000E+00 0.  1.
         23    2    1    2    0    0  0.47886760505E+03  0.73005462546E+03 -0.18383902009E+03  0.89682315813E+03  0.90559661775E+02 0.  0.
         11    1    3    3    0    0  0.18714507917E+03  0.34283869759E+03 -0.11488539690E+03  0.40713671862E+03  0.00000000000E+00 0.  1.
        -11    1    3    3    0    0  0.29172252588E+03  0.38721592786E+03 -0.68953623191E+02  0.48968643952E+03  0.00000000000E+00 0. -1.
         22    1    1    2    0    0 -0.47886760505E+03 -0.73005462546E+03  0.63465054687E+03  0.10793865183E+04  0.00000000000E+00 0. -1.
<mgrwt>
<rscale>  0 0.19241033E+04</rscale>
<asrwt>0</asrwt>
<pdfrwt beam="1">  1        1 0.18669394E+00 0.19241033E+04</pdfrwt>
<pdfrwt beam="2">  1       -1 0.11733832E+00 0.19241033E+04</pdfrwt>
<totfact> 0.63778328E+00</totfact>
</mgrwt>
</event>
<event>
 6    1  0.1585031E-006  0.5916969E+03  0.7818608E-02  0.9922784E-01
         -1   -1    0    0    0  501 -0.00000000000E+00  0.00000000000E+00  0.16488815068E+03  0.16488815068E+03  0.00000000000E+00 0.  1.
          1   -1    0    0  501    0  0.00000000000E+00 -0.00000000000E+00 -0.53082229613E+03  0.53082229613E+03  0.00000000000E+00 0. -1.
         23    2    1    2    0    0 -0.59493694509E+02  0.15450634148E+03  0.91467111154E+02  0.20926659723E+03  0.89524114359E+02 0.  0.
         13    1    3    3    0    0 -0.41765498741E+02  0.13531370745E+03  0.10822001701E+03  0.17822942628E+03  0.00000000000E+00 0. -1.
        -13    1    3    3    0    0 -0.17728195768E+02  0.19192634027E+02 -0.16752905861E+02  0.31037170954E+02  0.00000000000E+00 0.  1.
         22    1    1    2    0    0  0.59493694509E+02 -0.15450634148E+03 -0.45740125660E+03  0.48644384957E+03  0.00000000000E+00 0.  1.
<mgrwt>
<rscale>  0 0.59169690E+03</rscale>
<asrwt>0</asrwt>
<pdfrwt beam="1">  1        1 0.81664969E-01 0.59169690E+03</pdfrwt>
<pdfrwt beam="2">  1       -1 0.25367408E-01 0.59169690E+03</pdfrwt>
<totfact> 0.56235339E+02</totfact>
</mgrwt>
</event>
<event>
 6    1  0.1585031E-006  0.3625694E+04  0.7818608E-02  0.8084631E-01
          1   -1    0    0  501    0  0.00000000000E+00  0.00000000000E+00  0.21713377124E+04  0.21713377124E+04  0.00000000000E+00 0. -1.
         -1   -1    0    0    0  501 -0.00000000000E+00 -0.00000000000E+00 -0.15135439628E+04  0.15135439628E+04  0.00000000000E+00 0.  1.
         23    2    1    2    0    0 -0.17438530085E+03  0.42367639727E+03  0.21110822920E+04  0.21610839491E+04  0.60856128777E+02 0.  0.
         11    1    3    3    0    0 -0.10074729052E+03  0.17031112715E+03  0.95260141692E+03  0.97293646046E+03  0.00000000000E+00 0. -1.
        -11    1    3    3    0    0 -0.73638010326E+02  0.25336527011E+03  0.11584808751E+04  0.11881474886E+04  0.00000000000E+00 0.  1.
         22    1    1    2    0    0  0.17438530085E+03 -0.42367639727E+03 -0.14532885424E+04  0.15237977262E+04  0.00000000000E+00 0.  1.
<mgrwt>
<rscale>  0 0.36256945E+04</rscale>
<asrwt>0</asrwt>
<pdfrwt beam="1">  1        1 0.33405195E+00 0.36256945E+04</pdfrwt>
<pdfrwt beam="2">  1       -1 0.23285292E+00 0.36256945E+04</pdfrwt>
<totfact> 0.16627013E-01</totfact>
</mgrwt>
</event>
<event>
 6    1  0.1585031E-006  0.2099059E+04  0.7818608E-02  0.8561658E-01
          1   -1    0    0  501    0  0.00000000000E+00  0.00000000000E+00  0.76717369876E+03  0.76717369876E+03  0.00000000000E+00 0. -1.
         -1   -1    0    0    0  501 -0.00000000000E+00 -0.00000000000E+00 -0.14358050444E+04  0.14358050444E+04  0.00000000000E+00 0.  1.
         23    2    1    2    0    0 -0.99905688209E+03 -0.63608550697E+02 -0.11125361671E+02  0.10052831139E+04  0.91157358667E+02 0.  0.
         11    1    3    3    0    0 -0.21061127940E+03 -0.36129383971E+02 -0.32069936006E+02  0.21608082792E+03  0.00000000000E+00 0.  1.
        -11    1    3    3    0    0 -0.78844560268E+03 -0.27479166725E+02  0.20944574335E+02  0.78920228598E+03  0.00000000000E+00 0. -1.
         22    1    1    2    0    0  0.99905688209E+03  0.63608550697E+02 -0.65750598394E+03  0.11976956292E+04  0.00000000000E+00 0.  1.
<mgrwt>
<rscale>  0 0.20990587E+04</rscale>
<asrwt>0</asrwt>
<pdfrwt beam="1">  1        1 0.11802672E+00 0.20990587E+04</pdfrwt>
<pdfrwt beam="2">  1       -1 0.22089308E+00 0.20990587E+04</pdfrwt>
<totfact> 0.23594800E+00</totfact>
</mgrwt>
</event>
<event>
 6    1  0.1585031E-006  0.5081974E+04  0.7818608E-02  0.7815985E-01
         -1   -1    0    0    0  501 -0.00000000000E+00  0.00000000000E+00  0.29237987889E+04  0.29237987889E+04  0.00000000000E+00 0.  1.
          1   -1    0    0  501    0  0.00000000000E+00 -0.00000000000E+00 -0.22082967766E+04  0.22082967766E+04  0.00000000000E+00 0. -1.
         23    2    1    2    0    0 -0.22655988895E+04 -0.10062937688E+04  0.91728769130E+03  0.26448716235E+04  0.91453368021E+02 0.  0.
         11    1    3    3    0    0 -0.21458792737E+04 -0.96265454034E+03  0.88915195972E+03  0.25143772248E+04  0.00000000000E+00 0. -1.
        -11    1    3    3    0    0 -0.11971961584E+03 -0.43639228496E+02  0.28135731582E+02  0.13049439863E+03  0.00000000000E+00 0.  1.
         22    1    1    2    0    0  0.22655988895E+04  0.10062937688E+04 -0.20178567900E+03  0.24872239420E+04  0.00000000000E+00 0.  1.
<mgrwt>
<rscale>  0 0.50819742E+04</rscale>
<asrwt>0</asrwt>
<pdfrwt beam="1">  1        1 0.33973796E+00 0.50819742E+04</pdfrwt>
<pdfrwt beam="2">  1       -1 0.44981520E+00 0.50819742E+04</pdfrwt>
<totfact> 0.50180168E-03</totfact>
</mgrwt>
</event>
<event>
 6    1  0.1585031E-006  0.2397618E+04  0.7818608E-02  0.8440396E-01
         -2   -1    0    0    0  501 -0.00000000000E+00  0.00000000000E+00  0.60911164674E+03  0.60911164674E+03  0.00000000000E+00 0.  1.
          2   -1    0    0  501    0  0.00000000000E+00 -0.00000000000E+00 -0.23594081386E+04  0.23594081386E+04  0.00000000000E+00 0. -1.
         23    2    1    2    0    0 -0.48015160217E+03 -0.19137502070E+03  0.46039282507E+03  0.69820764478E+03  0.91446171229E+02 0.  0.
         11    1    3    3    0    0 -0.42412949838E+02 -0.41397165157E+02  0.30703686124E+02  0.66748033219E+02  0.00000000000E+00 0. -1.
        -11    1    3    3    0    0 -0.43773865234E+03 -0.14997785554E+03  0.42968913895E+03  0.63145961156E+03  0.00000000000E+00 0.  1.
         22    1    1    2    0    0  0.48015160217E+03  0.19137502070E+03 -0.22106893170E+04  0.22703121406E+04  0.00000000000E+00 0. -1.
<mgrwt>
<rscale>  0 0.23976180E+04</rscale>
<asrwt>0</asrwt>
<pdfrwt beam="1">  1        2 0.36298587E+00 0.23976180E+04</pdfrwt>
<pdfrwt beam="2">  1       -2 0.93709483E-01 0.23976180E+04</pdfrwt>
<totfact> 0.36291442E+00</totfact>
</mgrwt>
</event>
<event>
 6    1  0.1585031E-006  0.1434357E+04  0.7818608E-02  0.8929318E-01
          1   -1    0    0  501    0  0.00000000000E+00  0.00000000000E+00  0.54990523595E+03  0.54990523595E+03  0.00000000000E+00 0. -1.
         -1   -1    0    0    0  501 -0.00000000000E+00 -0.00000000000E+00 -0.93533398777E+03  0.93533398777E+03  0.00000000000E+00 0.  1.
         23    2    1    2    0    0  0.37575773859E+03 -0.54704442911E+03  0.80660141218E+02  0.67425812546E+03  0.87558413851E+02 0.  0.
         11    1    3    3    0    0  0.94658537117E+02 -0.12720506203E+03  0.56848054034E+02  0.16844306962E+03  0.00000000000E+00 0. -1.
        -11    1    3    3    0    0  0.28109920147E+03 -0.41983936708E+03  0.23812087184E+02  0.50581505584E+03  0.00000000000E+00 0.  1.
         22    1    1    2    0    0 -0.37575773859E+03  0.54704442911E+03 -0.46608889304E+03  0.81098109827E+03  0.00000000000E+00 0.  1.
<mgrwt>
<rscale>  0 0.14343571E+04</rscale>
<asrwt>0</asrwt>
<pdfrwt beam="1">  1        1 0.84600806E-01 0.14343571E+04</pdfrwt>
<pdfrwt beam="2">  1       -1 0.14389754E+00 0.14343571E+04</pdfrwt>
<totfact> 0.14713298E+01</totfact>
</mgrwt>
</event>
<event>
 6    1  0.1585031E-006  0.3766440E+04  0.7818608E-02  0.8053395E-01
         -2   -1    0    0    0  501 -0.00000000000E+00  0.00000000000E+00  0.10809848760E+04  0.10809848760E+04  0.00000000000E+00 0. -1.
          2   -1    0    0  501    0  0.00000000000E+00 -0.00000000000E+00 -0.32808212217E+04  0.32808212217E+04  0.00000000000E+00 0.  1.
         23    2    1    2    0    0  0.60997982424E+03  0.17020489797E+04 -0.17062443339E+04  0.24875918119E+04  0.88301643775E+02 0.  0.
         11    1    3    3    0    0  0.48921348065E+03  0.13705068090E+04 -0.14200858854E+04  0.20332886331E+04  0.00000000000E+00 0.  1.
        -11    1    3    3    0    0  0.12076634359E+03  0.33154217063E+03 -0.28615844847E+03  0.45430317881E+03  0.00000000000E+00 0. -1.
         22    1    1    2    0    0 -0.60997982424E+03 -0.17020489797E+04 -0.49359201185E+03  0.18742142859E+04  0.00000000000E+00 0. -1.
<mgrwt>
<rscale>  0 0.37664403E+04</rscale>
<asrwt>0</asrwt>
<pdfrwt beam="1">  1        2 0.50474172E+00 0.37664403E+04</pdfrwt>
<pdfrwt beam="2">  1       -2 0.16630537E+00 0.37664403E+04</pdfrwt>
<totfact> 0.20867956E-01</totfact>
</mgrwt>
</event>
<event>
 6    1  0.1585031E-006  0.3142947E+04  0.7818608E-02  0.8204049E-01
         -2   -1    0    0    0  501 -0.00000000000E+00  0.00000000000E+00  0.12000657819E+04  0.12000657819E+04  0.00000000000E+00 0. -1.
          2   -1    0    0  501    0  0.00000000000E+00 -0.00000000000E+00 -0.20578278781E+04  0.20578278781E+04  0.00000000000E+00 0.  1.
         23    2    1    2    0    0 -0.12800587544E+04  0.72339223369E+03 -0.10004321387E+04  0.17806660271E+04  0.89779159096E+02 0.  0.
         13    1    3    3    0    0 -0.11407475739E+04  0.61425502705E+03 -0.86522446016E+03  0.15579562356E+04  0.00000000000E+00 0.  1.
        -13    1    3    3    0    0 -0.13931118049E+03  0.10913720664E+03 -0.13520767851E+03  0.22270979146E+03  0.00000000000E+00 0. -1.
         22    1    1    2    0    0  0.12800587544E+04 -0.72339223369E+03  0.14267004243E+03  0.14772276329E+04  0.00000000000E+00 0. -1.
<mgrwt>
<rscale>  0 0.31429469E+04</rscale>
<asrwt>0</asrwt>
<pdfrwt beam="1">  1        2 0.31658890E+00 0.31429469E+04</pdfrwt>
<pdfrwt beam="2">  1       -2 0.18462551E+00 0.31429469E+04</pdfrwt>
<totfact> 0.88458745E-01</totfact>
</mgrwt>
</event>
<event>
 6    1  0.1585031E-006  0.1308114E+04  0.7818608E-02  0.9023155E-01
          2   -1    0    0  501    0  0.00000000000E+00  0.00000000000E+00  0.10460711538E+04  0.10460711538E+04  0.00000000000E+00 0. -1.
         -2   -1    0    0    0  501 -0.00000000000E+00 -0.00000000000E+00 -0.40894983837E+03  0.40894983837E+03  0.00000000000E+00 0.  1.
         23    2    1    2    0    0 -0.40423572300E+03  0.30043202603E+03  0.78128319417E+03  0.93114260050E+03  0.54380060313E+02 0.  0.
         13    1    3    3    0    0 -0.33386272972E+03  0.22630864046E+03  0.59845647641E+03  0.72168558057E+03  0.00000000000E+00 0.  1.
        -13    1    3    3    0    0 -0.70372993272E+02  0.74123385570E+02  0.18282671776E+03  0.20945701992E+03  0.00000000000E+00 0. -1.
         22    1    1    2    0    0  0.40423572300E+03 -0.30043202603E+03 -0.14416187872E+03  0.52387839169E+03  0.00000000000E+00 0.  1.
<mgrwt>
<rscale>  0 0.13081141E+04</rscale>
<asrwt>0</asrwt>
<pdfrwt beam="1">  1        2 0.16093402E+00 0.13081141E+04</pdfrwt>
<pdfrwt beam="2">  1       -2 0.62915360E-01 0.13081141E+04</pdfrwt>
<totfact> 0.54003130E+01</totfact>
</mgrwt>
</event>
<event>
 6    1  0.1585031E-006  0.3127044E+04  0.7818608E-02  0.8208355E-01
         -2   -1    0    0    0  501 -0.00000000000E+00  0.00000000000E+00  0.27246098710E+04  0.27246098710E+04  0.00000000000E+00 0.  1.
          2   -1    0    0  501    0  0.00000000000E+00 -0.00000000000E+00 -0.89722957521E+03  0.89722957521E+03  0.00000000000E+00 0. -1.
         23    2    1    2    0    0 -0.92782007000E+03  0.42703958669E+03 -0.45432128930E+03  0.11219644465E+04  0.95830550385E+02 0.  0.
         11    1    3    3    0    0 -0.47751852728E+03  0.25431243001E+03 -0.27963263213E+03  0.60900998753E+03  0.00000000000E+00 0.  1.
        -11    1    3    3    0    0 -0.45030154271E+03  0.17272715668E+03 -0.17468865717E+03  0.51295445896E+03  0.00000000000E+00 0. -1.
         22    1    1    2    0    0  0.92782007000E+03 -0.42703958669E+03  0.22817015850E+04  0.24998749997E+04  0.00000000000E+00 0.  1.
<mgrwt>
<rscale>  0 0.31270437E+04</rscale>
<asrwt>0</asrwt>
<pdfrwt beam="1">  1        2 0.13803532E+00 0.31270437E+04</pdfrwt>
<pdfrwt beam="2">  1       -2 0.41917075E+00 0.31270437E+04</pdfrwt>
<totfact> 0.13837257E-01</totfact>
</mgrwt>
</event>
<event>
 6    1  0.1585031E-006  0.2337409E+04  0.7818608E-02  0.8463316E-01
          1   -1    0    0  501    0  0.00000000000E+00  0.00000000000E+00  0.13124616730E+04  0.13124616730E+04  0.00000000000E+00 0. -1.
         -1   -1    0    0    0  501 -0.00000000000E+00 -0.00000000000E+00 -0.10406935695E+04  0.10406935695E+04  0.00000000000E+00 0.  1.
         23    2    1    2    0    0 -0.54259324402E+03  0.99879608213E+03 -0.13038845950E+03  0.11474475899E+04  0.87371500421E+02 0.  0.
         11    1    3    3    0    0 -0.20822200479E+03  0.40351365064E+03 -0.94118830086E+02  0.46372192498E+03  0.00000000000E+00 0. -1.
        -11    1    3    3    0    0 -0.33437123923E+03  0.59528243150E+03 -0.36269629413E+02  0.68372566494E+03  0.00000000000E+00 0.  1.
         22    1    1    2    0    0  0.54259324402E+03 -0.99879608213E+03  0.40215656301E+03  0.12057076525E+04  0.00000000000E+00 0.  1.
<mgrwt>
<rscale>  0 0.23374092E+04</rscale>
<asrwt>0</asrwt>
<pdfrwt beam="1">  1        1 0.20191718E+00 0.23374092E+04</pdfrwt>
<pdfrwt beam="2">  1       -1 0.16010670E+00 0.23374092E+04</pdfrwt>
<totfact> 0.23291914E+00</totfact>
</mgrwt>
</event>
<event>
 6    1  0.1585031E-006  0.1996247E+04  0.7818608E-02  0.8608377E-01
         -2   -1    0    0    0  501 -0.00000000000E+00  0.00000000000E+00  0.43123276733E+03  0.43123276733E+03  0.00000000000E+00 0.  1.
          2   -1    0    0  501    0  0.00000000000E+00 -0.00000000000E+00 -0.23102378209E+04  0.23102378209E+04  0.00000000000E+00 0. -1.
         23    2    1    2    0    0 -0.61254574736E+03  0.76576664636E+03 -0.11793702664E+04  0.15368545977E+04  0.96938020645E+02 0.  0.
         11    1    3    3    0    0 -0.38299779617E+03  0.44369364882E+03 -0.63752107312E+03  0.86601644588E+03  0.00000000000E+00 0.  1.
        -11    1    3    3    0    0 -0.22954795119E+03  0.32207299754E+03 -0.54184919327E+03  0.67083815179E+03  0.00000000000E+00 0. -1.
         22    1    1    2    0    0  0.61254574736E+03 -0.76576664636E+03 -0.69963478722E+03  0.12046159906E+04  0.00000000000E+00 0.  1.
<mgrwt>
<rscale>  0 0.19962467E+04</rscale>
<asrwt>0</asrwt>
<pdfrwt beam="1">  1        2 0.35542120E+00 0.19962467E+04</pdfrwt>
<pdfrwt beam="2">  1       -2 0.66343503E-01 0.19962467E+04</pdfrwt>
<totfact> 0.86855481E+00</totfact>
</mgrwt>
</event>
<event>
 6    1  0.1585031E-006  0.1078723E+04  0.7818608E-02  0.9226181E-01
         -1   -1    0    0    0  501 -0.00000000000E+00  0.00000000000E+00  0.56468466737E+03  0.56468466737E+03  0.00000000000E+00 0.  1.
          1   -1    0    0  501    0  0.00000000000E+00 -0.00000000000E+00 -0.51517419656E+03  0.51517419656E+03  0.00000000000E+00 0. -1.
         23    2    1    2    0    0 -0.32530027495E+03 -0.10831347186E+02 -0.40035478826E+03  0.52459645905E+03  0.94762341661E+02 0.  0.
         11    1    3    3    0    0 -0.10848659787E+02  0.97150205697E+01 -0.55805904360E+02  0.57674725879E+02  0.00000000000E+00 0. -1.
        -11    1    3    3    0    0 -0.31445161517E+03 -0.20546367756E+02 -0.34454888390E+03  0.46692173317E+03  0.00000000000E+00 0.  1.
         22    1    1    2    0    0  0.32530027495E+03  0.10831347186E+02  0.44986525907E+03  0.55526240489E+03  0.00000000000E+00 0.  1.
<mgrwt>
<rscale>  0 0.10787233E+04</rscale>
<asrwt>0</asrwt>
<pdfrwt beam="1">  1        1 0.79257569E-01 0.10787233E+04</pdfrwt>
<pdfrwt beam="2">  1       -1 0.86874564E-01 0.10787233E+04</pdfrwt>
<totfact> 0.55426086E+01</totfact>
</mgrwt>
</event>
<event>
 6    1  0.1585031E-006  0.2533992E+04  0.7818608E-02  0.8390975E-01
          2   -1    0    0  501    0  0.00000000000E+00  0.00000000000E+00  0.16263819262E+04  0.16263819262E+04  0.00000000000E+00 0. -1.
         -2   -1    0    0    0  501 -0.00000000000E+00 -0.00000000000E+00 -0.98702469923E+03  0.98702469923E+03  0.00000000000E+00 0.  1.
         23    2    1    2    0    0  0.41587100518E+03 -0.63245242660E+03  0.13658554004E+04  0.15642429772E+04  0.91380260454E+02 0.  0.
         13    1    3    3    0    0  0.33031828439E+03 -0.53851668604E+03  0.10757979308E+04  0.12475782854E+04  0.00000000000E+00 0.  1.
        -13    1    3    3    0    0  0.85552720797E+02 -0.93935740565E+02  0.29005746954E+03  0.31666469180E+03  0.00000000000E+00 0. -1.
         22    1    1    2    0    0 -0.41587100518E+03  0.63245242660E+03 -0.72649817341E+03  0.10491636483E+04  0.00000000000E+00 0.  1.
<mgrwt>
<rscale>  0 0.25339922E+04</rscale>
<asrwt>0</asrwt>
<pdfrwt beam="1">  1        2 0.25021261E+00 0.25339922E+04</pdfrwt>
<pdfrwt beam="2">  1       -2 0.15184995E+00 0.25339922E+04</pdfrwt>
<totfact> 0.27807901E+00</totfact>
</mgrwt>
</event>
<event>
 6    1  0.1585031E-006  0.1342300E+04  0.7818608E-02  0.8996677E-01
         -4   -1    0    0    0  501 -0.00000000000E+00  0.00000000000E+00  0.26762715596E+03  0.26762715596E+03  0.00000000000E+00 0.  1.
          4   -1    0    0  501    0  0.00000000000E+00 -0.00000000000E+00 -0.16830973700E+04  0.16830973700E+04  0.00000000000E+00 0. -1.
         23    2    1    2    0    0  0.53263253637E+03  0.21945553865E+03 -0.21952272752E+03  0.62326509429E+03  0.91711491182E+02 0.  0.
         11    1    3    3    0    0  0.30338133816E+03  0.77435903819E+02 -0.13130748336E+03  0.33952645070E+03  0.00000000000E+00 0. -1.
        -11    1    3    3    0    0  0.22925119822E+03  0.14201963483E+03 -0.88215244170E+02  0.28373864359E+03  0.00000000000E+00 0.  1.
         22    1    1    2    0    0 -0.53263253637E+03 -0.21945553865E+03 -0.11959474865E+04  0.13274594317E+04  0.00000000000E+00 0.  1.
<mgrwt>
<rscale>  0 0.13423004E+04</rscale>
<asrwt>0</asrwt>
<pdfrwt beam="1">  1        4 0.25893806E+00 0.13423004E+04</pdfrwt>
<pdfrwt beam="2">  1       -4 0.41173409E-01 0.13423004E+04</pdfrwt>
<totfact> 0.62728659E-01</totfact>
</mgrwt>
</event>
<event>
 6    1  0.1585031E-006  0.2106248E+04  0.7818608E-02  0.8558496E-01
         -2   -1    0    0    0  501 -0.00000000000E+00  0.00000000000E+00  0.60240220254E+03  0.60240220254E+03  0.00000000000E+00 0.  1.
          2   -1    0    0  501    0  0.00000000000E+00 -0.00000000000E+00 -0.18410794319E+04  0.18410794319E+04  0.00000000000E+00 0. -1.
         23    2    1    2    0    0 -0.27299319648E+03  0.74213777196E+03  0.18300417756E+03  0.81668361973E+03  0.90486727459E+02 0.  0.
         13    1    3    3    0    0 -0.22363417626E+03  0.59534079671E+03  0.10974595483E+03  0.64535810495E+03  0.00000000000E+00 0. -1.
        -13    1    3    3    0    0 -0.49359020228E+02  0.14679697524E+03  0.73258222737E+02  0.17132551479E+03  0.00000000000E+00 0.  1.
         22    1    1    2    0    0  0.27299319648E+03 -0.74213777196E+03 -0.14216814069E+04  0.16267980147E+04  0.00000000000E+00 0. -1.
<mgrwt>
<rscale>  0 0.21062481E+04</rscale>
<asrwt>0</asrwt>
<pdfrwt beam="1">  1        2 0.28324299E+00 0.21062481E+04</pdfrwt>
<pdfrwt beam="2">  1       -2 0.92677262E-01 0.21062481E+04</pdfrwt>
<totfact> 0.74459543E+00</totfact>
</mgrwt>
</event>
<event>
 6    1  0.1585031E-006  0.2841089E+04  0.7818608E-02  0.8290624E-01
          2   -1    0    0  501    0  0.00000000000E+00  0.00000000000E+00  0.12192292232E+04  0.12192292232E+04  0.00000000000E+00 0. -1.
         -2   -1    0    0    0  501 -0.00000000000E+00 -0.00000000000E+00 -0.16551002465E+04  0.16551002465E+04  0.00000000000E+00 0.  1.
         23    2    1    2    0    0  0.43789093660E+03  0.13087831745E+04 -0.55223363383E+03  0.14893377270E+04  0.92211760432E+02 0.  0.
         13    1    3    3    0    0  0.40333700822E+03  0.11276544707E+04 -0.49897164722E+03  0.12974043518E+04  0.00000000000E+00 0. -1.
        -13    1    3    3    0    0  0.34553928382E+02  0.18112870380E+03 -0.53261986607E+02  0.19193337522E+03  0.00000000000E+00 0.  1.
         22    1    1    2    0    0 -0.43789093660E+03 -0.13087831745E+04  0.11636261062E+03  0.13849917427E+04  0.00000000000E+00 0. -1.
<mgrwt>
<rscale>  0 0.28410889E+04</rscale>
<asrwt>0</asrwt>
<pdfrwt beam="1">  1        2 0.18757373E+00 0.28410889E+04</pdfrwt>
<pdfrwt beam="2">  1       -2 0.25463081E+00 0.28410889E+04</pdfrwt>
<totfact> 0.96280510E-01</totfact>
</mgrwt>
</event>
<event>
 6    1  0.1585031E-006  0.4087115E+04  0.7818608E-02  0.7987200E-01
          1   -1    0    0  501    0  0.00000000000E+00  0.00000000000E+00  0.21012749413E+04  0.21012749413E+04  0.00000000000E+00 0. -1.
         -1   -1    0    0    0  501 -0.00000000000E+00 -0.00000000000E+00 -0.19874254933E+04  0.19874254933E+04  0.00000000000E+00 0.  1.
         23    2    1    2    0    0 -0.13645921947E+04 -0.45860597381E+03 -0.13925820366E+04  0.20050096910E+04  0.91366488901E+02 0.  0.
         11    1    3    3    0    0 -0.42276710877E+03 -0.14006375552E+03 -0.37322042386E+03  0.58107088092E+03  0.00000000000E+00 0.  1.
        -11    1    3    3    0    0 -0.94182508589E+03 -0.31854221829E+03 -0.10193616128E+04  0.14239388101E+04  0.00000000000E+00 0. -1.
         22    1    1    2    0    0  0.13645921947E+04  0.45860597381E+03  0.15064314846E+04  0.20836907436E+04  0.00000000000E+00 0. -1.
<mgrwt>
<rscale>  0 0.40871151E+04</rscale>
<asrwt>0</asrwt>
<pdfrwt beam="1">  1        1 0.32327307E+00 0.40871151E+04</pdfrwt>
<pdfrwt beam="2">  1       -1 0.30575777E+00 0.40871151E+04</pdfrwt>
<totfact> 0.59888351E-02</totfact>
</mgrwt>
</event>
<event>
 6    1  0.1585031E-006  0.9233622E+03  0.7818608E-02  0.9396840E-01
          2   -1    0    0  501    0  0.00000000000E+00  0.00000000000E+00  0.12909301014E+04  0.12909301014E+04  0.00000000000E+00 0.  1.
         -2   -1    0    0    0  501 -0.00000000000E+00 -0.00000000000E+00 -0.16511308810E+03  0.16511308810E+03  0.00000000000E+00 0. -1.
         23    2    1    2    0    0  0.35361295939E+03 -0.28794474874E+03  0.58332095139E+03  0.74734277285E+03  0.10150657328E+03 0.  0.
         11    1    3    3    0    0  0.10915847293E+03 -0.13731658330E+03  0.17166529847E+03  0.24543917976E+03  0.00000000000E+00 0. -1.
        -11    1    3    3    0    0  0.24445448646E+03 -0.15062816545E+03  0.41165565292E+03  0.50190359309E+03  0.00000000000E+00 0.  1.
         22    1    1    2    0    0 -0.35361295939E+03  0.28794474874E+03  0.54249606192E+03  0.70870041666E+03  0.00000000000E+00 0. -1.
<mgrwt>
<rscale>  0 0.92336224E+03</rscale>
<asrwt>0</asrwt>
<pdfrwt beam="1">  1        2 0.19860462E+00 0.92336224E+03</pdfrwt>
<pdfrwt beam="2">  1       -2 0.25402014E-01 0.92336224E+03</pdfrwt>
<totfact> 0.23329902E+02</totfact>
</mgrwt>
</event>
<event>
 6    1  0.2192141E-006  0.2111399E+04  0.7818608E-02  0.8556239E-01
          1   -1    0    0  501    0  0.00000000000E+00  0.00000000000E+00  0.13218789878E+04  0.13218789878E+04  0.00000000000E+00 0. -1.
         -1   -1    0    0    0  501 -0.00000000000E+00 -0.00000000000E+00 -0.84311888262E+03  0.84311888262E+03  0.00000000000E+00 0.  1.
         23    2    1    2    0    0 -0.11511396663E+03  0.18568360593E+03 -0.81713175303E+03  0.85081929238E+03  0.91975755850E+02 0.  0.
         13    1    3    3    0    0 -0.54355361703E+02  0.36575933099E+02 -0.36595304604E+03  0.37177134926E+03  0.00000000000E+00 0. -1.
        -13    1    3    3    0    0 -0.60758604927E+02  0.14910767283E+03 -0.45117870699E+03  0.47904794312E+03  0.00000000000E+00 0.  1.
         22    1    1    2    0    0  0.11511396663E+03 -0.18568360593E+03  0.12958918582E+04  0.13141785780E+04  0.00000000000E+00 0. -1.
<mgrwt>
<rscale>  0 0.21113987E+04</rscale>
<asrwt>0</asrwt>
<pdfrwt beam="1">  1        1 0.20336600E+00 0.21113987E+04</pdfrwt>
<pdfrwt beam="2">  1       -1 0.12971060E+00 0.21113987E+04</pdfrwt>
<totfact> 0.40890823E+00</totfact>
</mgrwt>
</event>
<event>
 6    1  0.1585031E-006  0.3977550E+04  0.7818608E-02  0.8009091E-01
         -2   -1    0    0    0  501 -0.00000000000E+00  0.00000000000E+00  0.13324498670E+04  0.13324498670E+04  0.00000000000E+00 0.  1.
          2   -1    0    0  501    0  0.00000000000E+00 -0.00000000000E+00 -0.29683870178E+04  0.29683870178E+04  0.00000000000E+00 0. -1.
         23    2    1    2    0    0 -0.13217897142E+04  0.89028218422E+03 -0.21030182334E+04  0.26401457173E+04  0.89181291935E+02 0.  0.
         13    1    3    3    0    0 -0.44061263699E+03  0.27240528884E+03 -0.62374814619E+03  0.81080570246E+03  0.00000000000E+00 0.  1.
        -13    1    3    3    0    0 -0.88117707718E+03  0.61787689537E+03 -0.14792700872E+04  0.18293400149E+04  0.00000000000E+00 0. -1.
         22    1    1    2    0    0  0.13217897142E+04 -0.89028218422E+03  0.46708108261E+03  0.16606911675E+04  0.00000000000E+00 0.  1.
<mgrwt>
<rscale>  0 0.39775504E+04</rscale>
<asrwt>0</asrwt>
<pdfrwt beam="1">  1        2 0.45667492E+00 0.39775504E+04</pdfrwt>
<pdfrwt beam="2">  1       -2 0.20499229E+00 0.39775504E+04</pdfrwt>
<totfact> 0.17758013E-01</totfact>
</mgrwt>
</event>
<event>
 6    1  0.1585031E-006  0.8753009E+03  0.7818608E-02  0.9456994E-01
          2   -1    0    0  501    0  0.00000000000E+00  0.00000000000E+00  0.49101382143E+03  0.49101382143E+03  0.00000000000E+00 0. -1.
         -2   -1    0    0    0  501 -0.00000000000E+00 -0.00000000000E+00 -0.39008662589E+03  0.39008662589E+03  0.00000000000E+00 0.  1.
         23    2    1    2    0    0  0.41281176203E+03  0.62822542821E+02 -0.63842182918E+02  0.43220271862E+03  0.91450220901E+02 0.  0.
         11    1    3    3    0    0  0.47758552047E+02  0.23113305130E+02  0.17922998636E+02  0.56003018203E+02  0.00000000000E+00 0.  1.
        -11    1    3    3    0    0  0.36505320998E+03  0.39709237691E+02 -0.81765181555E+02  0.37619970041E+03  0.00000000000E+00 0. -1.
         22    1    1    2    0    0 -0.41281176203E+03 -0.62822542821E+02  0.16476937847E+03  0.44889772871E+03  0.00000000000E+00 0.  1.
<mgrwt>
<rscale>  0 0.87530092E+03</rscale>
<asrwt>0</asrwt>
<pdfrwt beam="1">  1        2 0.75540588E-01 0.87530092E+03</pdfrwt>
<pdfrwt beam="2">  1       -2 0.60013327E-01 0.87530092E+03</pdfrwt>
<totfact> 0.16361559E+02</totfact>
</mgrwt>
</event>
<event>
 6    1  0.1585031E-006  0.1268716E+04  0.7818608E-02  0.9054748E-01
          1   -1    0    0  501    0  0.00000000000E+00  0.00000000000E+00  0.12256304649E+04  0.12256304649E+04  0.00000000000E+00 0. -1.
         -1   -1    0    0    0  501 -0.00000000000E+00 -0.00000000000E+00 -0.32832914296E+03  0.32832914296E+03  0.00000000000E+00 0.  1.
         23    2    1    2    0    0 -0.27525615190E+03  0.41368578714E+03 -0.25348051077E+02  0.50601698292E+03  0.92243068379E+02 0.  0.
         11    1    3    3    0    0 -0.11584675506E+03  0.11967512467E+03 -0.39834046374E+02  0.17125816002E+03  0.00000000000E+00 0. -1.
        -11    1    3    3    0    0 -0.15940939685E+03  0.29401066247E+03  0.14485995297E+02  0.33475882290E+03  0.00000000000E+00 0.  1.
         22    1    1    2    0    0  0.27525615190E+03 -0.41368578714E+03  0.92264937302E+03  0.10479426249E+04  0.00000000000E+00 0. -1.
<mgrwt>
<rscale>  0 0.12687162E+04</rscale>
<asrwt>0</asrwt>
<pdfrwt beam="1">  1        1 0.18855853E+00 0.12687162E+04</pdfrwt>
<pdfrwt beam="2">  1       -1 0.50512176E-01 0.12687162E+04</pdfrwt>
<totfact> 0.39669485E+01</totfact>
</mgrwt>
</event>
<event>
 6    1  0.1585031E-006  0.2133091E+04  0.7818608E-02  0.8546805E-01
          1   -1    0    0  501    0  0.00000000000E+00  0.00000000000E+00  0.23292830526E+04  0.23292830526E+04  0.00000000000E+00 0. -1.
         -1   -1    0    0    0  501 -0.00000000000E+00 -0.00000000000E+00 -0.48835586263E+03  0.48835586263E+03  0.00000000000E+00 0.  1.
         23    2    1    2    0    0  0.83824916099E+03 -0.63390508367E+03  0.11463607008E+04  0.15579088176E+04  0.91867930096E+02 0.  0.
         13    1    3    3    0    0  0.29145994948E+03 -0.19765573551E+03  0.32688919886E+03  0.48049270573E+03  0.00000000000E+00 0. -1.
        -13    1    3    3    0    0  0.54678921151E+03 -0.43624934816E+03  0.81947150198E+03  0.10774161119E+04  0.00000000000E+00 0.  1.
         22    1    1    2    0    0 -0.83824916099E+03  0.63390508367E+03  0.69456648913E+03  0.12597300976E+04  0.00000000000E+00 0. -1.
<mgrwt>
<rscale>  0 0.21330907E+04</rscale>
<asrwt>0</asrwt>
<pdfrwt beam="1">  1        1 0.35835123E+00 0.21330907E+04</pdfrwt>
<pdfrwt beam="2">  1       -1 0.75131673E-01 0.21330907E+04</pdfrwt>
<totfact> 0.29028780E+00</totfact>
</mgrwt>
</event>
<event>
 6    1  0.1585031E-006  0.8384130E+03  0.7818608E-02  0.9506022E-01
          1   -1    0    0  501    0  0.00000000000E+00  0.00000000000E+00  0.10133556540E+04  0.10133556540E+04  0.00000000000E+00 0. -1.
         -1   -1    0    0    0  501 -0.00000000000E+00 -0.00000000000E+00 -0.17341796413E+03  0.17341796413E+03  0.00000000000E+00 0.  1.
         23    2    1    2    0    0 -0.36080695525E+03  0.14049134353E+03  0.63332407508E+03  0.74790158395E+03  0.91312204205E+02 0.  0.
         11    1    3    3    0    0 -0.24838168511E+03  0.10064804907E+03  0.35259965173E+03  0.44288825417E+03  0.00000000000E+00 0.  1.
        -11    1    3    3    0    0 -0.11242527014E+03  0.39843294461E+02  0.28072442336E+03  0.30501332979E+03  0.00000000000E+00 0. -1.
         22    1    1    2    0    0  0.36080695525E+03 -0.14049134353E+03  0.20661361479E+03  0.43887203417E+03  0.00000000000E+00 0.  1.
<mgrwt>
<rscale>  0 0.83841296E+03</rscale>
<asrwt>0</asrwt>
<pdfrwt beam="1">  1        1 0.15590087E+00 0.83841296E+03</pdfrwt>
<pdfrwt beam="2">  1       -1 0.26679687E-01 0.83841296E+03</pdfrwt>
<totfact> 0.18654892E+02</totfact>
</mgrwt>
</event>
<event>
 6    1  0.1585031E-006  0.1489162E+04  0.7818608E-02  0.8891692E-01
         -1   -1    0    0    0  501 -0.00000000000E+00  0.00000000000E+00  0.84600243043E+03  0.84600243043E+03  0.00000000000E+00 0.  1.
          1   -1    0    0  501    0  0.00000000000E+00 -0.00000000000E+00 -0.65531864438E+03  0.65531864438E+03  0.00000000000E+00 0. -1.
         23    2    1    2    0    0 -0.16139380418E+02  0.67934346517E+03 -0.20433781869E+03  0.71531211082E+03  0.90274295726E+02 0.  0.
         13    1    3    3    0    0  0.21210684356E+02  0.34946836441E+03 -0.14047961730E+03  0.37724336142E+03  0.00000000000E+00 0. -1.
        -13    1    3    3    0    0 -0.37350064773E+02  0.32987510075E+03 -0.63858201391E+02  0.33806874940E+03  0.00000000000E+00 0.  1.
         22    1    1    2    0    0  0.16139380418E+02 -0.67934346517E+03  0.39502160474E+03  0.78600896400E+03  0.00000000000E+00 0.  1.
<mgrwt>
<rscale>  0 0.14891624E+04</rscale>
<asrwt>0</asrwt>
<pdfrwt beam="1">  1        1 0.10081825E+00 0.14891624E+04</pdfrwt>
<pdfrwt beam="2">  1       -1 0.13015422E+00 0.14891624E+04</pdfrwt>
<totfact> 0.14733911E+01</totfact>
</mgrwt>
</event>
<event>
 6    1  0.1585031E-006  0.4489254E+04  0.7818608E-02  0.7912521E-01
         -2   -1    0    0    0  501 -0.00000000000E+00  0.00000000000E+00  0.25542678183E+04  0.25542678183E+04  0.00000000000E+00 0.  1.
          2   -1    0    0  501    0  0.00000000000E+00 -0.00000000000E+00 -0.19725224117E+04  0.19725224117E+04  0.00000000000E+00 0. -1.
         23    2    1    2    0    0  0.12216391537E+04  0.15058047643E+04 -0.84730990955E+03  0.21180458876E+04  0.91291233681E+02 0.  0.
         11    1    3    3    0    0  0.30447697711E+03  0.40591815664E+03 -0.26041466352E+03  0.57034338469E+03  0.00000000000E+00 0. -1.
        -11    1    3    3    0    0  0.91716217661E+03  0.10998866076E+04 -0.58689524603E+03  0.15477025030E+04  0.00000000000E+00 0.  1.
         22    1    1    2    0    0 -0.12216391537E+04 -0.15058047643E+04  0.14290553162E+04  0.24087443423E+04  0.00000000000E+00 0. -1.
<mgrwt>
<rscale>  0 0.44892541E+04</rscale>
<asrwt>0</asrwt>
<pdfrwt beam="1">  1        2 0.30346499E+00 0.44892541E+04</pdfrwt>
<pdfrwt beam="2">  1       -2 0.39296428E+00 0.44892541E+04</pdfrwt>
<totfact> 0.43303250E-02</totfact>
</mgrwt>
</event>
<event>
 6    1  0.1585031E-006  0.2075478E+04  0.7818608E-02  0.8572123E-01
          1   -1    0    0  501    0  0.00000000000E+00  0.00000000000E+00  0.55906903292E+03  0.55906903292E+03  0.00000000000E+00 0. -1.
         -1   -1    0    0    0  501 -0.00000000000E+00 -0.00000000000E+00 -0.19262417788E+04  0.19262417788E+04  0.00000000000E+00 0.  1.
         23    2    1    2    0    0 -0.95719522178E+03  0.25345083850E+03 -0.32041977502E+03  0.10444250417E+04  0.87720097188E+02 0.  0.
         11    1    3    3    0    0 -0.28740943993E+03  0.54898293952E+02 -0.58843046298E+02  0.29846358729E+03  0.00000000000E+00 0.  1.
        -11    1    3    3    0    0 -0.66978578185E+03  0.19855254455E+03 -0.26157672872E+03  0.74596145445E+03  0.00000000000E+00 0. -1.
         22    1    1    2    0    0  0.95719522178E+03 -0.25345083850E+03 -0.10467529709E+04  0.14408857700E+04  0.00000000000E+00 0.  1.
<mgrwt>
<rscale>  0 0.20754779E+04</rscale>
<asrwt>0</asrwt>
<pdfrwt beam="1">  1        1 0.86010619E-01 0.20754779E+04</pdfrwt>
<pdfrwt beam="2">  1       -1 0.29634489E+00 0.20754779E+04</pdfrwt>
<totfact> 0.12189120E+00</totfact>
</mgrwt>
</event>
<event>
 6    1  0.1585031E-006  0.3477596E+04  0.7818608E-02  0.8119120E-01
         -1   -1    0    0    0  501 -0.00000000000E+00  0.00000000000E+00  0.10936215758E+04  0.10936215758E+04  0.00000000000E+00 0.  1.
          1   -1    0    0  501    0  0.00000000000E+00 -0.00000000000E+00 -0.27645930631E+04  0.27645930631E+04  0.00000000000E+00 0. -1.
         23    2    1    2    0    0 -0.82847242934E+03 -0.60726307171E+03  0.71868339039E+03  0.12571407379E+04  0.93605634123E+02 0.  0.
         11    1    3    3    0    0 -0.72907454212E+03 -0.50813534788E+03  0.64889813769E+03  0.11003726700E+04  0.00000000000E+00 0. -1.
        -11    1    3    3    0    0 -0.99397887217E+02 -0.99127723829E+02  0.69785252701E+02  0.15676806789E+03  0.00000000000E+00 0.  1.
         22    1    1    2    0    0  0.82847242934E+03  0.60726307171E+03 -0.23896548777E+04  0.26010739010E+04  0.00000000000E+00 0. -1.
<mgrwt>
<rscale>  0 0.34775961E+04</rscale>
<asrwt>0</asrwt>
<pdfrwt beam="1">  1        1 0.42532201E+00 0.34775961E+04</pdfrwt>
<pdfrwt beam="2">  1       -1 0.16824947E+00 0.34775961E+04</pdfrwt>
<totfact> 0.18291458E-01</totfact>
</mgrwt>
</event>
<event>
 6    1  0.1585031E-006  0.7748545E+03  0.7818608E-02  0.9597145E-01
         -3   -1    0    0    0  501 -0.00000000000E+00  0.00000000000E+00  0.99750785156E+03  0.99750785156E+03  0.00000000000E+00 0.  1.
          3   -1    0    0  501    0  0.00000000000E+00 -0.00000000000E+00 -0.15047489586E+03  0.15047489586E+03  0.00000000000E+00 0. -1.
         23    2    1    2    0    0  0.32767000268E+03 -0.46393655130E+02  0.16268156679E+03  0.38781380213E+03  0.12005936474E+03 0.  0.
         13    1    3    3    0    0  0.19148825140E+03 -0.79355574189E+02  0.65823794371E+02  0.21748064163E+03  0.00000000000E+00 0. -1.
        -13    1    3    3    0    0  0.13618175128E+03  0.32961919060E+02  0.96857772418E+02  0.17033316050E+03  0.00000000000E+00 0.  1.
         22    1    1    2    0    0 -0.32767000268E+03  0.46393655130E+02  0.68435138891E+03  0.76016894530E+03  0.00000000000E+00 0.  1.
<mgrwt>
<rscale>  0 0.77485454E+03</rscale>
<asrwt>0</asrwt>
<pdfrwt beam="1">  1        3 0.23149985E-01 0.77485454E+03</pdfrwt>
<pdfrwt beam="2">  1       -3 0.15346274E+00 0.77485454E+03</pdfrwt>
<totfact> 0.14114216E+01</totfact>
</mgrwt>
</event>
<event>
 6    1  0.1585031E-006  0.2726037E+04  0.7818608E-02  0.8326606E-01
         -1   -1    0    0    0  501 -0.00000000000E+00  0.00000000000E+00  0.14323762777E+04  0.14323762777E+04  0.00000000000E+00 0.  1.
          1   -1    0    0  501    0  0.00000000000E+00 -0.00000000000E+00 -0.12970191091E+04  0.12970191091E+04  0.00000000000E+00 0. -1.
         23    2    1    2    0    0 -0.86859014856E+03  0.16458413435E+03  0.11042697878E+04  0.14177824687E+04  0.95700475482E+02 0.  0.
         11    1    3    3    0    0 -0.36934293943E+03  0.22374721455E+02  0.44995270881E+03  0.58255667126E+03  0.00000000000E+00 0. -1.
        -11    1    3    3    0    0 -0.49924720913E+03  0.14220941289E+03  0.65431707897E+03  0.83522579748E+03  0.00000000000E+00 0.  1.
         22    1    1    2    0    0  0.86859014856E+03 -0.16458413435E+03 -0.96891261918E+03  0.13116129181E+04  0.00000000000E+00 0. -1.
<mgrwt>
<rscale>  0 0.27260370E+04</rscale>
<asrwt>0</asrwt>
<pdfrwt beam="1">  1        1 0.19954140E+00 0.27260370E+04</pdfrwt>
<pdfrwt beam="2">  1       -1 0.22036558E+00 0.27260370E+04</pdfrwt>
<totfact> 0.86665282E-01</totfact>
</mgrwt>
</event>
<event>
 6    1  0.1585031E-006  0.1004700E+04  0.7818608E-02  0.9303405E-01
          2   -1    0    0  501    0  0.00000000000E+00  0.00000000000E+00  0.59519796074E+03  0.59519796074E+03  0.00000000000E+00 0. -1.
         -2   -1    0    0    0  501 -0.00000000000E+00 -0.00000000000E+00 -0.42398565531E+03  0.42398565531E+03  0.00000000000E+00 0.  1.
         23    2    1    2    0    0 -0.13373048835E+03  0.13410656183E+03  0.55365278474E+03  0.59241771576E+03  0.92514487818E+02 0.  0.
         13    1    3    3    0    0 -0.10428350610E+03  0.48647483356E+02  0.24277751035E+03  0.26866809787E+03  0.00000000000E+00 0.  1.
        -13    1    3    3    0    0 -0.29446982250E+02  0.85459078472E+02  0.31087527439E+03  0.32374961789E+03  0.00000000000E+00 0. -1.
         22    1    1    2    0    0  0.13373048835E+03 -0.13410656183E+03 -0.38244047931E+03  0.42676590029E+03  0.00000000000E+00 0.  1.
<mgrwt>
<rscale>  0 0.10046998E+04</rscale>
<asrwt>0</asrwt>
<pdfrwt beam="1">  1        2 0.91568917E-01 0.10046998E+04</pdfrwt>
<pdfrwt beam="2">  1       -2 0.65228562E-01 0.10046998E+04</pdfrwt>
<totfact> 0.10838765E+02</totfact>
</mgrwt>
</event>
<event>
 6    1  0.1585031E-006  0.1193857E+04  0.7818608E-02  0.9118251E-01
          4   -1    0    0  501    0  0.00000000000E+00  0.00000000000E+00  0.44719481048E+03  0.44719481048E+03  0.00000000000E+00 0. -1.
         -4   -1    0    0    0  501 -0.00000000000E+00 -0.00000000000E+00 -0.79679736574E+03  0.79679736574E+03  0.00000000000E+00 0.  1.
         23    2    1    2    0    0 -0.45446745583E+03 -0.30962500652E+03  0.56366916709E+02  0.56045759388E+03  0.92342688787E+02 0.  0.
         13    1    3    3    0    0 -0.21143382927E+03 -0.97567124254E+02 -0.95031882288E+00  0.23286157046E+03  0.00000000000E+00 0. -1.
        -13    1    3    3    0    0 -0.24303362657E+03 -0.21205788226E+03  0.57317235532E+02  0.32759602342E+03  0.00000000000E+00 0.  1.
         22    1    1    2    0    0  0.45446745583E+03  0.30962500652E+03 -0.40596947197E+03  0.68353458233E+03  0.00000000000E+00 0.  1.
<mgrwt>
<rscale>  0 0.11938570E+04</rscale>
<asrwt>0</asrwt>
<pdfrwt beam="1">  1        4 0.68799203E-01 0.11938570E+04</pdfrwt>
<pdfrwt beam="2">  1       -4 0.12258421E+00 0.11938570E+04</pdfrwt>
<totfact> 0.19216409E+00</totfact>
</mgrwt>
</event>
<event>
 6    1  0.1585031E-006  0.1745521E+04  0.7818608E-02  0.8735819E-01
          2   -1    0    0  501    0  0.00000000000E+00  0.00000000000E+00  0.66274497070E+03  0.66274497070E+03  0.00000000000E+00 0. -1.
         -2   -1    0    0    0  501 -0.00000000000E+00 -0.00000000000E+00 -0.11493277343E+04  0.11493277343E+04  0.00000000000E+00 0.  1.
         23    2    1    2    0    0  0.67177529712E+03 -0.51156449839E+03 -0.27232387478E+02  0.85083233241E+03  0.10096419717E+03 0.  0.
         13    1    3    3    0    0  0.52407257027E+03 -0.34467107963E+03 -0.10594187646E+02  0.62734555777E+03  0.00000000000E+00 0. -1.
        -13    1    3    3    0    0  0.14770272685E+03 -0.16689341876E+03 -0.16638199833E+02  0.22348677464E+03  0.00000000000E+00 0.  1.
         22    1    1    2    0    0 -0.67177529712E+03  0.51156449839E+03 -0.45935037611E+03  0.96124037258E+03  0.00000000000E+00 0.  1.
<mgrwt>
<rscale>  0 0.17455213E+04</rscale>
<asrwt>0</asrwt>
<pdfrwt beam="1">  1        2 0.10196076E+00 0.17455213E+04</pdfrwt>
<pdfrwt beam="2">  1       -2 0.17681965E+00 0.17455213E+04</pdfrwt>
<totfact> 0.79335967E+00</totfact>
</mgrwt>
</event>
<event>
 6    1  0.1585031E-006  0.1117338E+04  0.7818608E-02  0.9188456E-01
          1   -1    0    0  501    0  0.00000000000E+00  0.00000000000E+00  0.50126418719E+03  0.50126418719E+03  0.00000000000E+00 0. -1.
         -1   -1    0    0    0  501 -0.00000000000E+00 -0.00000000000E+00 -0.62264733475E+03  0.62264733475E+03  0.00000000000E+00 0.  1.
         23    2    1    2    0    0  0.23299655200E+03 -0.49546192849E+03 -0.15190979280E+03  0.57554869325E+03  0.91704947123E+02 0.  0.
         13    1    3    3    0    0  0.16302652420E+03 -0.23985134607E+03 -0.73543781962E+02  0.29919058085E+03  0.00000000000E+00 0. -1.
        -13    1    3    3    0    0  0.69970027801E+02 -0.25561058241E+03 -0.78366010838E+02  0.27635811239E+03  0.00000000000E+00 0.  1.
         22    1    1    2    0    0 -0.23299655200E+03  0.49546192849E+03  0.30526645237E+02  0.54836282869E+03  0.00000000000E+00 0. -1.
<mgrwt>
<rscale>  0 0.11173376E+04</rscale>
<asrwt>0</asrwt>
<pdfrwt beam="1">  1        1 0.77117568E-01 0.11173376E+04</pdfrwt>
<pdfrwt beam="2">  1       -1 0.95791897E-01 0.11173376E+04</pdfrwt>
<totfact> 0.46228287E+01</totfact>
</mgrwt>
</event>
<event>
 6    1  0.1585031E-006  0.2637937E+04  0.7818608E-02  0.8355428E-01
          2   -1    0    0  501    0  0.00000000000E+00  0.00000000000E+00  0.13398350374E+04  0.13398350374E+04  0.00000000000E+00 0. -1.
         -2   -1    0    0    0  501 -0.00000000000E+00 -0.00000000000E+00 -0.12984265017E+04  0.12984265017E+04  0.00000000000E+00 0.  1.
         23    2    1    2    0    0 -0.56829494810E+03 -0.13435027319E+02 -0.11679839917E+04  0.13019345083E+04  0.87790721854E+02 0.  0.
         11    1    3    3    0    0 -0.60183622923E+02 -0.35380491482E+01 -0.72374349659E+02  0.94194653503E+02  0.00000000000E+00 0. -1.
        -11    1    3    3    0    0 -0.50811132518E+03 -0.98969781711E+01 -0.10956096421E+04  0.12077398548E+04  0.00000000000E+00 0.  1.
         22    1    1    2    0    0  0.56829494810E+03  0.13435027319E+02  0.12093925274E+04  0.13363270308E+04  0.00000000000E+00 0. -1.
<mgrwt>
<rscale>  0 0.26379366E+04</rscale>
<asrwt>0</asrwt>
<pdfrwt beam="1">  1        2 0.20612847E+00 0.26379366E+04</pdfrwt>
<pdfrwt beam="2">  1       -2 0.19975792E+00 0.26379366E+04</pdfrwt>
<totfact> 0.18449361E+00</totfact>
</mgrwt>
</event>
<event>
 6    1  0.1585031E-006  0.3157131E+04  0.7818608E-02  0.8200231E-01
         -2   -1    0    0    0  501 -0.00000000000E+00  0.00000000000E+00  0.18990081959E+04  0.18990081959E+04  0.00000000000E+00 0.  1.
          2   -1    0    0  501    0  0.00000000000E+00 -0.00000000000E+00 -0.13121951513E+04  0.13121951513E+04  0.00000000000E+00 0. -1.
         23    2    1    2    0    0 -0.81299405792E+03  0.10620571074E+04 -0.55668065187E+03  0.14515151728E+04  0.89879425556E+02 0.  0.
         11    1    3    3    0    0 -0.45736161531E+03  0.54404100300E+03 -0.32892838908E+03  0.78316929539E+03  0.00000000000E+00 0.  1.
        -11    1    3    3    0    0 -0.35563244261E+03  0.51801610439E+03 -0.22775226279E+03  0.66834587741E+03  0.00000000000E+00 0. -1.
         22    1    1    2    0    0  0.81299405792E+03 -0.10620571074E+04  0.11434936964E+04  0.17596881745E+04  0.00000000000E+00 0.  1.
<mgrwt>
<rscale>  0 0.31571312E+04</rscale>
<asrwt>0</asrwt>
<pdfrwt beam="1">  1        2 0.20187618E+00 0.31571312E+04</pdfrwt>
<pdfrwt beam="2">  1       -2 0.29215511E+00 0.31571312E+04</pdfrwt>
<totfact> 0.48778723E-01</totfact>
</mgrwt>
</event>
<event>
 6    1  0.1585031E-006  0.1044231E+04  0.7818608E-02  0.9261320E-01
         -1   -1    0    0    0  501 -0.00000000000E+00  0.00000000000E+00  0.16410590368E+03  0.16410590368E+03  0.00000000000E+00 0.  1.
          1   -1    0    0  501    0  0.00000000000E+00 -0.00000000000E+00 -0.16611511403E+04  0.16611511403E+04  0.00000000000E+00 0. -1.
         23    2    1    2    0    0 -0.50357534927E+03 -0.51722142308E+02 -0.56132048382E+03  0.76137541269E+03  0.91370241830E+02 0.  0.
         11    1    3    3    0    0 -0.12732544338E+03 -0.28385147441E+02 -0.93125816599E+02  0.16028070016E+03  0.00000000000E+00 0.  1.
        -11    1    3    3    0    0 -0.37624990589E+03 -0.23336994866E+02 -0.46819466722E+03  0.60109471253E+03  0.00000000000E+00 0. -1.
         22    1    1    2    0    0  0.50357534927E+03  0.51722142308E+02 -0.93572475284E+03  0.10638816313E+04  0.00000000000E+00 0. -1.
<mgrwt>
<rscale>  0 0.10442312E+04</rscale>
<asrwt>0</asrwt>
<pdfrwt beam="1">  1        1 0.25556169E+00 0.10442312E+04</pdfrwt>
<pdfrwt beam="2">  1       -1 0.25247064E-01 0.10442312E+04</pdfrwt>
<totfact> 0.69828835E+01</totfact>
</mgrwt>
</event>
<event>
 6    1  0.1585031E-006  0.1878337E+04  0.7818608E-02  0.8665715E-01
          2   -1    0    0  501    0  0.00000000000E+00  0.00000000000E+00  0.85479135196E+03  0.85479135196E+03  0.00000000000E+00 0. -1.
         -2   -1    0    0    0  501 -0.00000000000E+00 -0.00000000000E+00 -0.10318750771E+04  0.10318750771E+04  0.00000000000E+00 0.  1.
         23    2    1    2    0    0  0.51164466140E+03  0.11132446409E+03  0.69172248188E+03  0.87227122935E+03  0.90574332862E+02 0.  0.
         13    1    3    3    0    0  0.19698512356E+03  0.63541038517E+02  0.33893461261E+03  0.39713634196E+03  0.00000000000E+00 0. -1.
        -13    1    3    3    0    0  0.31465953784E+03  0.47783425576E+02  0.35278786926E+03  0.47513488739E+03  0.00000000000E+00 0.  1.
         22    1    1    2    0    0 -0.51164466140E+03 -0.11132446409E+03 -0.86880620705E+03  0.10143951997E+04  0.00000000000E+00 0.  1.
<mgrwt>
<rscale>  0 0.18783374E+04</rscale>
<asrwt>0</asrwt>
<pdfrwt beam="1">  1        2 0.13150636E+00 0.18783374E+04</pdfrwt>
<pdfrwt beam="2">  1       -2 0.15875001E+00 0.18783374E+04</pdfrwt>
<totfact> 0.76009314E+00</totfact>
</mgrwt>
</event>
<event>
 6    1  0.1585031E-006  0.2887406E+04  0.7818608E-02  0.8276634E-01
         -2   -1    0    0    0  501 -0.00000000000E+00  0.00000000000E+00  0.13427635936E+04  0.13427635936E+04  0.00000000000E+00 0.  1.
          2   -1    0    0  501    0  0.00000000000E+00 -0.00000000000E+00 -0.15522303100E+04  0.15522303100E+04  0.00000000000E+00 0. -1.
         23    2    1    2    0    0 -0.13546312415E+04  0.31266544182E+03  0.27893292963E+03  0.14214540524E+04  0.99712410792E+02 0.  0.
         13    1    3    3    0    0 -0.95549073629E+03  0.25520358994E+03  0.22868102312E+03  0.10150795189E+04  0.00000000000E+00 0.  1.
        -13    1    3    3    0    0 -0.39914050524E+03  0.57461851885E+02  0.50251906509E+02  0.40637453347E+03  0.00000000000E+00 0. -1.
         22    1    1    2    0    0  0.13546312415E+04 -0.31266544182E+03 -0.48839964603E+03  0.14735398513E+04  0.00000000000E+00 0.  1.
<mgrwt>
<rscale>  0 0.28874060E+04</rscale>
<asrwt>0</asrwt>
<pdfrwt beam="1">  1        2 0.23880466E+00 0.28874060E+04</pdfrwt>
<pdfrwt beam="2">  1       -2 0.20657901E+00 0.28874060E+04</pdfrwt>
<totfact> 0.12348462E+00</totfact>
</mgrwt>
</event>
<event>
 6    1  0.1585031E-006  0.3369701E+04  0.7818608E-02  0.8145383E-01
         -2   -1    0    0    0  501 -0.00000000000E+00  0.00000000000E+00  0.13621094125E+04  0.13621094125E+04  0.00000000000E+00 0. -1.
          2   -1    0    0  501    0  0.00000000000E+00 -0.00000000000E+00 -0.20840619422E+04  0.20840619422E+04  0.00000000000E+00 0.  1.
         23    2    1    2    0    0 -0.81477410838E+02 -0.47673148664E+03 -0.20104965016E+04  0.20698512442E+04  0.90975333244E+02 0.  0.
         13    1    3    3    0    0 -0.86215305471E+02 -0.23621164466E+03 -0.10489234669E+04  0.10786424150E+04  0.00000000000E+00 0.  1.
        -13    1    3    3    0    0  0.47378946336E+01 -0.24051984198E+03 -0.96157303468E+03  0.99120882919E+03  0.00000000000E+00 0. -1.
         22    1    1    2    0    0  0.81477410838E+02  0.47673148664E+03  0.12885439720E+04  0.13763201105E+04  0.00000000000E+00 0. -1.
<mgrwt>
<rscale>  0 0.33697005E+04</rscale>
<asrwt>0</asrwt>
<pdfrwt beam="1">  1        2 0.32062491E+00 0.33697005E+04</pdfrwt>
<pdfrwt beam="2">  1       -2 0.20955529E+00 0.33697005E+04</pdfrwt>
<totfact> 0.57416993E-01</totfact>
</mgrwt>
</event>
<event>
 6    1  0.1585031E-006  0.8238620E+03  0.7818608E-02  0.9526106E-01
          1   -1    0    0  501    0  0.00000000000E+00  0.00000000000E+00  0.40080350824E+03  0.40080350824E+03  0.00000000000E+00 0. -1.
         -1   -1    0    0    0  501 -0.00000000000E+00 -0.00000000000E+00 -0.42336746924E+03  0.42336746924E+03  0.00000000000E+00 0.  1.
         23    2    1    2    0    0  0.19259267711E+03 -0.26047234999E+03  0.23404993172E+03  0.41090535549E+03  0.95530394352E+02 0.  0.
         11    1    3    3    0    0  0.18586153425E+03 -0.23453867616E+03  0.23982664862E+03  0.38349670392E+03  0.00000000000E+00 0. -1.
        -11    1    3    3    0    0  0.67311428615E+01 -0.25933673837E+02 -0.57767169015E+01  0.27408651573E+02  0.00000000000E+00 0.  1.
         22    1    1    2    0    0 -0.19259267711E+03  0.26047234999E+03 -0.25661389271E+03  0.41326562199E+03  0.00000000000E+00 0.  1.
<mgrwt>
<rscale>  0 0.82386204E+03</rscale>
<asrwt>0</asrwt>
<pdfrwt beam="1">  1        1 0.61662079E-01 0.82386204E+03</pdfrwt>
<pdfrwt beam="2">  1       -1 0.65133456E-01 0.82386204E+03</pdfrwt>
<totfact> 0.14463330E+02</totfact>
</mgrwt>
</event>
<event>
 6    1  0.1585031E-006  0.3248482E+04  0.7818608E-02  0.8176129E-01
          2   -1    0    0  501    0  0.00000000000E+00  0.00000000000E+00  0.27535789939E+04  0.27535789939E+04  0.00000000000E+00 0. -1.
         -2   -1    0    0    0  501 -0.00000000000E+00 -0.00000000000E+00 -0.95808333316E+03  0.95808333316E+03  0.00000000000E+00 0.  1.
         23    2    1    2    0    0 -0.55455289654E+02  0.90415421587E+03  0.24371258134E+04  0.26015905330E+04  0.90116237078E+02 0.  0.
         11    1    3    3    0    0 -0.88543037566E+01  0.16036198771E+03  0.34113422626E+03  0.37705029654E+03  0.00000000000E+00 0.  1.
        -11    1    3    3    0    0 -0.46600985898E+02  0.74379222815E+03  0.20959915871E+04  0.22245402365E+04  0.00000000000E+00 0. -1.
         22    1    1    2    0    0  0.55455289654E+02 -0.90415421587E+03 -0.64163015260E+03  0.11100717941E+04  0.00000000000E+00 0.  1.
<mgrwt>
<rscale>  0 0.32484816E+04</rscale>
<asrwt>0</asrwt>
<pdfrwt beam="1">  1        2 0.42362753E+00 0.32484816E+04</pdfrwt>
<pdfrwt beam="2">  1       -2 0.14739744E+00 0.32484816E+04</pdfrwt>
<totfact> 0.64891520E-01</totfact>
</mgrwt>
</event>
<event>
 6    1  0.1585031E-006  0.1027055E+04  0.7818608E-02  0.9279359E-01
         -2   -1    0    0    0  501 -0.00000000000E+00  0.00000000000E+00  0.78443116098E+02  0.78443116098E+02  0.00000000000E+00 0. -1.
          2   -1    0    0  501    0  0.00000000000E+00 -0.00000000000E+00 -0.33618064591E+04  0.33618064591E+04  0.00000000000E+00 0.  1.
         23    2    1    2    0    0  0.30981432455E+02  0.40615052074E+03 -0.26797320639E+04  0.27120402538E+04  0.90996204887E+02 0.  0.
         13    1    3    3    0    0  0.63345674414E+02  0.24988956249E+03 -0.16548562828E+04  0.16748154479E+04  0.00000000000E+00 0. -1.
        -13    1    3    3    0    0 -0.32364241959E+02  0.15626095825E+03 -0.10248757811E+04  0.10372248059E+04  0.00000000000E+00 0.  1.
         22    1    1    2    0    0 -0.30981432455E+02 -0.40615052074E+03 -0.60363127911E+03  0.72820932140E+03  0.00000000000E+00 0. -1.
<mgrwt>
<rscale>  0 0.10270552E+04</rscale>
<asrwt>0</asrwt>
<pdfrwt beam="1">  1        2 0.51720105E+00 0.10270552E+04</pdfrwt>
<pdfrwt beam="2">  1       -2 0.12068170E-01 0.10270552E+04</pdfrwt>
<totfact> 0.52699494E+01</totfact>
</mgrwt>
</event>
<event>
 6    1  0.1585031E-006  0.1645376E+04  0.7818608E-02  0.8793146E-01
          1   -1    0    0  501    0  0.00000000000E+00  0.00000000000E+00  0.17092952243E+04  0.17092952243E+04  0.00000000000E+00 0. -1.
         -1   -1    0    0    0  501 -0.00000000000E+00 -0.00000000000E+00 -0.39596192416E+03  0.39596192416E+03  0.00000000000E+00 0.  1.
         23    2    1    2    0    0  0.30208561965E+03  0.12235498962E+03  0.16217897106E+04  0.16565124301E+04  0.87207227273E+02 0.  0.
         11    1    3    3    0    0  0.90749520691E+02  0.61630199094E+01  0.58593894295E+03  0.59295691512E+03  0.00000000000E+00 0. -1.
        -11    1    3    3    0    0  0.21133609895E+03  0.11619196971E+03  0.10358507677E+04  0.10635555150E+04  0.00000000000E+00 0.  1.
         22    1    1    2    0    0 -0.30208561965E+03 -0.12235498962E+03 -0.30845641049E+03  0.44874471836E+03  0.00000000000E+00 0.  1.
<mgrwt>
<rscale>  0 0.16453763E+04</rscale>
<asrwt>0</asrwt>
<pdfrwt beam="1">  1        1 0.26296849E+00 0.16453763E+04</pdfrwt>
<pdfrwt beam="2">  1       -1 0.60917220E-01 0.16453763E+04</pdfrwt>
<totfact> 0.12270852E+01</totfact>
</mgrwt>
</event>
<event>
 6    1  0.1585031E-006  0.1400772E+04  0.7818608E-02  0.8953260E-01
         -2   -1    0    0    0  501 -0.00000000000E+00  0.00000000000E+00  0.23993036054E+03  0.23993036054E+03  0.00000000000E+00 0.  1.
          2   -1    0    0  501    0  0.00000000000E+00 -0.00000000000E+00 -0.20445122953E+04  0.20445122953E+04  0.00000000000E+00 0. -1.
         23    2    1    2    0    0  0.16841103946E+03 -0.39267953565E+03 -0.18050521892E+04  0.18571725808E+04  0.91198098959E+02 0.  0.
         11    1    3    3    0    0  0.11242735255E+03 -0.17337702704E+03 -0.73821280026E+03  0.76658831297E+03  0.00000000000E+00 0. -1.
        -11    1    3    3    0    0  0.55983686914E+02 -0.21930250860E+03 -0.10668393889E+04  0.10905842678E+04  0.00000000000E+00 0.  1.
         22    1    1    2    0    0 -0.16841103946E+03  0.39267953565E+03  0.47025438494E+00  0.42727007509E+03  0.00000000000E+00 0.  1.
<mgrwt>
<rscale>  0 0.14007720E+04</rscale>
<asrwt>0</asrwt>
<pdfrwt beam="1">  1        2 0.31454037E+00 0.14007720E+04</pdfrwt>
<pdfrwt beam="2">  1       -2 0.36912362E-01 0.14007720E+04</pdfrwt>
<totfact> 0.42504818E+01</totfact>
</mgrwt>
</event>
<event>
 6    1  0.2920765E-006  0.4388649E+04  0.7818608E-02  0.7930426E-01
         -2   -1    0    0    0  501 -0.00000000000E+00  0.00000000000E+00  0.16294853679E+04  0.16294853679E+04  0.00000000000E+00 0.  1.
          2   -1    0    0  501    0  0.00000000000E+00 -0.00000000000E+00 -0.29549573294E+04  0.29549573294E+04  0.00000000000E+00 0. -1.
         23    2    1    2    0    0  0.80558454813E+03  0.34134328844E+03  0.14379680843E+04  0.16858080892E+04  0.93354150563E+02 0.  0.
         13    1    3    3    0    0  0.43129310472E+03  0.13586566739E+03  0.70563612419E+03  0.83809042562E+03  0.00000000000E+00 0. -1.
        -13    1    3    3    0    0  0.37429144340E+03  0.20547762105E+03  0.73233196007E+03  0.84771766355E+03  0.00000000000E+00 0.  1.
         22    1    1    2    0    0 -0.80558454813E+03 -0.34134328844E+03 -0.27634400458E+04  0.28986346081E+04  0.00000000000E+00 0. -1.
<mgrwt>
<rscale>  0 0.43886489E+04</rscale>
<asrwt>0</asrwt>
<pdfrwt beam="1">  1        2 0.45460881E+00 0.43886489E+04</pdfrwt>
<pdfrwt beam="2">  1       -2 0.25069006E+00 0.43886489E+04</pdfrwt>
<totfact> 0.90340400E-02</totfact>
</mgrwt>
</event>
<event>
 6    1  0.1585031E-006  0.3219986E+04  0.7818608E-02  0.8183559E-01
          4   -1    0    0  501    0  0.00000000000E+00  0.00000000000E+00  0.22627910819E+04  0.22627910819E+04  0.00000000000E+00 0. -1.
         -4   -1    0    0    0  501 -0.00000000000E+00 -0.00000000000E+00 -0.11455223637E+04  0.11455223637E+04  0.00000000000E+00 0.  1.
         23    2    1    2    0    0  0.76785531147E+03 -0.13592934543E+03 -0.93032967984E+03  0.12172548509E+04  0.90097127884E+02 0.  0.
         11    1    3    3    0    0  0.18269737551E+03  0.23913210931E+00 -0.24961978134E+03  0.30933545454E+03  0.00000000000E+00 0. -1.
        -11    1    3    3    0    0  0.58515793595E+03 -0.13616847754E+03 -0.68070989850E+03  0.90791939632E+03  0.00000000000E+00 0.  1.
         22    1    1    2    0    0 -0.76785531147E+03  0.13592934543E+03  0.20475983980E+04  0.21910585948E+04  0.00000000000E+00 0. -1.
<mgrwt>
<rscale>  0 0.32199862E+04</rscale>
<asrwt>0</asrwt>
<pdfrwt beam="1">  1        4 0.34812170E+00 0.32199862E+04</pdfrwt>
<pdfrwt beam="2">  1       -4 0.17623421E+00 0.32199862E+04</pdfrwt>
<totfact> 0.48461212E-03</totfact>
</mgrwt>
</event>
<event>
 6    1  0.1585031E-006  0.8809854E+03  0.7818608E-02  0.9449668E-01
          2   -1    0    0  501    0  0.00000000000E+00  0.00000000000E+00  0.19303945497E+03  0.19303945497E+03  0.00000000000E+00 0. -1.
         -2   -1    0    0    0  501 -0.00000000000E+00 -0.00000000000E+00 -0.10051511763E+04  0.10051511763E+04  0.00000000000E+00 0.  1.
         23    2    1    2    0    0 -0.17036419311E+03 -0.22061446823E+03 -0.86620115090E+03  0.91425337011E+03  0.88657143243E+02 0.  0.
         11    1    3    3    0    0 -0.32152283245E+02 -0.29419661078E+01 -0.13876366655E+03  0.14247027633E+03  0.00000000000E+00 0. -1.
        -11    1    3    3    0    0 -0.13821190986E+03 -0.21767250212E+03 -0.72743748435E+03  0.77178309378E+03  0.00000000000E+00 0.  1.
         22    1    1    2    0    0  0.17036419311E+03  0.22061446823E+03  0.54089429564E+02  0.28393726116E+03  0.00000000000E+00 0. -1.
<mgrwt>
<rscale>  0 0.88098544E+03</rscale>
<asrwt>0</asrwt>
<pdfrwt beam="1">  1        2 0.29698378E-01 0.88098544E+03</pdfrwt>
<pdfrwt beam="2">  1       -2 0.15463864E+00 0.88098544E+03</pdfrwt>
<totfact> 0.49947474E+01</totfact>
</mgrwt>
</event>
<event>
 6    1  0.1585031E-006  0.3525618E+04  0.7818608E-02  0.8107745E-01
         -2   -1    0    0    0  501 -0.00000000000E+00  0.00000000000E+00  0.17407007181E+04  0.17407007181E+04  0.00000000000E+00 0.  1.
          2   -1    0    0  501    0  0.00000000000E+00 -0.00000000000E+00 -0.17851985262E+04  0.17851985262E+04  0.00000000000E+00 0. -1.
         23    2    1    2    0    0  0.11424720630E+04  0.16467544334E+02 -0.13631714351E+04  0.17810744023E+04  0.92065576180E+02 0.  0.
         13    1    3    3    0    0  0.70437680146E+03 -0.34636633674E+02 -0.83907102907E+03  0.10960778105E+04  0.00000000000E+00 0. -1.
        -13    1    3    3    0    0  0.43809526153E+03  0.51104178007E+02 -0.52410040599E+03  0.68499659177E+03  0.00000000000E+00 0.  1.
         22    1    1    2    0    0 -0.11424720630E+04 -0.16467544334E+02  0.13186736270E+04  0.17448248420E+04  0.00000000000E+00 0.  1.
<mgrwt>
<rscale>  0 0.35256184E+04</rscale>
<asrwt>0</asrwt>
<pdfrwt beam="1">  1        2 0.27464593E+00 0.35256184E+04</pdfrwt>
<pdfrwt beam="2">  1       -2 0.26780011E+00 0.35256184E+04</pdfrwt>
<totfact> 0.36047906E-01</totfact>
</mgrwt>
</event>
<event>
 6    1  0.1585031E-006  0.1208429E+04  0.7818608E-02  0.9105510E-01
         -1   -1    0    0    0  501 -0.00000000000E+00  0.00000000000E+00  0.65607565414E+03  0.65607565414E+03  0.00000000000E+00 0.  1.
          1   -1    0    0  501    0  0.00000000000E+00 -0.00000000000E+00 -0.55645313258E+03  0.55645313258E+03  0.00000000000E+00 0. -1.
         23    2    1    2    0    0 -0.47586859242E+03 -0.59589373470E+02  0.41317053882E+03  0.63954172769E+03  0.91114854075E+02 0.  0.
         11    1    3    3    0    0 -0.22208084019E+03 -0.23533758378E+02  0.13357035142E+03  0.26022062974E+03  0.00000000000E+00 0. -1.
        -11    1    3    3    0    0 -0.25378775223E+03 -0.36055615093E+02  0.27960018740E+03  0.37932109795E+03  0.00000000000E+00 0.  1.
         22    1    1    2    0    0  0.47586859242E+03  0.59589373470E+02 -0.31354801726E+03  0.57298705902E+03  0.00000000000E+00 0. -1.
<mgrwt>
<rscale>  0 0.12084293E+04</rscale>
<asrwt>0</asrwt>
<pdfrwt beam="1">  1        1 0.85608174E-01 0.12084293E+04</pdfrwt>
<pdfrwt beam="2">  1       -1 0.10093472E+00 0.12084293E+04</pdfrwt>
<totfact> 0.35229152E+01</totfact>
</mgrwt>
</event>
<event>
 6    1  0.1585031E-006  0.2520165E+04  0.7818608E-02  0.8395837E-01
         -1   -1    0    0    0  501 -0.00000000000E+00  0.00000000000E+00  0.78947330057E+03  0.78947330057E+03  0.00000000000E+00 0.  1.
          1   -1    0    0  501    0  0.00000000000E+00 -0.00000000000E+00 -0.20112236117E+04  0.20112236117E+04  0.00000000000E+00 0. -1.
         23    2    1    2    0    0  0.97013287665E+03  0.77296491113E+03 -0.37582432337E+03  0.12992897960E+04  0.90980765332E+02 0.  0.
         11    1    3    3    0    0  0.49747837806E+03  0.34262623867E+03 -0.16448333838E+03  0.62604492225E+03  0.00000000000E+00 0. -1.
        -11    1    3    3    0    0  0.47265449859E+03  0.43033867246E+03 -0.21134098499E+03  0.67324487372E+03  0.00000000000E+00 0.  1.
         22    1    1    2    0    0 -0.97013287665E+03 -0.77296491113E+03 -0.84592598780E+03  0.15014071163E+04  0.00000000000E+00 0. -1.
<mgrwt>
<rscale>  0 0.25201646E+04</rscale>
<asrwt>0</asrwt>
<pdfrwt beam="1">  1        1 0.30941902E+00 0.25201646E+04</pdfrwt>
<pdfrwt beam="2">  1       -1 0.12145743E+00 0.25201646E+04</pdfrwt>
<totfact> 0.15603552E+00</totfact>
</mgrwt>
</event>
<event>
 6    1  0.1585031E-006  0.1134034E+04  0.7818608E-02  0.9172640E-01
         -2   -1    0    0    0  501 -0.00000000000E+00  0.00000000000E+00  0.20923550760E+03  0.20923550760E+03  0.00000000000E+00 0.  1.
          2   -1    0    0  501    0  0.00000000000E+00 -0.00000000000E+00 -0.15365868968E+04  0.15365868968E+04  0.00000000000E+00 0. -1.
         23    2    1    2    0    0 -0.31368297969E+03 -0.44398966734E+03 -0.89544490262E+03  0.10515119194E+04  0.91279277851E+02 0.  0.
         11    1    3    3    0    0 -0.13243215816E+03 -0.11842694400E+03 -0.26072324447E+03  0.31549933088E+03  0.00000000000E+00 0.  1.
        -11    1    3    3    0    0 -0.18125082152E+03 -0.32556272334E+03 -0.63472165815E+03  0.73601258852E+03  0.00000000000E+00 0. -1.
         22    1    1    2    0    0  0.31368297969E+03  0.44398966734E+03 -0.43190648660E+03  0.69431048503E+03  0.00000000000E+00 0.  1.
<mgrwt>
<rscale>  0 0.11340345E+04</rscale>
<asrwt>0</asrwt>
<pdfrwt beam="1">  1        2 0.23639800E+00 0.11340345E+04</pdfrwt>
<pdfrwt beam="2">  1       -2 0.32190076E-01 0.11340345E+04</pdfrwt>
<totfact> 0.10767262E+02</totfact>
</mgrwt>
</event>
<event>
 6    1  0.1585031E-006  0.1672061E+04  0.7818608E-02  0.8777461E-01
          2   -1    0    0  501    0  0.00000000000E+00  0.00000000000E+00  0.11938984494E+04  0.11938984494E+04  0.00000000000E+00 0. -1.
         -2   -1    0    0    0  501 -0.00000000000E+00 -0.00000000000E+00 -0.58543247250E+03  0.58543247250E+03  0.00000000000E+00 0.  1.
         23    2    1    2    0    0 -0.64318655651E+03  0.50925883619E+03  0.14988145427E+03  0.83947280861E+03  0.96003319488E+02 0.  0.
         11    1    3    3    0    0 -0.20024497133E+03  0.12289318302E+03  0.93495418081E+01  0.23513442306E+03  0.00000000000E+00 0.  1.
        -11    1    3    3    0    0 -0.44294158518E+03  0.38636565318E+03  0.14053191246E+03  0.60433838555E+03  0.00000000000E+00 0. -1.
         22    1    1    2    0    0  0.64318655651E+03 -0.50925883619E+03  0.45858452262E+03  0.93985811328E+03  0.00000000000E+00 0.  1.
<mgrwt>
<rscale>  0 0.16720609E+04</rscale>
<asrwt>0</asrwt>
<pdfrwt beam="1">  1        2 0.18367668E+00 0.16720609E+04</pdfrwt>
<pdfrwt beam="2">  1       -2 0.90066535E-01 0.16720609E+04</pdfrwt>
<totfact> 0.19220177E+01</totfact>
</mgrwt>
</event>
<event>
 6    1  0.1585031E-006  0.1898249E+04  0.7818608E-02  0.8655728E-01
         -1   -1    0    0    0  501 -0.00000000000E+00  0.00000000000E+00  0.91062334752E+03  0.91062334752E+03  0.00000000000E+00 0.  1.
          1   -1    0    0  501    0  0.00000000000E+00 -0.00000000000E+00 -0.98925396379E+03  0.98925396379E+03  0.00000000000E+00 0. -1.
         23    2    1    2    0    0 -0.13274205215E+03  0.69045793626E+03  0.59550384661E+03  0.92580858262E+03  0.90244590768E+02 0.  0.
         13    1    3    3    0    0 -0.13535185664E+03  0.54159087538E+03  0.49568029151E+03  0.74655190897E+03  0.00000000000E+00 0. -1.
        -13    1    3    3    0    0  0.26098044892E+01  0.14886706088E+03  0.99823555099E+02  0.17925667365E+03  0.00000000000E+00 0.  1.
         22    1    1    2    0    0  0.13274205215E+03 -0.69045793626E+03 -0.67413446288E+03  0.97406872869E+03  0.00000000000E+00 0. -1.
<mgrwt>
<rscale>  0 0.18982495E+04</rscale>
<asrwt>0</asrwt>
<pdfrwt beam="1">  1        1 0.15219292E+00 0.18982495E+04</pdfrwt>
<pdfrwt beam="2">  1       -1 0.14009590E+00 0.18982495E+04</pdfrwt>
<totfact> 0.60410589E+00</totfact>
</mgrwt>
</event>
<event>
 6    1  0.1585031E-006  0.1938036E+04  0.7818608E-02  0.8636152E-01
          2   -1    0    0  501    0  0.00000000000E+00  0.00000000000E+00  0.81686688080E+03  0.81686688080E+03  0.00000000000E+00 0. -1.
         -2   -1    0    0    0  501 -0.00000000000E+00 -0.00000000000E+00 -0.11495087539E+04  0.11495087539E+04  0.00000000000E+00 0.  1.
         23    2    1    2    0    0 -0.15720907396E+03  0.94831262209E+03 -0.60135260702E+02  0.96724032055E+03  0.89028455965E+02 0.  0.
         13    1    3    3    0    0 -0.16209046452E+03  0.77517013209E+03 -0.41369218425E+02  0.79301542520E+03  0.00000000000E+00 0.  1.
        -13    1    3    3    0    0  0.48813905639E+01  0.17314249001E+03 -0.18766042277E+02  0.17422489536E+03  0.00000000000E+00 0. -1.
         22    1    1    2    0    0  0.15720907396E+03 -0.94831262209E+03 -0.27250661239E+03  0.99913531414E+03  0.00000000000E+00 0. -1.
<mgrwt>
<rscale>  0 0.19380357E+04</rscale>
<asrwt>0</asrwt>
<pdfrwt beam="1">  1        2 0.12567183E+00 0.19380357E+04</pdfrwt>
<pdfrwt beam="2">  1       -2 0.17684750E+00 0.19380357E+04</pdfrwt>
<totfact> 0.59618762E+00</totfact>
</mgrwt>
</event>
<event>
 6    1  0.1585031E-006  0.3029556E+04  0.7818608E-02  0.8235341E-01
         -2   -1    0    0    0  501 -0.00000000000E+00  0.00000000000E+00  0.23497574781E+04  0.23497574781E+04  0.00000000000E+00 0.  1.
          2   -1    0    0  501    0  0.00000000000E+00 -0.00000000000E+00 -0.97650619900E+03  0.97650619900E+03  0.00000000000E+00 0. -1.
         23    2    1    2    0    0 -0.53127271846E+03  0.11716116983E+04 -0.18793822395E+03  0.13033357651E+04  0.91862220559E+02 0.  0.
         11    1    3    3    0    0 -0.16670911438E+03  0.28959877303E+03 -0.24453653027E+02  0.33504829399E+03  0.00000000000E+00 0. -1.
        -11    1    3    3    0    0 -0.36456360409E+03  0.88201292523E+03 -0.16348457093E+03  0.96828747107E+03  0.00000000000E+00 0.  1.
         22    1    1    2    0    0  0.53127271846E+03 -0.11716116983E+04  0.15611895031E+04  0.20229279121E+04  0.00000000000E+00 0. -1.
<mgrwt>
<rscale>  0 0.30295562E+04</rscale>
<asrwt>0</asrwt>
<pdfrwt beam="1">  1        2 0.15023172E+00 0.30295562E+04</pdfrwt>
<pdfrwt beam="2">  1       -2 0.36150115E+00 0.30295562E+04</pdfrwt>
<totfact> 0.29293395E-01</totfact>
</mgrwt>
</event>
<event>
 6    1  0.1585031E-006  0.1335948E+04  0.7818608E-02  0.9001534E-01
          1   -1    0    0  501    0  0.00000000000E+00  0.00000000000E+00  0.12850609561E+04  0.12850609561E+04  0.00000000000E+00 0.  1.
         -1   -1    0    0    0  501 -0.00000000000E+00 -0.00000000000E+00 -0.34721261424E+03  0.34721261424E+03  0.00000000000E+00 0. -1.
         23    2    1    2    0    0 -0.47474492518E+03  0.25255224098E+03 -0.25400700321E+01  0.54899348485E+03  0.11055322720E+03 0.  0.
         13    1    3    3    0    0 -0.63049661793E+02  0.26234217014E+02 -0.37473188349E+02  0.77895659953E+02  0.00000000000E+00 0. -1.
        -13    1    3    3    0    0 -0.41169526339E+03  0.22631802396E+03  0.34933118317E+02  0.47109782490E+03  0.00000000000E+00 0.  1.
         22    1    1    2    0    0  0.47474492518E+03 -0.25255224098E+03  0.94038841191E+03  0.10832800855E+04  0.00000000000E+00 0.  1.
<mgrwt>
<rscale>  0 0.13359482E+04</rscale>
<asrwt>0</asrwt>
<pdfrwt beam="1">  1        1 0.19770168E+00 0.13359482E+04</pdfrwt>
<pdfrwt beam="2">  1       -1 0.53417326E-01 0.13359482E+04</pdfrwt>
<totfact> 0.32115401E+01</totfact>
</mgrwt>
</event>
<event>
 6    1  0.1585031E-006  0.2283736E+04  0.7818608E-02  0.8484361E-01
         -2   -1    0    0    0  501 -0.00000000000E+00  0.00000000000E+00  0.67638274775E+03  0.67638274775E+03  0.00000000000E+00 0.  1.
          2   -1    0    0  501    0  0.00000000000E+00 -0.00000000000E+00 -0.19276997869E+04  0.19276997869E+04  0.00000000000E+00 0. -1.
         23    2    1    2    0    0 -0.61793293430E+03 -0.26690970353E+03  0.42248936656E+03  0.80000111051E+03  0.91774783205E+02 0.  0.
         13    1    3    3    0    0 -0.34236059113E+02 -0.40554039541E+02  0.27687618307E+02  0.59861022996E+02  0.00000000000E+00 0.  1.
        -13    1    3    3    0    0 -0.58369687519E+03 -0.22635566399E+03  0.39480174825E+03  0.74014008751E+03  0.00000000000E+00 0. -1.
         22    1    1    2    0    0  0.61793293430E+03  0.26690970353E+03 -0.16738064057E+04  0.18040814241E+04  0.00000000000E+00 0. -1.
<mgrwt>
<rscale>  0 0.22837363E+04</rscale>
<asrwt>0</asrwt>
<pdfrwt beam="1">  1        2 0.29656919E+00 0.22837363E+04</pdfrwt>
<pdfrwt beam="2">  1       -2 0.10405889E+00 0.22837363E+04</pdfrwt>
<totfact> 0.49976353E+00</totfact>
</mgrwt>
</event>
<event>
 6    1  0.1585031E-006  0.1995907E+04  0.7818608E-02  0.8608537E-01
          1   -1    0    0  501    0  0.00000000000E+00  0.00000000000E+00  0.10441958242E+04  0.10441958242E+04  0.00000000000E+00 0. -1.
         -1   -1    0    0    0  501 -0.00000000000E+00 -0.00000000000E+00 -0.95375904449E+03  0.95375904449E+03  0.00000000000E+00 0.  1.
         23    2    1    2    0    0 -0.37331867990E+03  0.34495664408E+03  0.90224393025E+03  0.10401486395E+04  0.97484150463E+02 0.  0.
         11    1    3    3    0    0 -0.32907801169E+03  0.30012772087E+03  0.84426208734E+03  0.95454044374E+03  0.00000000000E+00 0. -1.
        -11    1    3    3    0    0 -0.44240668210E+02  0.44828923212E+02  0.57981842910E+02  0.85608195795E+02  0.00000000000E+00 0.  1.
         22    1    1    2    0    0  0.37331867990E+03 -0.34495664408E+03 -0.81180715051E+03  0.95780622919E+03  0.00000000000E+00 0.  1.
<mgrwt>
<rscale>  0 0.19959070E+04</rscale>
<asrwt>0</asrwt>
<pdfrwt beam="1">  1        1 0.16064551E+00 0.19959070E+04</pdfrwt>
<pdfrwt beam="2">  1       -1 0.14673216E+00 0.19959070E+04</pdfrwt>
<totfact> 0.48034124E+00</totfact>
</mgrwt>
</event>
<event>
 6    1  0.1585031E-006  0.1384695E+04  0.7818608E-02  0.8964972E-01
          1   -1    0    0  501    0  0.00000000000E+00  0.00000000000E+00  0.11702478421E+04  0.11702478421E+04  0.00000000000E+00 0. -1.
         -1   -1    0    0    0  501 -0.00000000000E+00 -0.00000000000E+00 -0.40960964781E+03  0.40960964781E+03  0.00000000000E+00 0.  1.
         23    2    1    2    0    0 -0.50483188064E+03 -0.46662016104E+03  0.32452358465E+03  0.76574106390E+03  0.91946819153E+02 0.  0.
         11    1    3    3    0    0 -0.63887764800E+02 -0.39911935323E+02  0.92988412753E+01  0.75901762307E+02  0.00000000000E+00 0. -1.
        -11    1    3    3    0    0 -0.44094411584E+03 -0.42670822572E+03  0.31522474338E+03  0.68983930159E+03  0.00000000000E+00 0.  1.
         22    1    1    2    0    0  0.50483188064E+03  0.46662016104E+03  0.43611460969E+03  0.81411642606E+03  0.00000000000E+00 0. -1.
<mgrwt>
<rscale>  0 0.13846946E+04</rscale>
<asrwt>0</asrwt>
<pdfrwt beam="1">  1        1 0.18003813E+00 0.13846946E+04</pdfrwt>
<pdfrwt beam="2">  1       -1 0.63016870E-01 0.13846946E+04</pdfrwt>
<totfact> 0.28019558E+01</totfact>
</mgrwt>
</event>
<event>
 6    1  0.1585031E-006  0.2598386E+04  0.7818608E-02  0.8368750E-01
         -2   -1    0    0    0  501 -0.00000000000E+00  0.00000000000E+00  0.91109337160E+03  0.91109337160E+03  0.00000000000E+00 0.  1.
          2   -1    0    0  501    0  0.00000000000E+00 -0.00000000000E+00 -0.18526119695E+04  0.18526119695E+04  0.00000000000E+00 0. -1.
         23    2    1    2    0    0  0.17903161645E+02  0.12919644777E+04 -0.34839301472E+03  0.13419843093E+04  0.10025696516E+03 0.  0.
         13    1    3    3    0    0  0.33641805383E+01  0.11229243824E+04 -0.33479707357E+03  0.11717762443E+04  0.00000000000E+00 0.  1.
        -13    1    3    3    0    0  0.14538981107E+02  0.16904009527E+03 -0.13595941142E+02  0.17020806502E+03  0.00000000000E+00 0. -1.
         22    1    1    2    0    0 -0.17903161645E+02 -0.12919644777E+04 -0.59312558319E+03  0.14217210318E+04  0.00000000000E+00 0. -1.
<mgrwt>
<rscale>  0 0.25983860E+04</rscale>
<asrwt>0</asrwt>
<pdfrwt beam="1">  1        2 0.28501723E+00 0.25983860E+04</pdfrwt>
<pdfrwt beam="2">  1       -2 0.14016821E+00 0.25983860E+04</pdfrwt>
<totfact> 0.25557068E+00</totfact>
</mgrwt>
</event>
<event>
 6    1  0.1585031E-006  0.1960354E+04  0.7818608E-02  0.8625384E-01
          1   -1    0    0  501    0  0.00000000000E+00  0.00000000000E+00  0.81797944859E+03  0.81797944859E+03  0.00000000000E+00 0. -1.
         -1   -1    0    0    0  501 -0.00000000000E+00 -0.00000000000E+00 -0.11745364380E+04  0.11745364380E+04  0.00000000000E+00 0.  1.
         23    2    1    2    0    0  0.30080175895E+03  0.24504318495E+03  0.73409622066E+03  0.83490961272E+03  0.87458216019E+02 0.  0.
         11    1    3    3    0    0  0.17768418496E+03  0.18619161193E+03  0.42209492168E+03  0.49437142802E+03  0.00000000000E+00 0.  1.
        -11    1    3    3    0    0  0.12311757399E+03  0.58851573019E+02  0.31200129898E+03  0.34053818470E+03  0.00000000000E+00 0. -1.
         22    1    1    2    0    0 -0.30080175895E+03 -0.24504318495E+03 -0.10906532101E+04  0.11576062739E+04  0.00000000000E+00 0.  1.
<mgrwt>
<rscale>  0 0.19603537E+04</rscale>
<asrwt>0</asrwt>
<pdfrwt beam="1">  1        1 0.12584299E+00 0.19603537E+04</pdfrwt>
<pdfrwt beam="2">  1       -1 0.18069791E+00 0.19603537E+04</pdfrwt>
<totfact> 0.40840273E+00</totfact>
</mgrwt>
</event>
<event>
 6    1  0.1585031E-006  0.1181764E+04  0.7818608E-02  0.9128970E-01
          1   -1    0    0  501    0  0.00000000000E+00  0.00000000000E+00  0.38821841762E+03  0.38821841762E+03  0.00000000000E+00 0. -1.
         -1   -1    0    0    0  501 -0.00000000000E+00 -0.00000000000E+00 -0.89934323497E+03  0.89934323497E+03  0.00000000000E+00 0.  1.
         23    2    1    2    0    0 -0.38430006109E+03 -0.43876930380E+03 -0.18123621833E+03  0.61746350555E+03  0.90606704742E+02 0.  0.
         11    1    3    3    0    0 -0.26795798332E+03 -0.28662694322E+03 -0.78597021665E+02  0.40016743648E+03  0.00000000000E+00 0. -1.
        -11    1    3    3    0    0 -0.11634207777E+03 -0.15214236058E+03 -0.10263919666E+03  0.21729606907E+03  0.00000000000E+00 0.  1.
         22    1    1    2    0    0  0.38430006109E+03  0.43876930380E+03 -0.32988859902E+03  0.67009814705E+03  0.00000000000E+00 0. -1.
<mgrwt>
<rscale>  0 0.11817641E+04</rscale>
<asrwt>0</asrwt>
<pdfrwt beam="1">  1        1 0.59725910E-01 0.11817641E+04</pdfrwt>
<pdfrwt beam="2">  1       -1 0.13836050E+00 0.11817641E+04</pdfrwt>
<totfact> 0.26749934E+01</totfact>
</mgrwt>
</event>
<event>
 6    1  0.1585031E-006  0.1219631E+04  0.7818608E-02  0.9095845E-01
          1   -1    0    0  501    0  0.00000000000E+00  0.00000000000E+00  0.14168357452E+04  0.14168357452E+04  0.00000000000E+00 0. -1.
         -1   -1    0    0    0  501 -0.00000000000E+00 -0.00000000000E+00 -0.26246843800E+03  0.26246843800E+03  0.00000000000E+00 0.  1.
         23    2    1    2    0    0 -0.42014358031E+03  0.17667181950E+03  0.29498842555E+02  0.46560627077E+03  0.90473519815E+02 0.  0.
         13    1    3    3    0    0 -0.37123065724E+03  0.12074995754E+03  0.24455996548E+02  0.39114044650E+03  0.00000000000E+00 0.  1.
        -13    1    3    3    0    0 -0.48912923071E+02  0.55921861963E+02  0.50428460069E+01  0.74465824273E+02  0.00000000000E+00 0. -1.
         22    1    1    2    0    0  0.42014358031E+03 -0.17667181950E+03  0.11248684646E+04  0.12136979124E+04  0.00000000000E+00 0. -1.
<mgrwt>
<rscale>  0 0.12196305E+04</rscale>
<asrwt>0</asrwt>
<pdfrwt beam="1">  1        1 0.21797473E+00 0.12196305E+04</pdfrwt>
<pdfrwt beam="2">  1       -1 0.40379760E-01 0.12196305E+04</pdfrwt>
<totfact> 0.44219828E+01</totfact>
</mgrwt>
</event>
<event>
 6    1  0.1585031E-006  0.1822355E+04  0.7818608E-02  0.8694501E-01
          2   -1    0    0  501    0  0.00000000000E+00  0.00000000000E+00  0.20050254879E+04  0.20050254879E+04  0.00000000000E+00 0. -1.
         -2   -1    0    0    0  501 -0.00000000000E+00 -0.00000000000E+00 -0.41408154090E+03  0.41408154090E+03  0.00000000000E+00 0.  1.
         23    2    1    2    0    0 -0.49346334618E+03  0.21240168404E+03  0.17707400834E+04  0.18525850081E+04  0.89051781987E+02 0.  0.
         13    1    3    3    0    0 -0.44575960389E+03  0.17363353619E+03  0.14791171262E+04  0.15545538596E+04  0.00000000000E+00 0. -1.
        -13    1    3    3    0    0 -0.47703742290E+02  0.38768147851E+02  0.29162295720E+03  0.29803114851E+03  0.00000000000E+00 0.  1.
         22    1    1    2    0    0  0.49346334618E+03 -0.21240168404E+03 -0.17979613631E+03  0.56652202079E+03  0.00000000000E+00 0.  1.
<mgrwt>
<rscale>  0 0.18223546E+04</rscale>
<asrwt>0</asrwt>
<pdfrwt beam="1">  1        2 0.30846545E+00 0.18223546E+04</pdfrwt>
<pdfrwt beam="2">  1       -2 0.63704854E-01 0.18223546E+04</pdfrwt>
<totfact> 0.14260575E+01</totfact>
</mgrwt>
</event>
<event>
 6    1  0.1585031E-006  0.1876755E+04  0.7818608E-02  0.8666514E-01
         -2   -1    0    0    0  501 -0.00000000000E+00  0.00000000000E+00  0.99466737814E+03  0.99466737814E+03  0.00000000000E+00 0.  1.
          2   -1    0    0  501    0  0.00000000000E+00 -0.00000000000E+00 -0.88527327251E+03  0.88527327251E+03  0.00000000000E+00 0. -1.
         23    2    1    2    0    0 -0.18504491284E+03 -0.41957486682E+03  0.87244053751E+03  0.98970217370E+03  0.89851057256E+02 0.  0.
         13    1    3    3    0    0 -0.50072507974E+02 -0.10167074533E+03  0.30554729643E+03  0.32588854976E+03  0.00000000000E+00 0. -1.
        -13    1    3    3    0    0 -0.13497240486E+03 -0.31790412149E+03  0.56689324109E+03  0.66381362394E+03  0.00000000000E+00 0.  1.
         22    1    1    2    0    0  0.18504491284E+03  0.41957486682E+03 -0.76304643188E+03  0.89023847695E+03  0.00000000000E+00 0. -1.
<mgrwt>
<rscale>  0 0.18767551E+04</rscale>
<asrwt>0</asrwt>
<pdfrwt beam="1">  1        2 0.13619589E+00 0.18767551E+04</pdfrwt>
<pdfrwt beam="2">  1       -2 0.15302575E+00 0.18767551E+04</pdfrwt>
<totfact> 0.79967695E+00</totfact>
</mgrwt>
</event>
<event>
 6    1  0.1585031E-006  0.3910508E+04  0.7818608E-02  0.8022847E-01
          1   -1    0    0  501    0  0.00000000000E+00  0.00000000000E+00  0.16982107240E+04  0.16982107240E+04  0.00000000000E+00 0. -1.
         -1   -1    0    0    0  501 -0.00000000000E+00 -0.00000000000E+00 -0.22512037245E+04  0.22512037245E+04  0.00000000000E+00 0.  1.
         23    2    1    2    0    0  0.10632107163E+04  0.90793463086E+03 -0.16562025989E+04  0.21684501763E+04  0.66383711682E+02 0.  0.
         13    1    3    3    0    0  0.96129946289E+02  0.69327605524E+02 -0.16589029224E+03  0.20387955396E+03  0.00000000000E+00 0. -1.
        -13    1    3    3    0    0  0.96708077002E+03  0.83860702534E+03 -0.14903123066E+04  0.19645706223E+04  0.00000000000E+00 0.  1.
         22    1    1    2    0    0 -0.10632107163E+04 -0.90793463086E+03  0.11032095983E+04  0.17809642723E+04  0.00000000000E+00 0. -1.
<mgrwt>
<rscale>  0 0.39105081E+04</rscale>
<asrwt>0</asrwt>
<pdfrwt beam="1">  1        1 0.26126319E+00 0.39105081E+04</pdfrwt>
<pdfrwt beam="2">  1       -1 0.34633904E+00 0.39105081E+04</pdfrwt>
<totfact> 0.61887081E-02</totfact>
</mgrwt>
</event>
<event>
 6    1  0.1585031E-006  0.1242819E+04  0.7818608E-02  0.9076182E-01
          2   -1    0    0  501    0  0.00000000000E+00  0.00000000000E+00  0.23179230142E+04  0.23179230142E+04  0.00000000000E+00 0. -1.
         -2   -1    0    0    0  501 -0.00000000000E+00 -0.00000000000E+00 -0.16659291817E+03  0.16659291817E+03  0.00000000000E+00 0.  1.
         23    2    1    2    0    0 -0.25735875250E+03 -0.30620500647E+03  0.20231149375E+04  0.20644752672E+04  0.95231534812E+02 0.  0.
         13    1    3    3    0    0 -0.74817010824E+02 -0.10113220957E+03  0.87463637382E+03  0.88363685716E+03  0.00000000000E+00 0. -1.
        -13    1    3    3    0    0 -0.18254174167E+03 -0.20507279690E+03  0.11484785637E+04  0.11808384101E+04  0.00000000000E+00 0.  1.
         22    1    1    2    0    0  0.25735875250E+03  0.30620500647E+03  0.12821515849E+03  0.42004066510E+03  0.00000000000E+00 0.  1.
<mgrwt>
<rscale>  0 0.12428187E+04</rscale>
<asrwt>0</asrwt>
<pdfrwt beam="1">  1        2 0.35660352E+00 0.12428187E+04</pdfrwt>
<pdfrwt beam="2">  1       -2 0.25629682E-01 0.12428187E+04</pdfrwt>
<totfact> 0.59965334E+01</totfact>
</mgrwt>
</event>
<event>
 6    1  0.1585031E-006  0.6865232E+04  0.7818608E-02  0.7591496E-01
          1   -1    0    0  501    0  0.00000000000E+00  0.00000000000E+00  0.43355902838E+04  0.43355902838E+04  0.00000000000E+00 0. -1.
         -1   -1    0    0    0  501 -0.00000000000E+00 -0.00000000000E+00 -0.27177041437E+04  0.27177041437E+04  0.00000000000E+00 0.  1.
         23    2    1    2    0    0 -0.10934607268E+04 -0.19368878362E+04  0.34944193303E+04  0.41432140738E+04  0.89808434290E+02 0.  0.
         13    1    3    3    0    0 -0.45238149181E+03 -0.85225190259E+03  0.15842404697E+04  0.18549394021E+04  0.00000000000E+00 0. -1.
        -13    1    3    3    0    0 -0.64107923497E+03 -0.10846359336E+04  0.19101788605E+04  0.22882746717E+04  0.00000000000E+00 0.  1.
         22    1    1    2    0    0  0.10934607268E+04  0.19368878362E+04 -0.18765331901E+04  0.29100803536E+04  0.00000000000E+00 0.  1.
<mgrwt>
<rscale>  0 0.68652317E+04</rscale>
<asrwt>0</asrwt>
<pdfrwt beam="1">  1        1 0.66701389E+00 0.68652317E+04</pdfrwt>
<pdfrwt beam="2">  1       -1 0.41810833E+00 0.68652317E+04</pdfrwt>
<totfact> 0.15727335E-04</totfact>
</mgrwt>
</event>
<event>
 6    1  0.1585031E-006  0.1644196E+04  0.7818608E-02  0.8793847E-01
         -1   -1    0    0    0  501 -0.00000000000E+00  0.00000000000E+00  0.78246843072E+03  0.78246843072E+03  0.00000000000E+00 0.  1.
          1   -1    0    0  501    0  0.00000000000E+00 -0.00000000000E+00 -0.86373506314E+03  0.86373506314E+03  0.00000000000E+00 0. -1.
         23    2    1    2    0    0  0.16759297576E+03 -0.46529380925E+03 -0.69499305736E+03  0.85801198216E+03  0.92647057662E+02 0.  0.
         11    1    3    3    0    0  0.10888929073E+03 -0.22649045736E+03 -0.41689957810E+03  0.48678543850E+03  0.00000000000E+00 0.  1.
        -11    1    3    3    0    0  0.58703685031E+02 -0.23880335190E+03 -0.27809347925E+03  0.37122654366E+03  0.00000000000E+00 0. -1.
         22    1    1    2    0    0 -0.16759297576E+03  0.46529380925E+03  0.61372642494E+03  0.78819151171E+03  0.00000000000E+00 0.  1.
<mgrwt>
<rscale>  0 0.16441964E+04</rscale>
<asrwt>0</asrwt>
<pdfrwt beam="1">  1        1 0.13288232E+00 0.16441964E+04</pdfrwt>
<pdfrwt beam="2">  1       -1 0.12037976E+00 0.16441964E+04</pdfrwt>
<totfact> 0.11456014E+01</totfact>
</mgrwt>
</event>
<event>
 6    1  0.1585031E-006  0.4219160E+04  0.7818608E-02  0.7961738E-01
          1   -1    0    0  501    0  0.00000000000E+00  0.00000000000E+00  0.20808233563E+04  0.20808233563E+04  0.00000000000E+00 0. -1.
         -1   -1    0    0    0  501 -0.00000000000E+00 -0.00000000000E+00 -0.21387340299E+04  0.21387340299E+04  0.00000000000E+00 0.  1.
         23    2    1    2    0    0 -0.18932002453E+04  0.67110381262E+03  0.61261304469E+03  0.21019668797E+04  0.91556129759E+02 0.  0.
         11    1    3    3    0    0 -0.17295926969E+04  0.58846364765E+03  0.56959034326E+03  0.19136910725E+04  0.00000000000E+00 0.  1.
        -11    1    3    3    0    0 -0.16360754836E+03  0.82640164971E+02  0.43022701429E+02  0.18827580722E+03  0.00000000000E+00 0. -1.
         22    1    1    2    0    0  0.18932002453E+04 -0.67110381262E+03 -0.67052371829E+03  0.21175905064E+04  0.00000000000E+00 0.  1.
<mgrwt>
<rscale>  0 0.42191600E+04</rscale>
<asrwt>0</asrwt>
<pdfrwt beam="1">  1        1 0.32012667E+00 0.42191600E+04</pdfrwt>
<pdfrwt beam="2">  1       -1 0.32903600E+00 0.42191600E+04</pdfrwt>
<totfact> 0.43120046E-02</totfact>
</mgrwt>
</event>
<event>
 6    1  0.1585031E-006  0.1620158E+04  0.7818608E-02  0.8808259E-01
         -2   -1    0    0    0  501 -0.00000000000E+00  0.00000000000E+00  0.46257700802E+03  0.46257700802E+03  0.00000000000E+00 0.  1.
          2   -1    0    0  501    0  0.00000000000E+00 -0.00000000000E+00 -0.14186345240E+04  0.14186345240E+04  0.00000000000E+00 0. -1.
         23    2    1    2    0    0  0.36933246848E+03  0.38745674857E+02  0.35323905890E+03  0.52026876299E+03  0.89409470522E+02 0.  0.
         13    1    3    3    0    0  0.20145746113E+02  0.13540177116E+02  0.55913495295E+02  0.60954954178E+02  0.00000000000E+00 0.  1.
        -13    1    3    3    0    0  0.34918672237E+03  0.25205497742E+02  0.29732556360E+03  0.45931380881E+03  0.00000000000E+00 0. -1.
         22    1    1    2    0    0 -0.36933246848E+03 -0.38745674857E+02 -0.13092965749E+04  0.13609427691E+04  0.00000000000E+00 0. -1.
<mgrwt>
<rscale>  0 0.16201577E+04</rscale>
<asrwt>0</asrwt>
<pdfrwt beam="1">  1        2 0.21825147E+00 0.16201577E+04</pdfrwt>
<pdfrwt beam="2">  1       -2 0.71165693E-01 0.16201577E+04</pdfrwt>
<totfact> 0.24236984E+01</totfact>
</mgrwt>
</event>
<event>
 6    1  0.1585031E-006  0.1424987E+04  0.7818608E-02  0.8935928E-01
         -2   -1    0    0    0  501 -0.00000000000E+00  0.00000000000E+00  0.12965059321E+04  0.12965059321E+04  0.00000000000E+00 0.  1.
          2   -1    0    0  501    0  0.00000000000E+00 -0.00000000000E+00 -0.39154997586E+03  0.39154997586E+03  0.00000000000E+00 0. -1.
         23    2    1    2    0    0  0.51364571992E+03 -0.31148096931E+02 -0.12426566591E+03  0.53736078021E+03  0.92263334290E+02 0.  0.
         11    1    3    3    0    0  0.28313782790E+03 -0.86701126130E+00 -0.11219947249E+03  0.30455952279E+03  0.00000000000E+00 0.  1.
        -11    1    3    3    0    0  0.23050789202E+03 -0.30281085670E+02 -0.12066193412E+02  0.23280125742E+03  0.00000000000E+00 0. -1.
         22    1    1    2    0    0 -0.51364571992E+03  0.31148096931E+02  0.10292216222E+04  0.11506951278E+04  0.00000000000E+00 0.  1.
<mgrwt>
<rscale>  0 0.14249868E+04</rscale>
<asrwt>0</asrwt>
<pdfrwt beam="1">  1        2 0.60238458E-01 0.14249868E+04</pdfrwt>
<pdfrwt beam="2">  1       -2 0.19946245E+00 0.14249868E+04</pdfrwt>
<totfact> 0.10601393E+01</totfact>
</mgrwt>
</event>
<event>
 6    1  0.1585031E-006  0.2803793E+04  0.7818608E-02  0.8302092E-01
          2   -1    0    0  501    0  0.00000000000E+00  0.00000000000E+00  0.34732508318E+04  0.34732508318E+04  0.00000000000E+00 0. -1.
         -2   -1    0    0    0  501 -0.00000000000E+00 -0.00000000000E+00 -0.56584267006E+03  0.56584267006E+03  0.00000000000E+00 0.  1.
         23    2    1    2    0    0  0.13551008374E+04 -0.27033004350E+03  0.11261435053E+04  0.17847021454E+04  0.87097308011E+02 0.  0.
         13    1    3    3    0    0  0.48735831519E+03 -0.79754262994E+02  0.35380066167E+03  0.60749796547E+03  0.00000000000E+00 0. -1.
        -13    1    3    3    0    0  0.86774252224E+03 -0.19057578050E+03  0.77234284367E+03  0.11772041799E+04  0.00000000000E+00 0.  1.
         22    1    1    2    0    0 -0.13551008374E+04  0.27033004350E+03  0.17812646564E+04  0.22543913565E+04  0.00000000000E+00 0. -1.
<mgrwt>
<rscale>  0 0.28037928E+04</rscale>
<asrwt>0</asrwt>
<pdfrwt beam="1">  1        2 0.53434627E+00 0.28037928E+04</pdfrwt>
<pdfrwt beam="2">  1       -2 0.87052721E-01 0.28037928E+04</pdfrwt>
<totfact> 0.84216249E-01</totfact>
</mgrwt>
</event>
<event>
 6    1  0.1749619E-006  0.2670760E+04  0.7818608E-02  0.8344555E-01
         -1   -1    0    0    0  501 -0.00000000000E+00  0.00000000000E+00  0.11859986330E+04  0.11859986330E+04  0.00000000000E+00 0.  1.
          1   -1    0    0  501    0  0.00000000000E+00 -0.00000000000E+00 -0.15035764370E+04  0.15035764370E+04  0.00000000000E+00 0. -1.
         23    2    1    2    0    0 -0.10870804707E+04  0.71760530583E+03  0.12949259096E+03  0.13124137641E+04  0.94658504317E+02 0.  0.
         13    1    3    3    0    0 -0.60495806082E+03  0.35682058710E+03  0.10096103340E+03  0.70956910656E+03  0.00000000000E+00 0. -1.
        -13    1    3    3    0    0 -0.48212240984E+03  0.36078471873E+03  0.28531557565E+02  0.60284465753E+03  0.00000000000E+00 0.  1.
         22    1    1    2    0    0  0.10870804707E+04 -0.71760530583E+03 -0.44707039493E+03  0.13771613060E+04  0.00000000000E+00 0. -1.
<mgrwt>
<rscale>  0 0.26707599E+04</rscale>
<asrwt>0</asrwt>
<pdfrwt beam="1">  1        1 0.23131945E+00 0.26707599E+04</pdfrwt>
<pdfrwt beam="2">  1       -1 0.18246133E+00 0.26707599E+04</pdfrwt>
<totfact> 0.11377937E+00</totfact>
</mgrwt>
</event>
<event>
 6    1  0.1585031E-006  0.2619390E+04  0.7818608E-02  0.8361644E-01
          2   -1    0    0  501    0  0.00000000000E+00  0.00000000000E+00  0.42351687316E+04  0.42351687316E+04  0.00000000000E+00 0. -1.
         -2   -1    0    0    0  501 -0.00000000000E+00 -0.00000000000E+00 -0.40501366826E+03  0.40501366826E+03  0.00000000000E+00 0.  1.
         23    2    1    2    0    0 -0.77477560962E+03 -0.97266358706E+03  0.26367640450E+04  0.29166587356E+04  0.89564790631E+02 0.  0.
         11    1    3    3    0    0 -0.22039032593E+03 -0.22312136229E+03  0.71117076962E+03  0.77725086146E+03  0.00000000000E+00 0.  1.
        -11    1    3    3    0    0 -0.55438528369E+03 -0.74954222476E+03  0.19255932754E+04  0.21394078741E+04  0.00000000000E+00 0. -1.
         22    1    1    2    0    0  0.77477560962E+03  0.97266358706E+03  0.11933910184E+04  0.17235236643E+04  0.00000000000E+00 0. -1.
<mgrwt>
<rscale>  0 0.26193902E+04</rscale>
<asrwt>0</asrwt>
<pdfrwt beam="1">  1        2 0.65156439E+00 0.26193902E+04</pdfrwt>
<pdfrwt beam="2">  1       -2 0.62309798E-01 0.26193902E+04</pdfrwt>
<totfact> 0.45868620E-01</totfact>
</mgrwt>
</event>
<event>
 6    1  0.1585031E-006  0.1394670E+04  0.7818608E-02  0.8957685E-01
         -1   -1    0    0    0  501 -0.00000000000E+00  0.00000000000E+00  0.44375254357E+03  0.44375254357E+03  0.00000000000E+00 0.  1.
          1   -1    0    0  501    0  0.00000000000E+00 -0.00000000000E+00 -0.10958277231E+04  0.10958277231E+04  0.00000000000E+00 0. -1.
         23    2    1    2    0    0 -0.48819457863E+03 -0.36313094705E+03 -0.69700102864E+03  0.92948489442E+03  0.89071340596E+02 0.  0.
         13    1    3    3    0    0 -0.28500869766E+03 -0.15668997749E+03 -0.37277325859E+03  0.49471366376E+03  0.00000000000E+00 0. -1.
        -13    1    3    3    0    0 -0.20318588097E+03 -0.20644096956E+03 -0.32422777005E+03  0.43477123066E+03  0.00000000000E+00 0.  1.
         22    1    1    2    0    0  0.48819457863E+03  0.36313094705E+03  0.44925849129E+02  0.61009537224E+03  0.00000000000E+00 0.  1.
<mgrwt>
<rscale>  0 0.13946703E+04</rscale>
<asrwt>0</asrwt>
<pdfrwt beam="1">  1        1 0.16858888E+00 0.13946703E+04</pdfrwt>
<pdfrwt beam="2">  1       -1 0.68269622E-01 0.13946703E+04</pdfrwt>
<totfact> 0.27059447E+01</totfact>
</mgrwt>
</event>
<event>
 6    1  0.1585031E-006  0.2065974E+04  0.7818608E-02  0.8576382E-01
         -2   -1    0    0    0  501 -0.00000000000E+00  0.00000000000E+00  0.93518547758E+03  0.93518547758E+03  0.00000000000E+00 0.  1.
          2   -1    0    0  501    0  0.00000000000E+00 -0.00000000000E+00 -0.11410171003E+04  0.11410171003E+04  0.00000000000E+00 0. -1.
         23    2    1    2    0    0 -0.39573246875E+03 -0.13202140972E+03 -0.10499350392E+04  0.11346377012E+04  0.10490608580E+03 0.  0.
         11    1    3    3    0    0 -0.23286894574E+03 -0.67722111375E+02 -0.47049857207E+03  0.52932328172E+03  0.00000000000E+00 0.  1.
        -11    1    3    3    0    0 -0.16286352301E+03 -0.64299298340E+02 -0.57943646716E+03  0.60531441943E+03  0.00000000000E+00 0. -1.
         22    1    1    2    0    0  0.39573246875E+03  0.13202140972E+03  0.84410341647E+03  0.94156487675E+03  0.00000000000E+00 0.  1.
<mgrwt>
<rscale>  0 0.20659745E+04</rscale>
<asrwt>0</asrwt>
<pdfrwt beam="1">  1        2 0.17554109E+00 0.20659745E+04</pdfrwt>
<pdfrwt beam="2">  1       -2 0.14387469E+00 0.20659745E+04</pdfrwt>
<totfact> 0.63545798E+00</totfact>
</mgrwt>
</event>
<event>
 6    1  0.1585031E-006  0.3104574E+04  0.7818608E-02  0.8214484E-01
          2   -1    0    0  501    0  0.00000000000E+00  0.00000000000E+00  0.28316861302E+04  0.28316861302E+04  0.00000000000E+00 0. -1.
         -2   -1    0    0    0  501 -0.00000000000E+00 -0.00000000000E+00 -0.85094009026E+03  0.85094009026E+03  0.00000000000E+00 0.  1.
         23    2    1    2    0    0  0.11276122740E+04 -0.46161992983E+02  0.22531813919E+04  0.25216518921E+04  0.90892850262E+02 0.  0.
         13    1    3    3    0    0  0.81714548682E+03 -0.97619668063E+01  0.15539621725E+04  0.17557392962E+04  0.00000000000E+00 0.  1.
        -13    1    3    3    0    0  0.31046678716E+03 -0.36400026177E+02  0.69921921935E+03  0.76591259589E+03  0.00000000000E+00 0. -1.
         22    1    1    2    0    0 -0.11276122740E+04  0.46161992983E+02 -0.27243535197E+03  0.11609743283E+04  0.00000000000E+00 0.  1.
<mgrwt>
<rscale>  0 0.31045742E+04</rscale>
<asrwt>0</asrwt>
<pdfrwt beam="1">  1        2 0.43564401E+00 0.31045742E+04</pdfrwt>
<pdfrwt beam="2">  1       -2 0.13091386E+00 0.31045742E+04</pdfrwt>
<totfact> 0.80063407E-01</totfact>
</mgrwt>
</event>
<event>
 6    1  0.1585031E-006  0.2886532E+04  0.7818608E-02  0.8276896E-01
         -1   -1    0    0    0  501 -0.00000000000E+00  0.00000000000E+00  0.21247366963E+04  0.21247366963E+04  0.00000000000E+00 0.  1.
          1   -1    0    0  501    0  0.00000000000E+00 -0.00000000000E+00 -0.98036433000E+03  0.98036433000E+03  0.00000000000E+00 0. -1.
         23    2    1    2    0    0  0.58966103168E+03  0.21213814673E+03  0.19696021435E+04  0.20689027293E+04  0.91231430618E+02 0.  0.
         11    1    3    3    0    0  0.44499000734E+03  0.11760913756E+03  0.14096995526E+04  0.14829365612E+04  0.00000000000E+00 0. -1.
        -11    1    3    3    0    0  0.14467102434E+03  0.94529009169E+02  0.55990259090E+03  0.58596616810E+03  0.00000000000E+00 0.  1.
         22    1    1    2    0    0 -0.58966103168E+03 -0.21213814673E+03 -0.82522977720E+03  0.10361982970E+04  0.00000000000E+00 0. -1.
<mgrwt>
<rscale>  0 0.28865315E+04</rscale>
<asrwt>0</asrwt>
<pdfrwt beam="1">  1        1 0.15082528E+00 0.28865315E+04</pdfrwt>
<pdfrwt beam="2">  1       -1 0.32688257E+00 0.28865315E+04</pdfrwt>
<totfact> 0.29725607E-01</totfact>
</mgrwt>
</event>
<event>
 6    1  0.1585031E-006  0.1189598E+04  0.7818608E-02  0.9122010E-01
          2   -1    0    0  501    0  0.00000000000E+00  0.00000000000E+00  0.67230205954E+03  0.67230205954E+03  0.00000000000E+00 0.  1.
         -2   -1    0    0    0  501 -0.00000000000E+00 -0.00000000000E+00 -0.52623044716E+03  0.52623044716E+03  0.00000000000E+00 0. -1.
         23    2    1    2    0    0  0.48264440802E+03  0.13383517006E+03  0.39008404491E+03  0.64139738435E+03  0.91474396511E+02 0.  0.
         11    1    3    3    0    0  0.34167079573E+03  0.72870455330E+02  0.31516471185E+03  0.47050805680E+03  0.00000000000E+00 0.  1.
        -11    1    3    3    0    0  0.14097361229E+03  0.60964714735E+02  0.74919333054E+02  0.17088932755E+03  0.00000000000E+00 0. -1.
         22    1    1    2    0    0 -0.48264440802E+03 -0.13383517006E+03 -0.24401243252E+03  0.55713512235E+03  0.00000000000E+00 0. -1.
<mgrwt>
<rscale>  0 0.11895979E+04</rscale>
<asrwt>0</asrwt>
<pdfrwt beam="1">  1        2 0.10343109E+00 0.11895979E+04</pdfrwt>
<pdfrwt beam="2">  1       -2 0.80958530E-01 0.11895979E+04</pdfrwt>
<totfact> 0.57314019E+01</totfact>
</mgrwt>
</event>
<event>
 6    1  0.1585031E-006  0.2329308E+04  0.7818608E-02  0.8466454E-01
         -3   -1    0    0    0  501 -0.00000000000E+00  0.00000000000E+00  0.37482009855E+03  0.37482009855E+03  0.00000000000E+00 0.  1.
          3   -1    0    0  501    0  0.00000000000E+00 -0.00000000000E+00 -0.36188544709E+04  0.36188544709E+04  0.00000000000E+00 0. -1.
         23    2    1    2    0    0 -0.88127725025E+03 -0.71476279729E+03 -0.20622823130E+04  0.23553603817E+04  0.84727449600E+02 0.  0.
         11    1    3    3    0    0 -0.61258537658E+03 -0.45582301382E+03 -0.13352590688E+04  0.15381652201E+04  0.00000000000E+00 0. -1.
        -11    1    3    3    0    0 -0.26869187368E+03 -0.25893978347E+03 -0.72702324419E+03  0.81719516153E+03  0.00000000000E+00 0.  1.
         22    1    1    2    0    0  0.88127725025E+03  0.71476279729E+03 -0.11817520594E+04  0.16383141878E+04  0.00000000000E+00 0.  1.
<mgrwt>
<rscale>  0 0.23293084E+04</rscale>
<asrwt>0</asrwt>
<pdfrwt beam="1">  1        3 0.55674688E+00 0.23293084E+04</pdfrwt>
<pdfrwt beam="2">  1       -3 0.57664627E-01 0.23293084E+04</pdfrwt>
<totfact> 0.12728099E-02</totfact>
</mgrwt>
</event>
<event>
 6    1  0.1585031E-006  0.1781524E+04  0.7818608E-02  0.8716187E-01
          2   -1    0    0  501    0  0.00000000000E+00  0.00000000000E+00  0.13631110640E+04  0.13631110640E+04  0.00000000000E+00 0. -1.
         -2   -1    0    0    0  501 -0.00000000000E+00 -0.00000000000E+00 -0.58209261092E+03  0.58209261092E+03  0.00000000000E+00 0.  1.
         23    2    1    2    0    0  0.73198440162E+03 -0.18612448874E+03  0.90252434837E+03  0.11802153273E+04  0.88963643033E+02 0.  0.
         11    1    3    3    0    0  0.27333386219E+03 -0.54909141667E+02  0.39726376434E+03  0.48532969466E+03  0.00000000000E+00 0. -1.
        -11    1    3    3    0    0  0.45865053943E+03 -0.13121534707E+03  0.50526058403E+03  0.69488563261E+03  0.00000000000E+00 0.  1.
         22    1    1    2    0    0 -0.73198440162E+03  0.18612448874E+03 -0.12150589525E+03  0.76498834769E+03  0.00000000000E+00 0. -1.
<mgrwt>
<rscale>  0 0.17815239E+04</rscale>
<asrwt>0</asrwt>
<pdfrwt beam="1">  1        2 0.20970939E+00 0.17815239E+04</pdfrwt>
<pdfrwt beam="2">  1       -2 0.89552710E-01 0.17815239E+04</pdfrwt>
<totfact> 0.15359186E+01</totfact>
</mgrwt>
</event>
<event>
 6    1  0.1585031E-006  0.1413705E+04  0.7818608E-02  0.8943957E-01
          2   -1    0    0  501    0  0.00000000000E+00  0.00000000000E+00  0.81067677817E+03  0.81067677817E+03  0.00000000000E+00 0. -1.
         -2   -1    0    0    0  501 -0.00000000000E+00 -0.00000000000E+00 -0.61632549022E+03  0.61632549022E+03  0.00000000000E+00 0.  1.
         23    2    1    2    0    0  0.25444290446E+03 -0.62924783125E+03  0.28560671345E+03  0.74215076810E+03  0.92317620572E+02 0.  0.
         13    1    3    3    0    0  0.10017212538E+03 -0.14309231044E+03  0.82121495143E+02  0.19301244513E+03  0.00000000000E+00 0. -1.
        -13    1    3    3    0    0  0.15427077908E+03 -0.48615552081E+03  0.20348521830E+03  0.54913832297E+03  0.00000000000E+00 0.  1.
         22    1    1    2    0    0 -0.25444290446E+03  0.62924783125E+03 -0.91255425504E+02  0.68485150029E+03  0.00000000000E+00 0.  1.
<mgrwt>
<rscale>  0 0.14137054E+04</rscale>
<asrwt>0</asrwt>
<pdfrwt beam="1">  1        2 0.12471950E+00 0.14137054E+04</pdfrwt>
<pdfrwt beam="2">  1       -2 0.94819307E-01 0.14137054E+04</pdfrwt>
<totfact> 0.30813398E+01</totfact>
</mgrwt>
</event>
<event>
 6    1  0.1585031E-006  0.1321963E+04  0.7818608E-02  0.9012327E-01
         -2   -1    0    0    0  501 -0.00000000000E+00  0.00000000000E+00  0.18329843862E+03  0.18329843862E+03  0.00000000000E+00 0.  1.
          2   -1    0    0  501    0  0.00000000000E+00 -0.00000000000E+00 -0.23835270563E+04  0.23835270563E+04  0.00000000000E+00 0. -1.
         23    2    1    2    0    0 -0.23123062486E+03 -0.16197413592E+03 -0.22591454313E+04  0.22784257489E+04  0.88218993687E+02 0.  0.
         11    1    3    3    0    0 -0.60937397282E+01  0.86927438328E+01 -0.16041766367E+03  0.16076854256E+03  0.00000000000E+00 0. -1.
        -11    1    3    3    0    0 -0.22513688514E+03 -0.17066687975E+03 -0.20987277676E+04  0.21176572063E+04  0.00000000000E+00 0.  1.
         22    1    1    2    0    0  0.23123062486E+03  0.16197413592E+03  0.58916813617E+02  0.28839974603E+03  0.00000000000E+00 0.  1.
<mgrwt>
<rscale>  0 0.13219634E+04</rscale>
<asrwt>0</asrwt>
<pdfrwt beam="1">  1        2 0.36669645E+00 0.13219634E+04</pdfrwt>
<pdfrwt beam="2">  1       -2 0.28199761E-01 0.13219634E+04</pdfrwt>
<totfact> 0.45902565E+01</totfact>
</mgrwt>
</event>
<event>
 6    1  0.1585031E-006  0.2102736E+04  0.7818608E-02  0.8560039E-01
         -1   -1    0    0    0  501 -0.00000000000E+00  0.00000000000E+00  0.56314618555E+03  0.56314618555E+03  0.00000000000E+00 0.  1.
          1   -1    0    0  501    0  0.00000000000E+00 -0.00000000000E+00 -0.19628551674E+04  0.19628551674E+04  0.00000000000E+00 0. -1.
         23    2    1    2    0    0  0.35606349369E+03 -0.27718630909E+03  0.43694893586E+03  0.63472512560E+03  0.91313476718E+02 0.  0.
         11    1    3    3    0    0  0.67070328820E+02 -0.10279154006E+03  0.12265496249E+03  0.17351878728E+03  0.00000000000E+00 0. -1.
        -11    1    3    3    0    0  0.28899316487E+03 -0.17439476903E+03  0.31429397337E+03  0.46120633831E+03  0.00000000000E+00 0.  1.
         22    1    1    2    0    0 -0.35606349369E+03  0.27718630909E+03 -0.18366579177E+04  0.18912762274E+04  0.00000000000E+00 0. -1.
<mgrwt>
<rscale>  0 0.21027357E+04</rscale>
<asrwt>0</asrwt>
<pdfrwt beam="1">  1        1 0.30197772E+00 0.21027357E+04</pdfrwt>
<pdfrwt beam="2">  1       -1 0.86637875E-01 0.21027357E+04</pdfrwt>
<totfact> 0.38131330E+00</totfact>
</mgrwt>
</event>
<event>
 6    1  0.1585031E-006  0.2104745E+04  0.7818608E-02  0.8559156E-01
          2   -1    0    0  501    0  0.00000000000E+00  0.00000000000E+00  0.30684436470E+04  0.30684436470E+04  0.00000000000E+00 0. -1.
         -2   -1    0    0    0  501 -0.00000000000E+00 -0.00000000000E+00 -0.36092837059E+03  0.36092837059E+03  0.00000000000E+00 0.  1.
         23    2    1    2    0    0  0.48950631868E+03 -0.91167580920E+03  0.16542329412E+04  0.19528311631E+04  0.79332912802E+02 0.  0.
         11    1    3    3    0    0  0.26329712047E+03 -0.52905018056E+03  0.10089532367E+04  0.11692758874E+04  0.00000000000E+00 0.  1.
        -11    1    3    3    0    0  0.22620919821E+03 -0.38262562864E+03  0.64527970450E+03  0.78355527571E+03  0.00000000000E+00 0. -1.
         22    1    1    2    0    0 -0.48950631868E+03  0.91167580920E+03  0.10532823353E+04  0.14765408545E+04  0.00000000000E+00 0.  1.
<mgrwt>
<rscale>  0 0.21047455E+04</rscale>
<asrwt>0</asrwt>
<pdfrwt beam="1">  1        2 0.47206824E+00 0.21047455E+04</pdfrwt>
<pdfrwt beam="2">  1       -2 0.55527444E-01 0.21047455E+04</pdfrwt>
<totfact> 0.44344520E+00</totfact>
</mgrwt>
</event>
<event>
 6    1  0.1585031E-006  0.2343345E+04  0.7818608E-02  0.8461024E-01
          2   -1    0    0  501    0  0.00000000000E+00  0.00000000000E+00  0.15150520880E+04  0.15150520880E+04  0.00000000000E+00 0.  1.
         -2   -1    0    0    0  501 -0.00000000000E+00 -0.00000000000E+00 -0.90611850233E+03  0.90611850233E+03  0.00000000000E+00 0. -1.
         23    2    1    2    0    0  0.10966841609E+04  0.33589582927E+03  0.54261716583E+03  0.12722841624E+04  0.93442197681E+02 0.  0.
         13    1    3    3    0    0  0.36186945515E+03  0.86134236095E+02  0.13555178799E+03  0.39590768674E+03  0.00000000000E+00 0.  1.
        -13    1    3    3    0    0  0.73481470574E+03  0.24976159318E+03  0.40706537784E+03  0.87637647563E+03  0.00000000000E+00 0. -1.
         22    1    1    2    0    0 -0.10966841609E+04 -0.33589582927E+03  0.66316419856E+02  0.11488864280E+04  0.00000000000E+00 0. -1.
<mgrwt>
<rscale>  0 0.23433452E+04</rscale>
<asrwt>0</asrwt>
<pdfrwt beam="1">  1        2 0.23308494E+00 0.23433452E+04</pdfrwt>
<pdfrwt beam="2">  1       -2 0.13940285E+00 0.23433452E+04</pdfrwt>
<totfact> 0.40847611E+00</totfact>
</mgrwt>
</event>
<event>
 6    1  0.1585031E-006  0.2946329E+04  0.7818608E-02  0.8259225E-01
         -1   -1    0    0    0  501 -0.00000000000E+00  0.00000000000E+00  0.10950166345E+04  0.10950166345E+04  0.00000000000E+00 0.  1.
          1   -1    0    0  501    0  0.00000000000E+00 -0.00000000000E+00 -0.19819001810E+04  0.19819001810E+04  0.00000000000E+00 0. -1.
         23    2    1    2    0    0  0.22346334905E+03  0.11265183239E+04  0.51736346207E+03  0.12628360391E+04  0.90058354780E+02 0.  0.
         13    1    3    3    0    0  0.12134219428E+03  0.58637484164E+03  0.31869074906E+03  0.67832379920E+03  0.00000000000E+00 0. -1.
        -13    1    3    3    0    0  0.10212115477E+03  0.54014348224E+03  0.19867271301E+03  0.58451223986E+03  0.00000000000E+00 0.  1.
         22    1    1    2    0    0 -0.22346334905E+03 -0.11265183239E+04 -0.14042470086E+04  0.18140807765E+04  0.00000000000E+00 0. -1.
<mgrwt>
<rscale>  0 0.29463290E+04</rscale>
<asrwt>0</asrwt>
<pdfrwt beam="1">  1        1 0.30490772E+00 0.29463290E+04</pdfrwt>
<pdfrwt beam="2">  1       -1 0.16846410E+00 0.29463290E+04</pdfrwt>
<totfact> 0.66193411E-01</totfact>
</mgrwt>
</event>
<event>
 6    1  0.1585031E-006  0.1876036E+04  0.7818608E-02  0.8666877E-01
         -2   -1    0    0    0  501 -0.00000000000E+00  0.00000000000E+00  0.20417256641E+03  0.20417256641E+03  0.00000000000E+00 0.  1.
          2   -1    0    0  501    0  0.00000000000E+00 -0.00000000000E+00 -0.43094824488E+04  0.43094824488E+04  0.00000000000E+00 0. -1.
         23    2    1    2    0    0  0.80234732659E+03 -0.28709938453E+03 -0.11246792343E+04  0.14135991530E+04  0.84687047265E+02 0.  0.
         11    1    3    3    0    0  0.17843368234E+03 -0.92449327915E+02 -0.22655631883E+03  0.30284191062E+03  0.00000000000E+00 0.  1.
        -11    1    3    3    0    0  0.62391364424E+03 -0.19465005662E+03 -0.89812291552E+03  0.11107572423E+04  0.00000000000E+00 0. -1.
         22    1    1    2    0    0 -0.80234732659E+03  0.28709938453E+03 -0.29806306481E+04  0.31000558623E+04  0.00000000000E+00 0. -1.
<mgrwt>
<rscale>  0 0.18760363E+04</rscale>
<asrwt>0</asrwt>
<pdfrwt beam="1">  1        2 0.66299724E+00 0.18760363E+04</pdfrwt>
<pdfrwt beam="2">  1       -2 0.31411167E-01 0.18760363E+04</pdfrwt>
<totfact> 0.16702043E+00</totfact>
</mgrwt>
</event>
<event>
 6    1  0.1585031E-006  0.2821502E+04  0.7818608E-02  0.8296624E-01
         -1   -1    0    0    0  501 -0.00000000000E+00  0.00000000000E+00  0.18937298245E+04  0.18937298245E+04  0.00000000000E+00 0.  1.
          1   -1    0    0  501    0  0.00000000000E+00 -0.00000000000E+00 -0.10509513155E+04  0.10509513155E+04  0.00000000000E+00 0. -1.
         23    2    1    2    0    0  0.27859669312E+03 -0.11093330459E+04 -0.43750963858E+03  0.12278894622E+04  0.89788213891E+02 0.  0.
         13    1    3    3    0    0  0.54452448975E+02 -0.23450824705E+03 -0.53889996559E+02  0.24670492266E+03  0.00000000000E+00 0. -1.
        -13    1    3    3    0    0  0.22414424414E+03 -0.87482479882E+03 -0.38361964202E+03  0.98118453950E+03  0.00000000000E+00 0.  1.
         22    1    1    2    0    0 -0.27859669312E+03  0.11093330459E+04  0.12802881477E+04  0.17167916778E+04  0.00000000000E+00 0.  1.
<mgrwt>
<rscale>  0 0.28215016E+04</rscale>
<asrwt>0</asrwt>
<pdfrwt beam="1">  1        1 0.16168482E+00 0.28215016E+04</pdfrwt>
<pdfrwt beam="2">  1       -1 0.29134305E+00 0.28215016E+04</pdfrwt>
<totfact> 0.44862803E-01</totfact>
</mgrwt>
</event>
<event>
 6    1  0.1585031E-006  0.1418122E+04  0.7818608E-02  0.8940804E-01
         -2   -1    0    0    0  501 -0.00000000000E+00  0.00000000000E+00  0.55751794686E+03  0.55751794686E+03  0.00000000000E+00 0.  1.
          2   -1    0    0  501    0  0.00000000000E+00 -0.00000000000E+00 -0.90179591714E+03  0.90179591714E+03  0.00000000000E+00 0. -1.
         23    2    1    2    0    0  0.94570652259E+01 -0.14095623501E+03 -0.88472367368E+03  0.90070876681E+03  0.92640204918E+02 0.  0.
         13    1    3    3    0    0  0.28545482811E+02 -0.14119345242E+03 -0.67961257333E+03  0.69471122448E+03  0.00000000000E+00 0.  1.
        -13    1    3    3    0    0 -0.19088417585E+02  0.23721740476E+00 -0.20511110036E+03  0.20599754233E+03  0.00000000000E+00 0. -1.
         22    1    1    2    0    0 -0.94570652259E+01  0.14095623501E+03  0.54044570340E+03  0.55860509718E+03  0.00000000000E+00 0.  1.
<mgrwt>
<rscale>  0 0.14181219E+04</rscale>
<asrwt>0</asrwt>
<pdfrwt beam="1">  1        2 0.13873783E+00 0.14181219E+04</pdfrwt>
<pdfrwt beam="2">  1       -2 0.85771992E-01 0.14181219E+04</pdfrwt>
<totfact> 0.33556754E+01</totfact>
</mgrwt>
</event>
<event>
 6    1  0.1727613E-006  0.3346742E+04  0.7818608E-02  0.8151103E-01
         -1   -1    0    0    0  501 -0.00000000000E+00  0.00000000000E+00  0.15541676932E+04  0.15541676932E+04  0.00000000000E+00 0.  1.
          1   -1    0    0  501    0  0.00000000000E+00 -0.00000000000E+00 -0.18017175783E+04  0.18017175783E+04  0.00000000000E+00 0. -1.
         23    2    1    2    0    0 -0.67686994304E+03 -0.11348328374E+03  0.14049386839E+04  0.15665418596E+04  0.95756550003E+02 0.  0.
         11    1    3    3    0    0 -0.17492476189E+03  0.12624333129E+02  0.34821136498E+03  0.38988357340E+03  0.00000000000E+00 0. -1.
        -11    1    3    3    0    0 -0.50194518116E+03 -0.12610761687E+03  0.10567273189E+04  0.11766582862E+04  0.00000000000E+00 0.  1.
         22    1    1    2    0    0  0.67686994304E+03  0.11348328374E+03 -0.16524885689E+04  0.17893434120E+04  0.00000000000E+00 0. -1.
<mgrwt>
<rscale>  0 0.33467424E+04</rscale>
<asrwt>0</asrwt>
<pdfrwt beam="1">  1        1 0.27718732E+00 0.33467424E+04</pdfrwt>
<pdfrwt beam="2">  1       -1 0.23910272E+00 0.33467424E+04</pdfrwt>
<totfact> 0.27595706E-01</totfact>
</mgrwt>
</event>
<event>
 6    1  0.1585031E-006  0.2696350E+04  0.7818608E-02  0.8336190E-01
         -2   -1    0    0    0  501 -0.00000000000E+00  0.00000000000E+00  0.63422777169E+03  0.63422777169E+03  0.00000000000E+00 0.  1.
          2   -1    0    0  501    0  0.00000000000E+00 -0.00000000000E+00 -0.28658082322E+04  0.28658082322E+04  0.00000000000E+00 0. -1.
         23    2    1    2    0    0  0.95334152630E+03  0.94811415516E+03 -0.10189874329E+04  0.16894663787E+04  0.90447440211E+02 0.  0.
         13    1    3    3    0    0  0.75916261243E+03  0.74648324788E+03 -0.76008243866E+03  0.13081629964E+04  0.00000000000E+00 0.  1.
        -13    1    3    3    0    0  0.19417891387E+03  0.20163090728E+03 -0.25890499422E+03  0.38130338235E+03  0.00000000000E+00 0. -1.
         22    1    1    2    0    0 -0.95334152630E+03 -0.94811415516E+03 -0.12125930276E+04  0.18105696252E+04  0.00000000000E+00 0. -1.
<mgrwt>
<rscale>  0 0.26963495E+04</rscale>
<asrwt>0</asrwt>
<pdfrwt beam="1">  1        2 0.44089358E+00 0.26963495E+04</pdfrwt>
<pdfrwt beam="2">  1       -2 0.97573503E-01 0.26963495E+04</pdfrwt>
<totfact> 0.16192499E+00</totfact>
</mgrwt>
</event>
<event>
 6    1  0.1585031E-006  0.2024467E+04  0.7818608E-02  0.8595266E-01
          1   -1    0    0  501    0  0.00000000000E+00  0.00000000000E+00  0.14385722107E+04  0.14385722107E+04  0.00000000000E+00 0.  1.
         -1   -1    0    0    0  501 -0.00000000000E+00 -0.00000000000E+00 -0.71224572105E+03  0.71224572105E+03  0.00000000000E+00 0. -1.
         23    2    1    2    0    0  0.57952146043E+03  0.30843534262E+03  0.11796144780E+04  0.13530413439E+04  0.90846451493E+02 0.  0.
         11    1    3    3    0    0  0.11110559486E+03  0.65644897382E+02  0.31152944165E+03  0.33720068027E+03  0.00000000000E+00 0. -1.
        -11    1    3    3    0    0  0.46841586557E+03  0.24279044523E+03  0.86808503639E+03  0.10158406636E+04  0.00000000000E+00 0.  1.
         22    1    1    2    0    0 -0.57952146043E+03 -0.30843534262E+03 -0.45328798842E+03  0.79777658785E+03  0.00000000000E+00 0. -1.
<mgrwt>
<rscale>  0 0.20244672E+04</rscale>
<asrwt>0</asrwt>
<pdfrwt beam="1">  1        1 0.22131880E+00 0.20244672E+04</pdfrwt>
<pdfrwt beam="2">  1       -1 0.10957627E+00 0.20244672E+04</pdfrwt>
<totfact> 0.51468089E+00</totfact>
</mgrwt>
</event>
<event>
 6    1  0.1585031E-006  0.9310182E+03  0.7818608E-02  0.9387617E-01
          1   -1    0    0  501    0  0.00000000000E+00  0.00000000000E+00  0.15962774668E+04  0.15962774668E+04  0.00000000000E+00 0. -1.
         -1   -1    0    0    0  501 -0.00000000000E+00 -0.00000000000E+00 -0.13575253019E+03  0.13575253019E+03  0.00000000000E+00 0.  1.
         23    2    1    2    0    0 -0.13636203154E+03  0.27230659959E+03  0.13813769232E+04  0.14173716173E+04  0.89412582752E+02 0.  0.
         13    1    3    3    0    0 -0.11549229975E+03  0.13361149055E+03  0.81036860237E+03  0.82939000079E+03  0.00000000000E+00 0. -1.
        -13    1    3    3    0    0 -0.20869731791E+02  0.13869510904E+03  0.57100832081E+03  0.58798161656E+03  0.00000000000E+00 0.  1.
         22    1    1    2    0    0  0.13636203154E+03 -0.27230659959E+03  0.79148013393E+02  0.31465837960E+03  0.00000000000E+00 0.  1.
<mgrwt>
<rscale>  0 0.93101816E+03</rscale>
<asrwt>0</asrwt>
<pdfrwt beam="1">  1        1 0.24558114E+00 0.93101816E+03</pdfrwt>
<pdfrwt beam="2">  1       -1 0.20885006E-01 0.93101816E+03</pdfrwt>
<totfact> 0.10758802E+02</totfact>
</mgrwt>
</event>
<event>
 6    1  0.1585031E-006  0.1269475E+04  0.7818608E-02  0.9054128E-01
          2   -1    0    0  501    0  0.00000000000E+00  0.00000000000E+00  0.20853880530E+04  0.20853880530E+04  0.00000000000E+00 0. -1.
         -2   -1    0    0    0  501 -0.00000000000E+00 -0.00000000000E+00 -0.19319746507E+03  0.19319746507E+03  0.00000000000E+00 0.  1.
         23    2    1    2    0    0  0.11338117328E+03  0.32939278515E+03  0.18964809099E+04  0.19301988015E+04  0.87593803326E+02 0.  0.
         11    1    3    3    0    0  0.47414823792E+01  0.12892663650E+03  0.58646256434E+03  0.60048555239E+03  0.00000000000E+00 0. -1.
        -11    1    3    3    0    0  0.10863969090E+03  0.20046614866E+03  0.13100183456E+04  0.13297132492E+04  0.00000000000E+00 0.  1.
         22    1    1    2    0    0 -0.11338117328E+03 -0.32939278515E+03 -0.42903220287E+01  0.34838671649E+03  0.00000000000E+00 0.  1.
<mgrwt>
<rscale>  0 0.12694750E+04</rscale>
<asrwt>0</asrwt>
<pdfrwt beam="1">  1        2 0.32082892E+00 0.12694750E+04</pdfrwt>
<pdfrwt beam="2">  1       -2 0.29722688E-01 0.12694750E+04</pdfrwt>
<totfact> 0.61452843E+01</totfact>
</mgrwt>
</event>
<event>
 6    1  0.1585031E-006  0.2425839E+04  0.7818608E-02  0.8429893E-01
          2   -1    0    0  501    0  0.00000000000E+00  0.00000000000E+00  0.22948794107E+04  0.22948794107E+04  0.00000000000E+00 0. -1.
         -2   -1    0    0    0  501 -0.00000000000E+00 -0.00000000000E+00 -0.64106798123E+03  0.64106798123E+03  0.00000000000E+00 0.  1.
         23    2    1    2    0    0  0.86924088839E+03 -0.65388828440E+03  0.18318998788E+03  0.11067735251E+04  0.90771436643E+02 0.  0.
         13    1    3    3    0    0  0.21150371015E+03 -0.11269641037E+03  0.34472690642E+02  0.24212118189E+03  0.00000000000E+00 0.  1.
        -13    1    3    3    0    0  0.65773717824E+03 -0.54119187403E+03  0.14871729723E+03  0.86465234323E+03  0.00000000000E+00 0. -1.
         22    1    1    2    0    0 -0.86924088839E+03  0.65388828440E+03  0.14706214416E+04  0.18291738668E+04  0.00000000000E+00 0. -1.
<mgrwt>
<rscale>  0 0.24258390E+04</rscale>
<asrwt>0</asrwt>
<pdfrwt beam="1">  1        2 0.35305837E+00 0.24258390E+04</pdfrwt>
<pdfrwt beam="2">  1       -2 0.98625844E-01 0.24258390E+04</pdfrwt>
<totfact> 0.34949013E+00</totfact>
</mgrwt>
</event>
<event>
 6    1  0.1585031E-006  0.1006766E+04  0.7818608E-02  0.9301155E-01
          2   -1    0    0  501    0  0.00000000000E+00  0.00000000000E+00  0.12818328943E+04  0.12818328943E+04  0.00000000000E+00 0. -1.
         -2   -1    0    0    0  501 -0.00000000000E+00 -0.00000000000E+00 -0.19768124185E+03  0.19768124185E+03  0.00000000000E+00 0.  1.
         23    2    1    2    0    0  0.26473830906E+03 -0.27752923340E+03  0.77927111452E+02  0.40266843012E+03  0.94659295613E+02 0.  0.
         11    1    3    3    0    0  0.88062380176E+02 -0.16021204355E+03  0.41743160517E+02  0.18752432682E+03  0.00000000000E+00 0. -1.
        -11    1    3    3    0    0  0.17667592888E+03 -0.11731718985E+03  0.36183950936E+02  0.21514410330E+03  0.00000000000E+00 0.  1.
         22    1    1    2    0    0 -0.26473830906E+03  0.27752923340E+03  0.10062245410E+04  0.10768457060E+04  0.00000000000E+00 0. -1.
<mgrwt>
<rscale>  0 0.10067657E+04</rscale>
<asrwt>0</asrwt>
<pdfrwt beam="1">  1        2 0.19720506E+00 0.10067657E+04</pdfrwt>
<pdfrwt beam="2">  1       -2 0.30412500E-01 0.10067657E+04</pdfrwt>
<totfact> 0.16877464E+02</totfact>
</mgrwt>
</event>
<event>
 6    1  0.1585031E-006  0.1389268E+04  0.7818608E-02  0.8961624E-01
         -1   -1    0    0    0  501 -0.00000000000E+00  0.00000000000E+00  0.35882882945E+03  0.35882882945E+03  0.00000000000E+00 0.  1.
          1   -1    0    0  501    0  0.00000000000E+00 -0.00000000000E+00 -0.13446973858E+04  0.13446973858E+04  0.00000000000E+00 0. -1.
         23    2    1    2    0    0 -0.26034616375E+03 -0.26828898975E+03  0.21843181044E+03  0.44253514452E+03  0.91464699851E+02 0.  0.
         11    1    3    3    0    0 -0.22279410378E+03 -0.24101027721E+03  0.15251567515E+03  0.36191739053E+03  0.00000000000E+00 0. -1.
        -11    1    3    3    0    0 -0.37552059975E+02 -0.27278712533E+02  0.65916135297E+02  0.80617753990E+02  0.00000000000E+00 0.  1.
         22    1    1    2    0    0  0.26034616375E+03  0.26828898975E+03 -0.12043003668E+04  0.12609910707E+04  0.00000000000E+00 0. -1.
<mgrwt>
<rscale>  0 0.13892677E+04</rscale>
<asrwt>0</asrwt>
<pdfrwt beam="1">  1        1 0.20687652E+00 0.13892677E+04</pdfrwt>
<pdfrwt beam="2">  1       -1 0.55204435E-01 0.13892677E+04</pdfrwt>
<totfact> 0.27207527E+01</totfact>
</mgrwt>
</event>
<event>
 6    1  0.1585031E-006  0.1828599E+04  0.7818608E-02  0.8691237E-01
         -2   -1    0    0    0  501 -0.00000000000E+00  0.00000000000E+00  0.37785572290E+03  0.37785572290E+03  0.00000000000E+00 0.  1.
          2   -1    0    0  501    0  0.00000000000E+00 -0.00000000000E+00 -0.22123361127E+04  0.22123361127E+04  0.00000000000E+00 0. -1.
         23    2    1    2    0    0  0.26008540172E+03 -0.77089278778E+03 -0.15031724537E+04  0.17117357724E+04  0.92692083925E+02 0.  0.
         11    1    3    3    0    0  0.50172534597E+02 -0.25605496650E+03 -0.42652128109E+03  0.50000183232E+03  0.00000000000E+00 0.  1.
        -11    1    3    3    0    0  0.20991286712E+03 -0.51483782128E+03 -0.10766511726E+04  0.12117339401E+04  0.00000000000E+00 0. -1.
         22    1    1    2    0    0 -0.26008540172E+03  0.77089278778E+03 -0.33130793605E+03  0.87845606317E+03  0.00000000000E+00 0.  1.
<mgrwt>
<rscale>  0 0.18285993E+04</rscale>
<asrwt>0</asrwt>
<pdfrwt beam="1">  1        2 0.34035941E+00 0.18285993E+04</pdfrwt>
<pdfrwt beam="2">  1       -2 0.58131649E-01 0.18285993E+04</pdfrwt>
<totfact> 0.13256564E+01</totfact>
</mgrwt>
</event>
<event>
 6    1  0.1585031E-006  0.2554310E+04  0.7818608E-02  0.8383889E-01
         -2   -1    0    0    0  501 -0.00000000000E+00  0.00000000000E+00  0.55287829535E+03  0.55287829535E+03  0.00000000000E+00 0.  1.
          2   -1    0    0  501    0  0.00000000000E+00 -0.00000000000E+00 -0.29502415639E+04  0.29502415639E+04  0.00000000000E+00 0. -1.
         23    2    1    2    0    0 -0.31999952824E+03  0.12346824533E+04 -0.12049511934E+04  0.17570708865E+04  0.92467632245E+02 0.  0.
         13    1    3    3    0    0 -0.32172687892E+02  0.26458968497E+03 -0.23371570991E+03  0.35449374648E+03  0.00000000000E+00 0.  1.
        -13    1    3    3    0    0 -0.28782684035E+03  0.97009276830E+03 -0.97123548352E+03  0.14025771400E+04  0.00000000000E+00 0. -1.
         22    1    1    2    0    0  0.31999952824E+03 -0.12346824533E+04 -0.11924120751E+04  0.17460489728E+04  0.00000000000E+00 0.  1.
<mgrwt>
<rscale>  0 0.25543097E+04</rscale>
<asrwt>0</asrwt>
<pdfrwt beam="1">  1        2 0.45388332E+00 0.25543097E+04</pdfrwt>
<pdfrwt beam="2">  1       -2 0.85058198E-01 0.25543097E+04</pdfrwt>
<totfact> 0.19977327E+00</totfact>
</mgrwt>
</event>
<event>
 6    1  0.1585031E-006  0.1982224E+04  0.7818608E-02  0.8614977E-01
         -1   -1    0    0    0  501 -0.00000000000E+00  0.00000000000E+00  0.18174744804E+04  0.18174744804E+04  0.00000000000E+00 0.  1.
          1   -1    0    0  501    0  0.00000000000E+00 -0.00000000000E+00 -0.54047711667E+03  0.54047711667E+03  0.00000000000E+00 0. -1.
         23    2    1    2    0    0  0.41909374510E+03 -0.54911841002E+03  0.14818340617E+04  0.16374457551E+04  0.90696301321E+02 0.  0.
         11    1    3    3    0    0  0.25432652849E+03 -0.40266314418E+03  0.10131625175E+04  0.11195168054E+04  0.00000000000E+00 0. -1.
        -11    1    3    3    0    0  0.16476721661E+03 -0.14645526584E+03  0.46867154427E+03  0.51792894973E+03  0.00000000000E+00 0.  1.
         22    1    1    2    0    0 -0.41909374510E+03  0.54911841002E+03 -0.20483669800E+03  0.72050584193E+03  0.00000000000E+00 0. -1.
<mgrwt>
<rscale>  0 0.19822244E+04</rscale>
<asrwt>0</asrwt>
<pdfrwt beam="1">  1        1 0.83150326E-01 0.19822244E+04</pdfrwt>
<pdfrwt beam="2">  1       -1 0.27961146E+00 0.19822244E+04</pdfrwt>
<totfact> 0.16542202E+00</totfact>
</mgrwt>
</event>
<event>
 6    1  0.1585031E-006  0.1320652E+04  0.7818608E-02  0.9013346E-01
         -2   -1    0    0    0  501 -0.00000000000E+00  0.00000000000E+00  0.26647918118E+03  0.26647918118E+03  0.00000000000E+00 0.  1.
          2   -1    0    0  501    0  0.00000000000E+00 -0.00000000000E+00 -0.16362645159E+04  0.16362645159E+04  0.00000000000E+00 0. -1.
         23    2    1    2    0    0 -0.13663030484E+03  0.61411765482E+03 -0.96192268484E+03  0.11529702144E+04  0.90756429432E+02 0.  0.
         11    1    3    3    0    0 -0.17426514038E+02  0.18439178983E+03 -0.22275804284E+03  0.28969839696E+03  0.00000000000E+00 0.  1.
        -11    1    3    3    0    0 -0.11920379080E+03  0.42972586499E+03 -0.73916464200E+03  0.86327181743E+03  0.00000000000E+00 0. -1.
         22    1    1    2    0    0  0.13663030484E+03 -0.61411765482E+03 -0.40786264984E+03  0.74977348266E+03  0.00000000000E+00 0. -1.
<mgrwt>
<rscale>  0 0.13206520E+04</rscale>
<asrwt>0</asrwt>
<pdfrwt beam="1">  1        2 0.25173300E+00 0.13206520E+04</pdfrwt>
<pdfrwt beam="2">  1       -2 0.40996797E-01 0.13206520E+04</pdfrwt>
<totfact> 0.58687199E+01</totfact>
</mgrwt>
</event>
<event>
 6    1  0.1585031E-006  0.1974232E+04  0.7818608E-02  0.8618764E-01
          1   -1    0    0  501    0  0.00000000000E+00  0.00000000000E+00  0.11349987713E+04  0.11349987713E+04  0.00000000000E+00 0. -1.
         -1   -1    0    0    0  501 -0.00000000000E+00 -0.00000000000E+00 -0.85850102244E+03  0.85850102244E+03  0.00000000000E+00 0.  1.
         23    2    1    2    0    0  0.12923258111E+02 -0.46808799649E+03  0.10135898635E+04  0.11202425760E+04  0.91135254407E+02 0.  0.
         11    1    3    3    0    0  0.46640644139E+02 -0.37572971880E+03  0.81459001588E+03  0.89827894624E+03  0.00000000000E+00 0.  1.
        -11    1    3    3    0    0 -0.33717386028E+02 -0.92358277682E+02  0.19899984759E+03  0.22196362972E+03  0.00000000000E+00 0. -1.
         22    1    1    2    0    0 -0.12923258111E+02  0.46808799649E+03 -0.73709211459E+03  0.87325721780E+03  0.00000000000E+00 0.  1.
<mgrwt>
<rscale>  0 0.19742316E+04</rscale>
<asrwt>0</asrwt>
<pdfrwt beam="1">  1        1 0.17461520E+00 0.19742316E+04</pdfrwt>
<pdfrwt beam="2">  1       -1 0.13207708E+00 0.19742316E+04</pdfrwt>
<totfact> 0.54060982E+00</totfact>
</mgrwt>
</event>
<event>
 6    1  0.1585031E-006  0.2327530E+04  0.7818608E-02  0.8467145E-01
         -2   -1    0    0    0  501 -0.00000000000E+00  0.00000000000E+00  0.86665070566E+03  0.86665070566E+03  0.00000000000E+00 0.  1.
          2   -1    0    0  501    0  0.00000000000E+00 -0.00000000000E+00 -0.15627388056E+04  0.15627388056E+04  0.00000000000E+00 0. -1.
         23    2    1    2    0    0 -0.58414277610E+03 -0.72839649042E+03 -0.10708670422E+04  0.14232863924E+04  0.84874628148E+02 0.  0.
         13    1    3    3    0    0 -0.21735391178E+03 -0.24812210256E+03 -0.43688279202E+03  0.54742476626E+03  0.00000000000E+00 0.  1.
        -13    1    3    3    0    0 -0.36678886432E+03 -0.48027438786E+03 -0.63398425021E+03  0.87586162614E+03  0.00000000000E+00 0. -1.
         22    1    1    2    0    0  0.58414277610E+03  0.72839649042E+03  0.37477894232E+03  0.10061031188E+04  0.00000000000E+00 0.  1.
<mgrwt>
<rscale>  0 0.23275298E+04</rscale>
<asrwt>0</asrwt>
<pdfrwt beam="1">  1        2 0.24042135E+00 0.23275298E+04</pdfrwt>
<pdfrwt beam="2">  1       -2 0.13333088E+00 0.23275298E+04</pdfrwt>
<totfact> 0.43114714E+00</totfact>
</mgrwt>
</event>
<event>
 6    1  0.1603204E-006  0.3335960E+04  0.7818608E-02  0.8153805E-01
          2   -1    0    0  501    0  0.00000000000E+00  0.00000000000E+00  0.11919339722E+04  0.11919339722E+04  0.00000000000E+00 0. -1.
         -2   -1    0    0    0  501 -0.00000000000E+00 -0.00000000000E+00 -0.23341539443E+04  0.23341539443E+04  0.00000000000E+00 0.  1.
         23    2    1    2    0    0 -0.17042044634E+03  0.44478526251E+03 -0.22597661736E+04  0.23112683534E+04  0.92418524005E+02 0.  0.
         13    1    3    3    0    0 -0.11668000909E+03  0.32874990199E+03 -0.14439260881E+04  0.14854673576E+04  0.00000000000E+00 0. -1.
        -13    1    3    3    0    0 -0.53740437256E+02  0.11603536052E+03 -0.81584008548E+03  0.82580099574E+03  0.00000000000E+00 0.  1.
         22    1    1    2    0    0  0.17042044634E+03 -0.44478526251E+03  0.11175462015E+04  0.12148195631E+04  0.00000000000E+00 0. -1.
<mgrwt>
<rscale>  0 0.33359601E+04</rscale>
<asrwt>0</asrwt>
<pdfrwt beam="1">  1        2 0.18337446E+00 0.33359601E+04</pdfrwt>
<pdfrwt beam="2">  1       -2 0.35910061E+00 0.33359601E+04</pdfrwt>
<totfact> 0.21721776E-01</totfact>
</mgrwt>
</event>
<event>
 6    1  0.1585031E-006  0.1745502E+04  0.7818608E-02  0.8735830E-01
         -2   -1    0    0    0  501 -0.00000000000E+00  0.00000000000E+00  0.57126556103E+03  0.57126556103E+03  0.00000000000E+00 0.  1.
          2   -1    0    0  501    0  0.00000000000E+00 -0.00000000000E+00 -0.13333458606E+04  0.13333458606E+04  0.00000000000E+00 0. -1.
         23    2    1    2    0    0  0.44509868174E+03 -0.56654251057E+03  0.15075464937E+03  0.74170519292E+03  0.91194167204E+02 0.  0.
         11    1    3    3    0    0  0.16342003779E+03 -0.27059513507E+03  0.89754027105E+02  0.32860861410E+03  0.00000000000E+00 0. -1.
        -11    1    3    3    0    0  0.28167864395E+03 -0.29594737549E+03  0.61000622261E+02  0.41309657882E+03  0.00000000000E+00 0.  1.
         22    1    1    2    0    0 -0.44509868174E+03  0.56654251057E+03 -0.91283494893E+03  0.11629062287E+04  0.00000000000E+00 0. -1.
<mgrwt>
<rscale>  0 0.17455023E+04</rscale>
<asrwt>0</asrwt>
<pdfrwt beam="1">  1        2 0.20513013E+00 0.17455023E+04</pdfrwt>
<pdfrwt beam="2">  1       -2 0.87887011E-01 0.17455023E+04</pdfrwt>
<totfact> 0.16733682E+01</totfact>
</mgrwt>
</event>
<event>
 6    1  0.1585031E-006  0.2240952E+04  0.7818608E-02  0.8501574E-01
          2   -1    0    0  501    0  0.00000000000E+00  0.00000000000E+00  0.22714343974E+04  0.22714343974E+04  0.00000000000E+00 0. -1.
         -2   -1    0    0    0  501 -0.00000000000E+00 -0.00000000000E+00 -0.55271983006E+03  0.55271983006E+03  0.00000000000E+00 0.  1.
         23    2    1    2    0    0 -0.69537203006E+03 -0.14761255053E+03 -0.22788207624E+03  0.75181974238E+03  0.89280227857E+02 0.  0.
         11    1    3    3    0    0 -0.54424600873E+03 -0.14969121233E+03 -0.16460162528E+03  0.58796672705E+03  0.00000000000E+00 0. -1.
        -11    1    3    3    0    0 -0.15112602133E+03  0.20786618030E+01 -0.63280450961E+02  0.16385301533E+03  0.00000000000E+00 0.  1.
         22    1    1    2    0    0  0.69537203006E+03  0.14761255053E+03  0.19465966436E+04  0.20723344851E+04  0.00000000000E+00 0. -1.
<mgrwt>
<rscale>  0 0.22409523E+04</rscale>
<asrwt>0</asrwt>
<pdfrwt beam="1">  1        2 0.34945144E+00 0.22409523E+04</pdfrwt>
<pdfrwt beam="2">  1       -2 0.85033821E-01 0.22409523E+04</pdfrwt>
<totfact> 0.51601437E+00</totfact>
</mgrwt>
</event>
<event>
 6    1  0.1585031E-006  0.3473842E+04  0.7818608E-02  0.8120017E-01
         -1   -1    0    0    0  501 -0.00000000000E+00  0.00000000000E+00  0.21915417756E+04  0.21915417756E+04  0.00000000000E+00 0.  1.
          1   -1    0    0  501    0  0.00000000000E+00 -0.00000000000E+00 -0.13766079130E+04  0.13766079130E+04  0.00000000000E+00 0. -1.
         23    2    1    2    0    0  0.14287073045E+03  0.11641783365E+04  0.17219477532E+04  0.20854503115E+04  0.90970832841E+02 0.  0.
         11    1    3    3    0    0  0.71557271730E+02  0.81011659357E+03  0.12472775714E+04  0.14889965341E+04  0.00000000000E+00 0.  1.
        -11    1    3    3    0    0  0.71313458716E+02  0.35406174297E+03  0.47467018175E+03  0.59645377748E+03  0.00000000000E+00 0. -1.
         22    1    1    2    0    0 -0.14287073045E+03 -0.11641783365E+04 -0.90701389055E+03  0.14826993770E+04  0.00000000000E+00 0. -1.
<mgrwt>
<rscale>  0 0.34738415E+04</rscale>
<asrwt>0</asrwt>
<pdfrwt beam="1">  1        1 0.21178583E+00 0.34738415E+04</pdfrwt>
<pdfrwt beam="2">  1       -1 0.33716027E+00 0.34738415E+04</pdfrwt>
<totfact> 0.12320918E-01</totfact>
</mgrwt>
</event>
<event>
 6    1  0.1585031E-006  0.1718843E+04  0.7818608E-02  0.8750690E-01
         -2   -1    0    0    0  501 -0.00000000000E+00  0.00000000000E+00  0.22851304913E+03  0.22851304913E+03  0.00000000000E+00 0.  1.
          2   -1    0    0  501    0  0.00000000000E+00 -0.00000000000E+00 -0.32322249347E+04  0.32322249347E+04  0.00000000000E+00 0. -1.
         23    2    1    2    0    0  0.62271870534E+03  0.44220587333E+03 -0.72385589292E+03  0.10563528301E+04  0.92678624823E+02 0.  0.
         11    1    3    3    0    0  0.43154681238E+03  0.30542156909E+03 -0.55784950463E+03  0.76857729342E+03  0.00000000000E+00 0.  1.
        -11    1    3    3    0    0  0.19117189296E+03  0.13678430424E+03 -0.16600638829E+03  0.28777553665E+03  0.00000000000E+00 0. -1.
         22    1    1    2    0    0 -0.62271870534E+03 -0.44220587333E+03 -0.22798559927E+04  0.24043851538E+04  0.00000000000E+00 0. -1.
<mgrwt>
<rscale>  0 0.17188433E+04</rscale>
<asrwt>0</asrwt>
<pdfrwt beam="1">  1        2 0.49726534E+00 0.17188433E+04</pdfrwt>
<pdfrwt beam="2">  1       -2 0.35155856E-01 0.17188433E+04</pdfrwt>
<totfact> 0.89747643E+00</totfact>
</mgrwt>
</event>
<event>
 6    1  0.1585031E-006  0.1385966E+04  0.7818608E-02  0.8964040E-01
          2   -1    0    0  501    0  0.00000000000E+00  0.00000000000E+00  0.13476032051E+04  0.13476032051E+04  0.00000000000E+00 0. -1.
         -2   -1    0    0    0  501 -0.00000000000E+00 -0.00000000000E+00 -0.35635512498E+03  0.35635512498E+03  0.00000000000E+00 0.  1.
         23    2    1    2    0    0 -0.42187219216E+03 -0.26319326218E+03  0.10857295660E+04  0.11978223889E+04  0.93396708696E+02 0.  0.
         11    1    3    3    0    0 -0.24337620508E+03 -0.13111410106E+03  0.70210625363E+03  0.75457012668E+03  0.00000000000E+00 0. -1.
        -11    1    3    3    0    0 -0.17849598708E+03 -0.13207916112E+03  0.38362331237E+03  0.44325226226E+03  0.00000000000E+00 0.  1.
         22    1    1    2    0    0  0.42187219216E+03  0.26319326218E+03 -0.94481485841E+02  0.50613594117E+03  0.00000000000E+00 0.  1.
<mgrwt>
<rscale>  0 0.13859658E+04</rscale>
<asrwt>0</asrwt>
<pdfrwt beam="1">  1        2 0.20732357E+00 0.13859658E+04</pdfrwt>
<pdfrwt beam="2">  1       -2 0.54823866E-01 0.13859658E+04</pdfrwt>
<totfact> 0.47291528E+01</totfact>
</mgrwt>
</event>
<event>
 6    1  0.1585031E-006  0.2379144E+04  0.7818608E-02  0.8447353E-01
         -2   -1    0    0    0  501 -0.00000000000E+00  0.00000000000E+00  0.10481205040E+04  0.10481205040E+04  0.00000000000E+00 0.  1.
          2   -1    0    0  501    0  0.00000000000E+00 -0.00000000000E+00 -0.13501130511E+04  0.13501130511E+04  0.00000000000E+00 0. -1.
         23    2    1    2    0    0  0.11977208741E+03  0.28943770619E+03 -0.13061705294E+04  0.13463338647E+04  0.91727230199E+02 0.  0.
         13    1    3    3    0    0  0.91063540299E+02  0.27382674121E+03 -0.10831349552E+04  0.11209170280E+04  0.00000000000E+00 0. -1.
        -13    1    3    3    0    0  0.28708547109E+02  0.15610964977E+02 -0.22303557418E+03  0.22541683667E+03  0.00000000000E+00 0.  1.
         22    1    1    2    0    0 -0.11977208741E+03 -0.28943770619E+03  0.10041779822E+04  0.10518996904E+04  0.00000000000E+00 0.  1.
<mgrwt>
<rscale>  0 0.23791437E+04</rscale>
<asrwt>0</asrwt>
<pdfrwt beam="1">  1        2 0.20770970E+00 0.23791437E+04</pdfrwt>
<pdfrwt beam="2">  1       -2 0.16124931E+00 0.23791437E+04</pdfrwt>
<totfact> 0.34344665E+00</totfact>
</mgrwt>
</event>
<event>
 6    1  0.1585031E-006  0.8201200E+03  0.7818608E-02  0.9531342E-01
          2   -1    0    0  501    0  0.00000000000E+00  0.00000000000E+00  0.61116920268E+03  0.61116920268E+03  0.00000000000E+00 0. -1.
         -2   -1    0    0    0  501 -0.00000000000E+00 -0.00000000000E+00 -0.27512711562E+03  0.27512711562E+03  0.00000000000E+00 0.  1.
         23    2    1    2    0    0 -0.36374778717E+03 -0.17344788106E+03  0.20973383930E+03  0.46398080406E+03  0.94304204928E+02 0.  0.
         11    1    3    3    0    0 -0.33765140728E+02 -0.52482858908E+02  0.32781694807E+02  0.70492373502E+02  0.00000000000E+00 0.  1.
        -11    1    3    3    0    0 -0.32998264644E+03 -0.12096502215E+03  0.17695214450E+03  0.39348843056E+03  0.00000000000E+00 0. -1.
         22    1    1    2    0    0  0.36374778717E+03  0.17344788106E+03  0.12630824776E+03  0.42231551424E+03  0.00000000000E+00 0.  1.
<mgrwt>
<rscale>  0 0.82012004E+03</rscale>
<asrwt>0</asrwt>
<pdfrwt beam="1">  1        2 0.94026031E-01 0.82012004E+03</pdfrwt>
<pdfrwt beam="2">  1       -2 0.42327249E-01 0.82012004E+03</pdfrwt>
<totfact> 0.25802049E+02</totfact>
</mgrwt>
</event>
<event>
 6    1  0.1585031E-006  0.4198815E+04  0.7818608E-02  0.7965598E-01
          1   -1    0    0  501    0  0.00000000000E+00  0.00000000000E+00  0.20445995842E+04  0.20445995842E+04  0.00000000000E+00 0. -1.
         -1   -1    0    0    0  501 -0.00000000000E+00 -0.00000000000E+00 -0.21556841849E+04  0.21556841849E+04  0.00000000000E+00 0.  1.
         23    2    1    2    0    0  0.19057461072E+04  0.45290334313E+03 -0.80830717790E+03  0.21210750288E+04  0.92785346344E+02 0.  0.
         11    1    3    3    0    0  0.13044323716E+04  0.35411995282E+03 -0.55620066038E+03  0.14616100463E+04  0.00000000000E+00 0. -1.
        -11    1    3    3    0    0  0.60131373568E+03  0.98783390302E+02 -0.25210651752E+03  0.65946498247E+03  0.00000000000E+00 0.  1.
         22    1    1    2    0    0 -0.19057461072E+04 -0.45290334313E+03  0.69722257722E+03  0.20792087403E+04  0.00000000000E+00 0. -1.
<mgrwt>
<rscale>  0 0.41988146E+04</rscale>
<asrwt>0</asrwt>
<pdfrwt beam="1">  1        1 0.31455378E+00 0.41988146E+04</pdfrwt>
<pdfrwt beam="2">  1       -1 0.33164372E+00 0.41988146E+04</pdfrwt>
<totfact> 0.43943596E-02</totfact>
</mgrwt>
</event>
<event>
 6    1  0.1585031E-006  0.1879083E+04  0.7818608E-02  0.8665339E-01
          1   -1    0    0  501    0  0.00000000000E+00  0.00000000000E+00  0.23624781796E+04  0.23624781796E+04  0.00000000000E+00 0. -1.
         -1   -1    0    0    0  501 -0.00000000000E+00 -0.00000000000E+00 -0.37364917022E+03  0.37364917022E+03  0.00000000000E+00 0.  1.
         23    2    1    2    0    0 -0.12272393523E+03 -0.83509816323E+03  0.15904223878E+04  0.18027582145E+04  0.89686688657E+02 0.  0.
         13    1    3    3    0    0 -0.20539737392E+02 -0.40286718958E+03  0.70760168560E+03  0.81450843993E+03  0.00000000000E+00 0.  1.
        -13    1    3    3    0    0 -0.10218419784E+03 -0.43223097365E+03  0.88282070216E+03  0.98824977462E+03  0.00000000000E+00 0. -1.
         22    1    1    2    0    0  0.12272393523E+03  0.83509816323E+03  0.39840662161E+03  0.93336913526E+03  0.00000000000E+00 0.  1.
<mgrwt>
<rscale>  0 0.18790828E+04</rscale>
<asrwt>0</asrwt>
<pdfrwt beam="1">  1        1 0.36345817E+00 0.18790828E+04</pdfrwt>
<pdfrwt beam="2">  1       -1 0.57484489E-01 0.18790828E+04</pdfrwt>
<totfact> 0.48460683E+00</totfact>
</mgrwt>
</event>
<event>
 6    1  0.1585031E-006  0.1903896E+04  0.7818608E-02  0.8652920E-01
         -1   -1    0    0    0  501 -0.00000000000E+00  0.00000000000E+00  0.57252704313E+03  0.57252704313E+03  0.00000000000E+00 0.  1.
          1   -1    0    0  501    0  0.00000000000E+00 -0.00000000000E+00 -0.15828155760E+04  0.15828155760E+04  0.00000000000E+00 0. -1.
         23    2    1    2    0    0 -0.53201178540E+01  0.94931789820E+03 -0.47440480131E+03  0.10652031100E+04  0.91460235008E+02 0.  0.
         13    1    3    3    0    0  0.27192384136E+02  0.75298227791E+03 -0.35278077620E+03  0.83197116095E+03  0.00000000000E+00 0.  1.
        -13    1    3    3    0    0 -0.32512501990E+02  0.19633562029E+03 -0.12162402511E+03  0.23323194907E+03  0.00000000000E+00 0. -1.
         22    1    1    2    0    0  0.53201178540E+01 -0.94931789820E+03 -0.53588373152E+03  0.10901395091E+04  0.00000000000E+00 0. -1.
<mgrwt>
<rscale>  0 0.19038957E+04</rscale>
<asrwt>0</asrwt>
<pdfrwt beam="1">  1        1 0.24351009E+00 0.19038957E+04</pdfrwt>
<pdfrwt beam="2">  1       -1 0.88081083E-01 0.19038957E+04</pdfrwt>
<totfact> 0.67928459E+00</totfact>
</mgrwt>
</event>
<event>
 6    1  0.1585031E-006  0.3977769E+04  0.7818608E-02  0.8009046E-01
         -2   -1    0    0    0  501 -0.00000000000E+00  0.00000000000E+00  0.95981733115E+03  0.95981733115E+03  0.00000000000E+00 0.  1.
          2   -1    0    0  501    0  0.00000000000E+00 -0.00000000000E+00 -0.41212643491E+04  0.41212643491E+04  0.00000000000E+00 0. -1.
         23    2    1    2    0    0  0.16423392224E+04  0.19121707330E+03 -0.29910229035E+04  0.34188884095E+04  0.93476503224E+02 0.  0.
         11    1    3    3    0    0  0.37812689193E+03  0.48496740443E+02 -0.77296044232E+03  0.86185829788E+03  0.00000000000E+00 0.  1.
        -11    1    3    3    0    0  0.12642123305E+04  0.14272033286E+03 -0.22180624612E+04  0.25570301116E+04  0.00000000000E+00 0. -1.
         22    1    1    2    0    0 -0.16423392224E+04 -0.19121707330E+03 -0.17042411448E+03  0.16621932708E+04  0.00000000000E+00 0.  1.
<mgrwt>
<rscale>  0 0.39777687E+04</rscale>
<asrwt>0</asrwt>
<pdfrwt beam="1">  1        2 0.63404069E+00 0.39777687E+04</pdfrwt>
<pdfrwt beam="2">  1       -2 0.14766420E+00 0.39777687E+04</pdfrwt>
<totfact> 0.66747375E-02</totfact>
</mgrwt>
</event>
<event>
 6    1  0.1585031E-006  0.2639684E+04  0.7818608E-02  0.8354845E-01
          2   -1    0    0  501    0  0.00000000000E+00  0.00000000000E+00  0.28917286948E+04  0.28917286948E+04  0.00000000000E+00 0. -1.
         -2   -1    0    0    0  501 -0.00000000000E+00 -0.00000000000E+00 -0.60240200786E+03  0.60240200786E+03  0.00000000000E+00 0.  1.
         23    2    1    2    0    0 -0.51284767181E+03 -0.10071916144E+04  0.20441879682E+04  0.23376097672E+04  0.90924648678E+02 0.  0.
         11    1    3    3    0    0 -0.33265847772E+03 -0.66543823588E+03  0.14316367185E+04  0.16133980917E+04  0.00000000000E+00 0.  1.
        -11    1    3    3    0    0 -0.18018919409E+03 -0.34175337854E+03  0.61255124972E+03  0.72421167551E+03  0.00000000000E+00 0. -1.
         22    1    1    2    0    0  0.51284767181E+03  0.10071916144E+04  0.24513871870E+03  0.11565209354E+04  0.00000000000E+00 0.  1.
<mgrwt>
<rscale>  0 0.26396842E+04</rscale>
<asrwt>0</asrwt>
<pdfrwt beam="1">  1        2 0.44488133E+00 0.26396842E+04</pdfrwt>
<pdfrwt beam="2">  1       -2 0.92677233E-01 0.26396842E+04</pdfrwt>
<totfact> 0.17692324E+00</totfact>
</mgrwt>
</event>
<event>
 6    1  0.1585031E-006  0.1627325E+04  0.7818608E-02  0.8803935E-01
         -1   -1    0    0    0  501 -0.00000000000E+00  0.00000000000E+00  0.23561115990E+03  0.23561115990E+03  0.00000000000E+00 0.  1.
          1   -1    0    0  501    0  0.00000000000E+00 -0.00000000000E+00 -0.28099136567E+04  0.28099136567E+04  0.00000000000E+00 0. -1.
         23    2    1    2    0    0 -0.31031913579E+03 -0.22714850487E+03 -0.26277348847E+04  0.26572601783E+04  0.90258636921E+02 0.  0.
         13    1    3    3    0    0 -0.56080799480E+02 -0.71664353711E+02 -0.83237857454E+03  0.83733800046E+03  0.00000000000E+00 0.  1.
        -13    1    3    3    0    0 -0.25423833631E+03 -0.15548415116E+03 -0.17953563101E+04  0.18199221778E+04  0.00000000000E+00 0. -1.
         22    1    1    2    0    0  0.31031913579E+03  0.22714850487E+03  0.53432387886E+02  0.38826463833E+03  0.00000000000E+00 0.  1.
<mgrwt>
<rscale>  0 0.16273254E+04</rscale>
<asrwt>0</asrwt>
<pdfrwt beam="1">  1        1 0.43229443E+00 0.16273254E+04</pdfrwt>
<pdfrwt beam="2">  1       -1 0.36247869E-01 0.16273254E+04</pdfrwt>
<totfact> 0.57388587E+00</totfact>
</mgrwt>
</event>
<event>
 6    1  0.1585031E-006  0.1485784E+04  0.7818608E-02  0.8893962E-01
          2   -1    0    0  501    0  0.00000000000E+00  0.00000000000E+00  0.46854135429E+03  0.46854135429E+03  0.00000000000E+00 0. -1.
         -2   -1    0    0    0  501 -0.00000000000E+00 -0.00000000000E+00 -0.11778858554E+04  0.11778858554E+04  0.00000000000E+00 0.  1.
         23    2    1    2    0    0 -0.15567256284E+03 -0.52425597383E+03  0.19648086330E+03  0.58831669384E+03  0.91834251189E+02 0.  0.
         11    1    3    3    0    0 -0.12175441587E+03 -0.32788837586E+03  0.84867511552E+02  0.35991307191E+03  0.00000000000E+00 0. -1.
        -11    1    3    3    0    0 -0.33918146967E+02 -0.19636759797E+03  0.11161335175E+03  0.22840362194E+03  0.00000000000E+00 0.  1.
         22    1    1    2    0    0  0.15567256284E+03  0.52425597383E+03 -0.90582536441E+03  0.10581105158E+04  0.00000000000E+00 0.  1.
<mgrwt>
<rscale>  0 0.14857836E+04</rscale>
<asrwt>0</asrwt>
<pdfrwt beam="1">  1        2 0.72083285E-01 0.14857836E+04</pdfrwt>
<pdfrwt beam="2">  1       -2 0.18121321E+00 0.14857836E+04</pdfrwt>
<totfact> 0.11409377E+01</totfact>
</mgrwt>
</event>
<event>
 6    1  0.1585031E-006  0.2200584E+04  0.7818608E-02  0.8518185E-01
         -2   -1    0    0    0  501 -0.00000000000E+00  0.00000000000E+00  0.70230334407E+03  0.70230334407E+03  0.00000000000E+00 0. -1.
          2   -1    0    0  501    0  0.00000000000E+00 -0.00000000000E+00 -0.17238163770E+04  0.17238163770E+04  0.00000000000E+00 0.  1.
         23    2    1    2    0    0 -0.14902238231E+03 -0.10874035056E+04 -0.55335831720E+03  0.12328792204E+04  0.95559878698E+02 0.  0.
         11    1    3    3    0    0 -0.35385485205E+02 -0.58019849662E+03 -0.31347685506E+03  0.66041666143E+03  0.00000000000E+00 0.  1.
        -11    1    3    3    0    0 -0.11363689710E+03 -0.50720500902E+03 -0.23988146214E+03  0.57246255898E+03  0.00000000000E+00 0. -1.
         22    1    1    2    0    0  0.14902238231E+03  0.10874035056E+04 -0.46815471569E+03  0.11932405006E+04  0.00000000000E+00 0. -1.
<mgrwt>
<rscale>  0 0.22005836E+04</rscale>
<asrwt>0</asrwt>
<pdfrwt beam="1">  1        2 0.26520252E+00 0.22005836E+04</pdfrwt>
<pdfrwt beam="2">  1       -2 0.10804667E+00 0.22005836E+04</pdfrwt>
<totfact> 0.59656686E+00</totfact>
</mgrwt>
</event>
<event>
 6    1  0.1585031E-006  0.2384776E+04  0.7818608E-02  0.8445225E-01
         -2   -1    0    0    0  501 -0.00000000000E+00  0.00000000000E+00  0.10618087089E+04  0.10618087089E+04  0.00000000000E+00 0.  1.
          2   -1    0    0  501    0  0.00000000000E+00 -0.00000000000E+00 -0.13390258605E+04  0.13390258605E+04  0.00000000000E+00 0. -1.
         23    2    1    2    0    0  0.83145782966E+03 -0.52885636996E+03  0.53394276476E+03  0.11245150199E+04  0.91803983355E+02 0.  0.
         11    1    3    3    0    0  0.63563182279E+02 -0.72287311056E+02  0.54682509632E+02  0.11070641508E+03  0.00000000000E+00 0.  1.
        -11    1    3    3    0    0  0.76789464738E+03 -0.45656905890E+03  0.47926025512E+03  0.10138086048E+04  0.00000000000E+00 0. -1.
         22    1    1    2    0    0 -0.83145782966E+03  0.52885636996E+03 -0.81115991639E+03  0.12763195495E+04  0.00000000000E+00 0. -1.
<mgrwt>
<rscale>  0 0.23847761E+04</rscale>
<asrwt>0</asrwt>
<pdfrwt beam="1">  1        2 0.20600398E+00 0.23847761E+04</pdfrwt>
<pdfrwt beam="2">  1       -2 0.16335519E+00 0.23847761E+04</pdfrwt>
<totfact> 0.33622713E+00</totfact>
</mgrwt>
</event>
<event>
 6    1  0.1585031E-006  0.2033945E+04  0.7818608E-02  0.8590913E-01
          2   -1    0    0  501    0  0.00000000000E+00  0.00000000000E+00  0.17971655483E+04  0.17971655483E+04  0.00000000000E+00 0. -1.
         -2   -1    0    0    0  501 -0.00000000000E+00 -0.00000000000E+00 -0.57548015141E+03  0.57548015141E+03  0.00000000000E+00 0.  1.
         23    2    1    2    0    0  0.72509490953E+03  0.38615511320E+03 -0.82970348447E+02  0.83089182404E+03  0.92837197628E+02 0.  0.
         13    1    3    3    0    0  0.15882978762E+03  0.42755109065E+02 -0.17156199054E+02  0.16537604407E+03  0.00000000000E+00 0.  1.
        -13    1    3    3    0    0  0.56626512191E+03  0.34340000414E+03 -0.65814149393E+02  0.66551577997E+03  0.00000000000E+00 0. -1.
         22    1    1    2    0    0 -0.72509490953E+03 -0.38615511320E+03  0.13046557454E+04  0.15417538757E+04  0.00000000000E+00 0. -1.
<mgrwt>
<rscale>  0 0.20339450E+04</rscale>
<asrwt>0</asrwt>
<pdfrwt beam="1">  1        2 0.27648700E+00 0.20339450E+04</pdfrwt>
<pdfrwt beam="2">  1       -2 0.88535409E-01 0.20339450E+04</pdfrwt>
<totfact> 0.88060240E+00</totfact>
</mgrwt>
</event>
<event>
 6    1  0.1585031E-006  0.2308082E+04  0.7818608E-02  0.8474741E-01
          2   -1    0    0  501    0  0.00000000000E+00  0.00000000000E+00  0.13688012778E+04  0.13688012778E+04  0.00000000000E+00 0. -1.
         -2   -1    0    0    0  501 -0.00000000000E+00 -0.00000000000E+00 -0.97297594621E+03  0.97297594621E+03  0.00000000000E+00 0.  1.
         23    2    1    2    0    0 -0.22555525616E+03 -0.67345228135E+03  0.11189244911E+04  0.13282262665E+04  0.88203453587E+02 0.  0.
         11    1    3    3    0    0 -0.16692119895E+03 -0.36037584084E+03  0.62142602811E+03  0.73749829948E+03  0.00000000000E+00 0.  1.
        -11    1    3    3    0    0 -0.58634057214E+02 -0.31307644051E+03  0.49749846304E+03  0.59072796699E+03  0.00000000000E+00 0. -1.
         22    1    1    2    0    0  0.22555525616E+03  0.67345228135E+03 -0.72309915960E+03  0.10135509575E+04  0.00000000000E+00 0.  1.
<mgrwt>
<rscale>  0 0.23080821E+04</rscale>
<asrwt>0</asrwt>
<pdfrwt beam="1">  1        2 0.21058481E+00 0.23080821E+04</pdfrwt>
<pdfrwt beam="2">  1       -2 0.14968861E+00 0.23080821E+04</pdfrwt>
<totfact> 0.41169695E+00</totfact>
</mgrwt>
</event>
<event>
 6    1  0.1585031E-006  0.2623764E+04  0.7818608E-02  0.8360174E-01
         -2   -1    0    0    0  501 -0.00000000000E+00  0.00000000000E+00  0.46610370150E+03  0.46610370150E+03  0.00000000000E+00 0.  1.
          2   -1    0    0  501    0  0.00000000000E+00 -0.00000000000E+00 -0.36923850713E+04  0.36923850713E+04  0.00000000000E+00 0. -1.
         23    2    1    2    0    0 -0.20069311168E+03  0.12020214593E+04 -0.23783028980E+04  0.26738336605E+04  0.89041877054E+02 0.  0.
         13    1    3    3    0    0 -0.11095761986E+03  0.48977993209E+03 -0.90726830142E+03  0.10369820375E+04  0.00000000000E+00 0.  1.
        -13    1    3    3    0    0 -0.89735491820E+02  0.71224152722E+03 -0.14710345966E+04  0.16368516231E+04  0.00000000000E+00 0. -1.
         22    1    1    2    0    0  0.20069311168E+03 -0.12020214593E+04 -0.84797847182E+03  0.14846551123E+04  0.00000000000E+00 0.  1.
<mgrwt>
<rscale>  0 0.26237640E+04</rscale>
<asrwt>0</asrwt>
<pdfrwt beam="1">  1        2 0.56805925E+00 0.26237640E+04</pdfrwt>
<pdfrwt beam="2">  1       -2 0.71708261E-01 0.26237640E+04</pdfrwt>
<totfact> 0.92143946E-01</totfact>
</mgrwt>
</event>
<event>
 6    1  0.1585031E-006  0.3131477E+04  0.7818608E-02  0.8207152E-01
         -1   -1    0    0    0  501 -0.00000000000E+00  0.00000000000E+00  0.25909893043E+04  0.25909893043E+04  0.00000000000E+00 0.  1.
          1   -1    0    0  501    0  0.00000000000E+00 -0.00000000000E+00 -0.94617780018E+03  0.94617780018E+03  0.00000000000E+00 0. -1.
         23    2    1    2    0    0 -0.12046005927E+04  0.32010176776E+02 -0.30390226130E+03  0.12459725298E+04  0.89463518537E+02 0.  0.
         13    1    3    3    0    0 -0.45253017660E+03  0.53023488534E+02 -0.12922900577E+03  0.47359812817E+03  0.00000000000E+00 0. -1.
        -13    1    3    3    0    0 -0.75207041615E+03 -0.21013311759E+02 -0.17467325554E+03  0.77237440165E+03  0.00000000000E+00 0.  1.
         22    1    1    2    0    0  0.12046005927E+04 -0.32010176776E+02  0.19487137654E+04  0.22911945747E+04  0.00000000000E+00 0.  1.
<mgrwt>
<rscale>  0 0.31314767E+04</rscale>
<asrwt>0</asrwt>
<pdfrwt beam="1">  1        1 0.14556582E+00 0.31314767E+04</pdfrwt>
<pdfrwt beam="2">  1       -1 0.39861374E+00 0.31314767E+04</pdfrwt>
<totfact> 0.10262787E-01</totfact>
</mgrwt>
</event>
<event>
 6    1  0.1585031E-006  0.2057571E+04  0.7818608E-02  0.8580167E-01
         -2   -1    0    0    0  501 -0.00000000000E+00  0.00000000000E+00  0.60486774679E+03  0.60486774679E+03  0.00000000000E+00 0.  1.
          2   -1    0    0  501    0  0.00000000000E+00 -0.00000000000E+00 -0.17498033097E+04  0.17498033097E+04  0.00000000000E+00 0. -1.
         23    2    1    2    0    0 -0.57233839377E+03 -0.40332161356E+03 -0.14321336684E+04  0.15978868648E+04  0.10952637905E+03 0.  0.
         13    1    3    3    0    0 -0.14923964327E+03 -0.52546629803E+02 -0.35408922697E+03  0.38783089109E+03  0.00000000000E+00 0. -1.
        -13    1    3    3    0    0 -0.42309875050E+03 -0.35077498376E+03 -0.10780444414E+04  0.12100559737E+04  0.00000000000E+00 0.  1.
         22    1    1    2    0    0  0.57233839377E+03  0.40332161356E+03  0.28719810547E+03  0.75678419166E+03  0.00000000000E+00 0.  1.
<mgrwt>
<rscale>  0 0.20575710E+04</rscale>
<asrwt>0</asrwt>
<pdfrwt beam="1">  1        2 0.26920051E+00 0.20575710E+04</pdfrwt>
<pdfrwt beam="2">  1       -2 0.93056575E-01 0.20575710E+04</pdfrwt>
<totfact> 0.83217159E+00</totfact>
</mgrwt>
</event>
<event>
 6    1  0.1585031E-006  0.3171288E+04  0.7818608E-02  0.8196441E-01
         -2   -1    0    0    0  501 -0.00000000000E+00  0.00000000000E+00  0.15487700735E+04  0.15487700735E+04  0.00000000000E+00 0.  1.
          2   -1    0    0  501    0  0.00000000000E+00 -0.00000000000E+00 -0.16233957882E+04  0.16233957882E+04  0.00000000000E+00 0. -1.
         23    2    1    2    0    0  0.96543061040E+03 -0.15164518579E+03  0.12101670762E+04  0.15579338332E+04  0.87183429305E+02 0.  0.
         11    1    3    3    0    0  0.28780270765E+03 -0.67655157587E+02  0.31402340687E+03  0.43129841055E+03  0.00000000000E+00 0. -1.
        -11    1    3    3    0    0  0.67762790275E+03 -0.83990028202E+02  0.89614366938E+03  0.11266354227E+04  0.00000000000E+00 0.  1.
         22    1    1    2    0    0 -0.96543061040E+03  0.15164518579E+03 -0.12847927910E+04  0.16142320284E+04  0.00000000000E+00 0. -1.
<mgrwt>
<rscale>  0 0.31712879E+04</rscale>
<asrwt>0</asrwt>
<pdfrwt beam="1">  1        2 0.24975320E+00 0.31712879E+04</pdfrwt>
<pdfrwt beam="2">  1       -2 0.23827232E+00 0.31712879E+04</pdfrwt>
<totfact> 0.69349234E-01</totfact>
</mgrwt>
</event>
<event>
 6    1  0.1585031E-006  0.5560144E+04  0.7818608E-02  0.7747467E-01
         -1   -1    0    0    0  501 -0.00000000000E+00  0.00000000000E+00  0.25217425554E+04  0.25217425554E+04  0.00000000000E+00 0.  1.
          1   -1    0    0  501    0  0.00000000000E+00 -0.00000000000E+00 -0.30648648555E+04  0.30648648555E+04  0.00000000000E+00 0. -1.
         23    2    1    2    0    0  0.67680614480E+03  0.17309513182E+04  0.18047025796E+04  0.25921891553E+04  0.90742452130E+02 0.  0.
         13    1    3    3    0    0  0.64415358043E+02  0.19235597163E+03  0.23531308378E+03  0.31068055229E+03  0.00000000000E+00 0.  1.
        -13    1    3    3    0    0  0.61239078675E+03  0.15385953465E+04  0.15693894959E+04  0.22815086031E+04  0.00000000000E+00 0. -1.
         22    1    1    2    0    0 -0.67680614480E+03 -0.17309513182E+04 -0.23478248797E+04  0.29944182556E+04  0.00000000000E+00 0. -1.
<mgrwt>
<rscale>  0 0.55601439E+04</rscale>
<asrwt>0</asrwt>
<pdfrwt beam="1">  1        1 0.47151767E+00 0.55601439E+04</pdfrwt>
<pdfrwt beam="2">  1       -1 0.38796039E+00 0.55601439E+04</pdfrwt>
<totfact> 0.31995171E-03</totfact>
</mgrwt>
</event>
<event>
 6    1  0.1585031E-006  0.1399574E+04  0.7818608E-02  0.8954127E-01
         -2   -1    0    0    0  501 -0.00000000000E+00  0.00000000000E+00  0.22003557977E+03  0.22003557977E+03  0.00000000000E+00 0.  1.
          2   -1    0    0  501    0  0.00000000000E+00 -0.00000000000E+00 -0.22255565406E+04  0.22255565406E+04  0.00000000000E+00 0. -1.
         23    2    1    2    0    0  0.21958766198E+03  0.43348024725E+03 -0.18797313797E+04  0.19436490113E+04  0.90871079992E+02 0.  0.
         11    1    3    3    0    0  0.80094421849E+02  0.17885042839E+03 -0.59193454274E+03  0.62352954624E+03  0.00000000000E+00 0. -1.
        -11    1    3    3    0    0  0.13949324013E+03  0.25462981885E+03 -0.12877968370E+04  0.13201194651E+04  0.00000000000E+00 0.  1.
         22    1    1    2    0    0 -0.21958766198E+03 -0.43348024725E+03 -0.12578958114E+03  0.50194310910E+03  0.00000000000E+00 0.  1.
<mgrwt>
<rscale>  0 0.13995737E+04</rscale>
<asrwt>0</asrwt>
<pdfrwt beam="1">  1        2 0.34239330E+00 0.13995737E+04</pdfrwt>
<pdfrwt beam="2">  1       -2 0.33851629E-01 0.13995737E+04</pdfrwt>
<totfact> 0.39766830E+01</totfact>
</mgrwt>
</event>
<event>
 6    1  0.1585031E-006  0.2318027E+04  0.7818608E-02  0.8470847E-01
         -1   -1    0    0    0  501 -0.00000000000E+00  0.00000000000E+00  0.88692357072E+03  0.88692357072E+03  0.00000000000E+00 0.  1.
          1   -1    0    0  501    0  0.00000000000E+00 -0.00000000000E+00 -0.15145754897E+04  0.15145754897E+04  0.00000000000E+00 0. -1.
         23    2    1    2    0    0  0.26695118585E+03  0.38117032419E+02  0.85146841733E+03  0.89799887317E+03  0.93207653762E+02 0.  0.
         11    1    3    3    0    0  0.69783392289E+02  0.52916450461E+02  0.26530477003E+03  0.27938592228E+03  0.00000000000E+00 0. -1.
        -11    1    3    3    0    0  0.19716779356E+03 -0.14799418042E+02  0.58616364730E+03  0.61861295089E+03  0.00000000000E+00 0.  1.
         22    1    1    2    0    0 -0.26695118585E+03 -0.38117032419E+02 -0.14791203363E+04  0.15035001872E+04  0.00000000000E+00 0. -1.
<mgrwt>
<rscale>  0 0.23180274E+04</rscale>
<asrwt>0</asrwt>
<pdfrwt beam="1">  1        1 0.23301161E+00 0.23180274E+04</pdfrwt>
<pdfrwt beam="2">  1       -1 0.13644978E+00 0.23180274E+04</pdfrwt>
<totfact> 0.25849694E+00</totfact>
</mgrwt>
</event>
<event>
 6    1  0.1585031E-006  0.9940309E+03  0.7818608E-02  0.9315116E-01
         -2   -1    0    0    0  501 -0.00000000000E+00  0.00000000000E+00  0.16123245749E+03  0.16123245749E+03  0.00000000000E+00 0.  1.
          2   -1    0    0  501    0  0.00000000000E+00 -0.00000000000E+00 -0.15321007122E+04  0.15321007122E+04  0.00000000000E+00 0. -1.
         23    2    1    2    0    0 -0.41270911354E+03 -0.13070755733E+03 -0.30182569148E+03  0.53996190251E+03  0.11422272185E+03 0.  0.
         13    1    3    3    0    0 -0.22759403679E+03 -0.31121772507E+02 -0.20754497887E+03  0.30958444496E+03  0.00000000000E+00 0. -1.
        -13    1    3    3    0    0 -0.18511507675E+03 -0.99585784820E+02 -0.94280712605E+02  0.23037745755E+03  0.00000000000E+00 0.  1.
         22    1    1    2    0    0  0.41270911354E+03  0.13070755733E+03 -0.10690425632E+04  0.11533712671E+04  0.00000000000E+00 0. -1.
<mgrwt>
<rscale>  0 0.99403091E+03</rscale>
<asrwt>0</asrwt>
<pdfrwt beam="1">  1        2 0.23570780E+00 0.99403091E+03</pdfrwt>
<pdfrwt beam="2">  1       -2 0.24804994E-01 0.99403091E+03</pdfrwt>
<totfact> 0.17681737E+02</totfact>
</mgrwt>
</event>
<event>
 6    1  0.1585031E-006  0.1490659E+04  0.7818608E-02  0.8890689E-01
          2   -1    0    0  501    0  0.00000000000E+00  0.00000000000E+00  0.12330850480E+04  0.12330850480E+04  0.00000000000E+00 0. -1.
         -2   -1    0    0    0  501 -0.00000000000E+00 -0.00000000000E+00 -0.45050890363E+03  0.45050890363E+03  0.00000000000E+00 0.  1.
         23    2    1    2    0    0  0.58241904349E+03  0.45434191587E+03  0.30570871430E+03  0.80436641304E+03  0.88932500774E+02 0.  0.
         11    1    3    3    0    0  0.37527341556E+03  0.24415871065E+03  0.16185924877E+03  0.47606935296E+03  0.00000000000E+00 0. -1.
        -11    1    3    3    0    0  0.20714562793E+03  0.21018320522E+03  0.14384946553E+03  0.32829706008E+03  0.00000000000E+00 0.  1.
         22    1    1    2    0    0 -0.58241904349E+03 -0.45434191587E+03  0.47686743003E+03  0.87922753856E+03  0.00000000000E+00 0.  1.
<mgrwt>
<rscale>  0 0.14906586E+04</rscale>
<asrwt>0</asrwt>
<pdfrwt beam="1">  1        2 0.18970539E+00 0.14906586E+04</pdfrwt>
<pdfrwt beam="2">  1       -2 0.69309063E-01 0.14906586E+04</pdfrwt>
<totfact> 0.33246653E+01</totfact>
</mgrwt>
</event>
<event>
 6    1  0.1585031E-006  0.2798972E+04  0.7818608E-02  0.8303587E-01
          2   -1    0    0  501    0  0.00000000000E+00  0.00000000000E+00  0.65754579305E+03  0.65754579305E+03  0.00000000000E+00 0. -1.
         -2   -1    0    0    0  501 -0.00000000000E+00 -0.00000000000E+00 -0.29785932770E+04  0.29785932770E+04  0.00000000000E+00 0.  1.
         23    2    1    2    0    0 -0.11534933958E+04  0.33477330323E+03 -0.20911113046E+04  0.24132364470E+04  0.91342662910E+02 0.  0.
         11    1    3    3    0    0 -0.99551279659E+03  0.25904635802E+03 -0.17568617478E+04  0.20358570541E+04  0.00000000000E+00 0. -1.
        -11    1    3    3    0    0 -0.15798059923E+03  0.75726945206E+02 -0.33424955687E+03  0.37737939296E+03  0.00000000000E+00 0.  1.
         22    1    1    2    0    0  0.11534933958E+04 -0.33477330323E+03 -0.22993617926E+03  0.12229026230E+04  0.00000000000E+00 0. -1.
<mgrwt>
<rscale>  0 0.27989723E+04</rscale>
<asrwt>0</asrwt>
<pdfrwt beam="1">  1        2 0.10116089E+00 0.27989723E+04</pdfrwt>
<pdfrwt beam="2">  1       -2 0.45824512E+00 0.27989723E+04</pdfrwt>
<totfact> 0.11790840E-01</totfact>
</mgrwt>
</event>
<event>
 6    1  0.1585031E-006  0.3524416E+04  0.7818608E-02  0.8108028E-01
          1   -1    0    0  501    0  0.00000000000E+00  0.00000000000E+00  0.11718795821E+04  0.11718795821E+04  0.00000000000E+00 0. -1.
         -1   -1    0    0    0  501 -0.00000000000E+00 -0.00000000000E+00 -0.26499114141E+04  0.26499114141E+04  0.00000000000E+00 0.  1.
         23    2    1    2    0    0  0.32520649173E+03 -0.16901613828E+04 -0.11433271411E+04  0.20683851697E+04  0.92819697982E+02 0.  0.
         11    1    3    3    0    0  0.31912179900E+03 -0.15445993931E+04 -0.10291874248E+04  0.18833089930E+04  0.00000000000E+00 0. -1.
        -11    1    3    3    0    0  0.60846927370E+01 -0.14556198973E+03 -0.11413971628E+03  0.18507617667E+03  0.00000000000E+00 0.  1.
         22    1    1    2    0    0 -0.32520649173E+03  0.16901613828E+04 -0.33470469090E+03  0.17534058265E+04  0.00000000000E+00 0. -1.
<mgrwt>
<rscale>  0 0.35244160E+04</rscale>
<asrwt>0</asrwt>
<pdfrwt beam="1">  1        1 0.18028917E+00 0.35244160E+04</pdfrwt>
<pdfrwt beam="2">  1       -1 0.40767867E+00 0.35244160E+04</pdfrwt>
<totfact> 0.57773674E-02</totfact>
</mgrwt>
</event>
<event>
 6    1  0.1585031E-006  0.2520149E+04  0.7818608E-02  0.8395842E-01
          2   -1    0    0  501    0  0.00000000000E+00  0.00000000000E+00  0.14386389997E+04  0.14386389997E+04  0.00000000000E+00 0.  1.
         -2   -1    0    0    0  501 -0.00000000000E+00 -0.00000000000E+00 -0.11036733256E+04  0.11036733256E+04  0.00000000000E+00 0. -1.
         23    2    1    2    0    0 -0.53297050486E+03  0.64439268916E+02  0.13158303231E+04  0.14241417489E+04  0.92521908029E+02 0.  0.
         11    1    3    3    0    0 -0.34568880147E+03  0.74711032125E+02  0.78011112572E+03  0.85653712952E+03  0.00000000000E+00 0.  1.
        -11    1    3    3    0    0 -0.18728170339E+03 -0.10271763208E+02  0.53571919735E+03  0.56760461939E+03  0.00000000000E+00 0. -1.
         22    1    1    2    0    0  0.53297050486E+03 -0.64439268916E+02 -0.98086464890E+03  0.11181705764E+04  0.00000000000E+00 0. -1.
<mgrwt>
<rscale>  0 0.25201488E+04</rscale>
<asrwt>0</asrwt>
<pdfrwt beam="1">  1        2 0.22132908E+00 0.25201488E+04</pdfrwt>
<pdfrwt beam="2">  1       -2 0.16979590E+00 0.25201488E+04</pdfrwt>
<totfact> 0.26191578E+00</totfact>
</mgrwt>
</event>
<event>
 6    1  0.1585031E-006  0.2531889E+04  0.7818608E-02  0.8391712E-01
         -2   -1    0    0    0  501 -0.00000000000E+00  0.00000000000E+00  0.80411159464E+03  0.80411159464E+03  0.00000000000E+00 0.  1.
          2   -1    0    0  501    0  0.00000000000E+00 -0.00000000000E+00 -0.19930259193E+04  0.19930259193E+04  0.00000000000E+00 0. -1.
         23    2    1    2    0    0  0.85298597661E+03  0.35422906860E+03  0.35980058145E+03  0.99392339195E+03  0.73238933042E+02 0.  0.
         13    1    3    3    0    0  0.42761377731E+03  0.14369539983E+03  0.19571702475E+03  0.49173881712E+03  0.00000000000E+00 0. -1.
        -13    1    3    3    0    0  0.42537219930E+03  0.21053366877E+03  0.16408355670E+03  0.50218457483E+03  0.00000000000E+00 0.  1.
         22    1    1    2    0    0 -0.85298597661E+03 -0.35422906860E+03 -0.15487149061E+04  0.18032141220E+04  0.00000000000E+00 0. -1.
<mgrwt>
<rscale>  0 0.25318888E+04</rscale>
<asrwt>0</asrwt>
<pdfrwt beam="1">  1        2 0.30661937E+00 0.25318888E+04</pdfrwt>
<pdfrwt beam="2">  1       -2 0.12370948E+00 0.25318888E+04</pdfrwt>
<totfact> 0.29511434E+00</totfact>
</mgrwt>
</event>
<event>
 6    1  0.1585031E-006  0.2100437E+04  0.7818608E-02  0.8561051E-01
          2   -1    0    0  501    0  0.00000000000E+00  0.00000000000E+00  0.10221726908E+04  0.10221726908E+04  0.00000000000E+00 0. -1.
         -2   -1    0    0    0  501 -0.00000000000E+00 -0.00000000000E+00 -0.10790339201E+04  0.10790339201E+04  0.00000000000E+00 0.  1.
         23    2    1    2    0    0 -0.23935298115E+03  0.26186348523E+03 -0.10149866402E+04  0.10795086920E+04  0.96326537436E+02 0.  0.
         13    1    3    3    0    0 -0.19411991281E+03  0.20371168076E+03 -0.66908301602E+03  0.72584645191E+03  0.00000000000E+00 0.  1.
        -13    1    3    3    0    0 -0.45233068336E+02  0.58151804473E+02 -0.34590362421E+03  0.35366224010E+03  0.00000000000E+00 0. -1.
         22    1    1    2    0    0  0.23935298115E+03 -0.26186348523E+03  0.95812541093E+03  0.10216979189E+04  0.00000000000E+00 0. -1.
<mgrwt>
<rscale>  0 0.21004371E+04</rscale>
<asrwt>0</asrwt>
<pdfrwt beam="1">  1        2 0.15725734E+00 0.21004371E+04</pdfrwt>
<pdfrwt beam="2">  1       -2 0.16600522E+00 0.21004371E+04</pdfrwt>
<totfact> 0.51138543E+00</totfact>
</mgrwt>
</event>
<event>
 6    1  0.1585031E-006  0.2161112E+04  0.7818608E-02  0.8534791E-01
         -1   -1    0    0    0  501 -0.00000000000E+00  0.00000000000E+00  0.22403980625E+04  0.22403980625E+04  0.00000000000E+00 0.  1.
          1   -1    0    0  501    0  0.00000000000E+00 -0.00000000000E+00 -0.52115802470E+03  0.52115802470E+03  0.00000000000E+00 0. -1.
         23    2    1    2    0    0  0.54129637410E+03 -0.87620081131E+03  0.12708505064E+04  0.16382650304E+04  0.90120330521E+02 0.  0.
         11    1    3    3    0    0  0.36286065389E+03 -0.50345514947E+03  0.76000861366E+03  0.98119724547E+03  0.00000000000E+00 0. -1.
        -11    1    3    3    0    0  0.17843572021E+03 -0.37274566184E+03  0.51084189272E+03  0.65706778495E+03  0.00000000000E+00 0.  1.
         22    1    1    2    0    0 -0.54129637410E+03  0.87620081131E+03  0.44838953143E+03  0.11232910568E+04  0.00000000000E+00 0. -1.
<mgrwt>
<rscale>  0 0.21611121E+04</rscale>
<asrwt>0</asrwt>
<pdfrwt beam="1">  1        1 0.80178158E-01 0.21611121E+04</pdfrwt>
<pdfrwt beam="2">  1       -1 0.34467662E+00 0.21611121E+04</pdfrwt>
<totfact> 0.64565907E-01</totfact>
</mgrwt>
</event>
<event>
 6    1  0.1585031E-006  0.4144693E+04  0.7818608E-02  0.7975977E-01
          2   -1    0    0  501    0  0.00000000000E+00  0.00000000000E+00  0.25249280289E+04  0.25249280289E+04  0.00000000000E+00 0. -1.
         -2   -1    0    0    0  501 -0.00000000000E+00 -0.00000000000E+00 -0.17008878904E+04  0.17008878904E+04  0.00000000000E+00 0.  1.
         23    2    1    2    0    0 -0.62441535083E+03 -0.24280942219E+03  0.24105973609E+04  0.25036037472E+04  0.90560150133E+02 0.  0.
         11    1    3    3    0    0 -0.22953729021E+03 -0.58777239531E+02  0.73199887185E+03  0.76939227958E+03  0.00000000000E+00 0.  1.
        -11    1    3    3    0    0 -0.39487806061E+03 -0.18403218266E+03  0.16785984891E+04  0.17342114677E+04  0.00000000000E+00 0. -1.
         22    1    1    2    0    0  0.62441535083E+03  0.24280942219E+03 -0.15865572223E+04  0.17222121721E+04  0.00000000000E+00 0.  1.
<mgrwt>
<rscale>  0 0.41446928E+04</rscale>
<asrwt>0</asrwt>
<pdfrwt beam="1">  1        2 0.38845047E+00 0.41446928E+04</pdfrwt>
<pdfrwt beam="2">  1       -2 0.26167506E+00 0.41446928E+04</pdfrwt>
<totfact> 0.14305735E-01</totfact>
</mgrwt>
</event>
<event>
 6    1  0.1585031E-006  0.1276497E+04  0.7818608E-02  0.9048413E-01
         -2   -1    0    0    0  501 -0.00000000000E+00  0.00000000000E+00  0.13871514122E+03  0.13871514122E+03  0.00000000000E+00 0.  1.
          2   -1    0    0  501    0  0.00000000000E+00 -0.00000000000E+00 -0.29366760044E+04  0.29366760044E+04  0.00000000000E+00 0. -1.
         23    2    1    2    0    0 -0.16226769073E+03  0.31831025781E+03 -0.26702655663E+04  0.26959727585E+04  0.10148249092E+03 0.  0.
         11    1    3    3    0    0 -0.26716739586E+02  0.16332565602E+03 -0.11752141847E+04  0.11868097716E+04  0.00000000000E+00 0. -1.
        -11    1    3    3    0    0 -0.13555095114E+03  0.15498460179E+03 -0.14950513816E+04  0.15091629869E+04  0.00000000000E+00 0.  1.
         22    1    1    2    0    0  0.16226769073E+03 -0.31831025781E+03 -0.12769529685E+03  0.37941838716E+03  0.00000000000E+00 0.  1.
<mgrwt>
<rscale>  0 0.12764974E+04</rscale>
<asrwt>0</asrwt>
<pdfrwt beam="1">  1        2 0.45179629E+00 0.12764974E+04</pdfrwt>
<pdfrwt beam="2">  1       -2 0.21340792E-01 0.12764974E+04</pdfrwt>
<totfact> 0.36076061E+01</totfact>
</mgrwt>
</event>
<event>
 6    1  0.1585031E-006  0.9506384E+03  0.7818608E-02  0.9364405E-01
          2   -1    0    0  501    0  0.00000000000E+00  0.00000000000E+00  0.24088936256E+04  0.24088936256E+04  0.00000000000E+00 0. -1.
         -2   -1    0    0    0  501 -0.00000000000E+00 -0.00000000000E+00 -0.93789253314E+02  0.93789253314E+02  0.00000000000E+00 0.  1.
         23    2    1    2    0    0 -0.17155678276E+03 -0.31265518205E+03  0.35806282096E+03  0.51341250358E+03  0.90545140697E+02 0.  0.
         11    1    3    3    0    0 -0.98630268326E+02 -0.89612897988E+02  0.12696957429E+03  0.18406432058E+03  0.00000000000E+00 0.  1.
        -11    1    3    3    0    0 -0.72926514433E+02 -0.22304228406E+03  0.23109324668E+03  0.32934818300E+03  0.00000000000E+00 0. -1.
         22    1    1    2    0    0  0.17155678276E+03  0.31265518205E+03  0.19570415513E+04  0.19892703753E+04  0.00000000000E+00 0. -1.
<mgrwt>
<rscale>  0 0.95063838E+03</rscale>
<asrwt>0</asrwt>
<pdfrwt beam="1">  1        2 0.37059897E+00 0.95063838E+03</pdfrwt>
<pdfrwt beam="2">  1       -2 0.14429118E-01 0.95063838E+03</pdfrwt>
<totfact> 0.14931547E+02</totfact>
</mgrwt>
</event>
<event>
 6    1  0.1585031E-006  0.1044749E+04  0.7818608E-02  0.9260783E-01
         -2   -1    0    0    0  501 -0.00000000000E+00  0.00000000000E+00  0.14447657612E+03  0.14447657612E+03  0.00000000000E+00 0.  1.
          2   -1    0    0  501    0  0.00000000000E+00 -0.00000000000E+00 -0.18887137288E+04  0.18887137288E+04  0.00000000000E+00 0. -1.
         23    2    1    2    0    0  0.50994746022E+03  0.85558482944E+02 -0.93634899025E+03  0.10739979628E+04  0.96723970004E+02 0.  0.
         13    1    3    3    0    0  0.39282636530E+03  0.10619122490E+03 -0.71223242219E+03  0.82028297114E+03  0.00000000000E+00 0.  1.
        -13    1    3    3    0    0  0.11712109492E+03 -0.20632741960E+02 -0.22411656805E+03  0.25371499166E+03  0.00000000000E+00 0. -1.
         22    1    1    2    0    0 -0.50994746022E+03 -0.85558482944E+02 -0.80788816243E+03  0.95919234212E+03  0.00000000000E+00 0. -1.
<mgrwt>
<rscale>  0 0.10447486E+04</rscale>
<asrwt>0</asrwt>
<pdfrwt beam="1">  1        2 0.29057132E+00 0.10447486E+04</pdfrwt>
<pdfrwt beam="2">  1       -2 0.22227167E-01 0.10447486E+04</pdfrwt>
<totfact> 0.13625555E+02</totfact>
</mgrwt>
</event>
<event>
 6    1  0.1585031E-006  0.2655934E+04  0.7818608E-02  0.8349446E-01
         -1   -1    0    0    0  501 -0.00000000000E+00  0.00000000000E+00  0.44556745025E+03  0.44556745025E+03  0.00000000000E+00 0. -1.
          1   -1    0    0  501    0  0.00000000000E+00 -0.00000000000E+00 -0.39578671953E+04  0.39578671953E+04  0.00000000000E+00 0.  1.
         23    2    1    2    0    0  0.60668262969E+03 -0.16668416584E+02 -0.37136602864E+04  0.37639913588E+04  0.89535339297E+02 0.  0.
         11    1    3    3    0    0  0.38506514986E+03 -0.41005763461E+02 -0.21639434294E+04  0.21983193144E+04  0.00000000000E+00 0.  1.
        -11    1    3    3    0    0  0.22161747983E+03  0.24337346877E+02 -0.15497168570E+04  0.15656720445E+04  0.00000000000E+00 0. -1.
         22    1    1    2    0    0 -0.60668262969E+03  0.16668416584E+02  0.20136054140E+03  0.63944328671E+03  0.00000000000E+00 0. -1.
<mgrwt>
<rscale>  0 0.26559343E+04</rscale>
<asrwt>0</asrwt>
<pdfrwt beam="1">  1        1 0.60890267E+00 0.26559343E+04</pdfrwt>
<pdfrwt beam="2">  1       -1 0.68548836E-01 0.26559343E+04</pdfrwt>
<totfact> 0.19743640E-01</totfact>
</mgrwt>
</event>
<event>
 6    1  0.1585031E-006  0.4126230E+04  0.7818608E-02  0.7979555E-01
         -1   -1    0    0    0  501 -0.00000000000E+00  0.00000000000E+00  0.15555017127E+04  0.15555017127E+04  0.00000000000E+00 0.  1.
          1   -1    0    0  501    0  0.00000000000E+00 -0.00000000000E+00 -0.27363793427E+04  0.27363793427E+04  0.00000000000E+00 0. -1.
         23    2    1    2    0    0 -0.11344388995E+04 -0.10570643155E+04 -0.20045761217E+04  0.25360861389E+04  0.95241232612E+02 0.  0.
         11    1    3    3    0    0 -0.47712353521E+03 -0.38612132471E+03 -0.82239557887E+03  0.10261924933E+04  0.00000000000E+00 0. -1.
        -11    1    3    3    0    0 -0.65731536426E+03 -0.67094299083E+03 -0.11821805428E+04  0.15098936455E+04  0.00000000000E+00 0.  1.
         22    1    1    2    0    0  0.11344388995E+04  0.10570643155E+04  0.82369849164E+03  0.17557949165E+04  0.00000000000E+00 0.  1.
<mgrwt>
<rscale>  0 0.41262296E+04</rscale>
<asrwt>0</asrwt>
<pdfrwt beam="1">  1        1 0.42098143E+00 0.41262296E+04</pdfrwt>
<pdfrwt beam="2">  1       -1 0.23930796E+00 0.41262296E+04</pdfrwt>
<totfact> 0.58690865E-02</totfact>
</mgrwt>
</event>
<event>
 6    1  0.1585031E-006  0.1003243E+04  0.7818608E-02  0.9304996E-01
         -2   -1    0    0    0  501 -0.00000000000E+00  0.00000000000E+00  0.38810738378E+03  0.38810738378E+03  0.00000000000E+00 0. -1.
          2   -1    0    0  501    0  0.00000000000E+00 -0.00000000000E+00 -0.64833578643E+03  0.64833578643E+03  0.00000000000E+00 0.  1.
         23    2    1    2    0    0  0.17008079588E+03  0.26911458322E+03 -0.52634341578E+03  0.62151265042E+03  0.88828189597E+02 0.  0.
         13    1    3    3    0    0  0.72515082869E+02  0.18689284335E+03 -0.35765595639E+03  0.41000628688E+03  0.00000000000E+00 0. -1.
        -13    1    3    3    0    0  0.97565713009E+02  0.82221739869E+02 -0.16868745939E+03  0.21150636354E+03  0.00000000000E+00 0.  1.
         22    1    1    2    0    0 -0.17008079588E+03 -0.26911458322E+03  0.26611501313E+03  0.41493051978E+03  0.00000000000E+00 0. -1.
<mgrwt>
<rscale>  0 0.10032426E+04</rscale>
<asrwt>0</asrwt>
<pdfrwt beam="1">  1        2 0.99743967E-01 0.10032426E+04</pdfrwt>
<pdfrwt beam="2">  1       -2 0.59708829E-01 0.10032426E+04</pdfrwt>
<totfact> 0.11788551E+02</totfact>
</mgrwt>
</event>
<event>
 6    1  0.2010176E-006  0.4430783E+04  0.7818608E-02  0.7922868E-01
          2   -1    0    0  501    0  0.00000000000E+00  0.00000000000E+00  0.26824303292E+04  0.26824303292E+04  0.00000000000E+00 0. -1.
         -2   -1    0    0    0  501 -0.00000000000E+00 -0.00000000000E+00 -0.18296690829E+04  0.18296690829E+04  0.00000000000E+00 0.  1.
         23    2    1    2    0    0  0.20769963620E+04 -0.74225396632E+03  0.62784931962E+03  0.22950202044E+04  0.89822781700E+02 0.  0.
         11    1    3    3    0    0  0.12780905489E+04 -0.41693301551E+03  0.35882878123E+03  0.13914405071E+04  0.00000000000E+00 0.  1.
        -11    1    3    3    0    0  0.79890581314E+03 -0.32532095081E+03  0.26902053839E+03  0.90357969731E+03  0.00000000000E+00 0. -1.
         22    1    1    2    0    0 -0.20769963620E+04  0.74225396632E+03  0.22491192665E+03  0.22170792077E+04  0.00000000000E+00 0. -1.
<mgrwt>
<rscale>  0 0.44307832E+04</rscale>
<asrwt>0</asrwt>
<pdfrwt beam="1">  1        2 0.41268159E+00 0.44307832E+04</pdfrwt>
<pdfrwt beam="2">  1       -2 0.28148755E+00 0.44307832E+04</pdfrwt>
<totfact> 0.85473148E-02</totfact>
</mgrwt>
</event>
<event>
 6    1  0.1585031E-006  0.4258658E+04  0.7818608E-02  0.7954307E-01
         -2   -1    0    0    0  501 -0.00000000000E+00  0.00000000000E+00  0.12897458726E+04  0.12897458726E+04  0.00000000000E+00 0.  1.
          2   -1    0    0  501    0  0.00000000000E+00 -0.00000000000E+00 -0.35154539203E+04  0.35154539203E+04  0.00000000000E+00 0. -1.
         23    2    1    2    0    0 -0.86750841928E+03 -0.14949020959E+04  0.28820411273E+03  0.17544527559E+04  0.87975724517E+02 0.  0.
         11    1    3    3    0    0 -0.72837691741E+03 -0.12426139959E+04  0.20727134352E+03  0.14551920445E+04  0.00000000000E+00 0.  1.
        -11    1    3    3    0    0 -0.13913150188E+03 -0.25228810003E+03  0.80932769203E+02  0.29926071136E+03  0.00000000000E+00 0. -1.
         22    1    1    2    0    0  0.86750841928E+03  0.14949020959E+04 -0.25139121604E+04  0.30507470371E+04  0.00000000000E+00 0. -1.
<mgrwt>
<rscale>  0 0.42586581E+04</rscale>
<asrwt>0</asrwt>
<pdfrwt beam="1">  1        2 0.54083906E+00 0.42586581E+04</pdfrwt>
<pdfrwt beam="2">  1       -2 0.19842244E+00 0.42586581E+04</pdfrwt>
<totfact> 0.83289851E-02</totfact>
</mgrwt>
</event>
<event>
 6    1  0.1585031E-006  0.9717053E+03  0.7818608E-02  0.9340134E-01
          2   -1    0    0  501    0  0.00000000000E+00  0.00000000000E+00  0.19388597538E+03  0.19388597538E+03  0.00000000000E+00 0. -1.
         -2   -1    0    0    0  501 -0.00000000000E+00 -0.00000000000E+00 -0.12174826871E+04  0.12174826871E+04  0.00000000000E+00 0.  1.
         23    2    1    2    0    0  0.20741454843E+03 -0.43422522723E+03 -0.50347253295E+03  0.70277745157E+03  0.94017084317E+02 0.  0.
         13    1    3    3    0    0  0.13727096344E+03 -0.19134989903E+03 -0.21103657433E+03  0.31621912809E+03  0.00000000000E+00 0. -1.
        -13    1    3    3    0    0  0.70143584981E+02 -0.24287532820E+03 -0.29243595861E+03  0.38655832348E+03  0.00000000000E+00 0.  1.
         22    1    1    2    0    0 -0.20741454843E+03  0.43422522723E+03 -0.52012417881E+03  0.70859121096E+03  0.00000000000E+00 0. -1.
<mgrwt>
<rscale>  0 0.97170534E+03</rscale>
<asrwt>0</asrwt>
<pdfrwt beam="1">  1        2 0.29828612E-01 0.97170534E+03</pdfrwt>
<pdfrwt beam="2">  1       -2 0.18730502E+00 0.97170534E+03</pdfrwt>
<totfact> 0.28977624E+01</totfact>
</mgrwt>
</event>
<event>
 6    1  0.1585031E-006  0.2205633E+04  0.7818608E-02  0.8516087E-01
         -2   -1    0    0    0  501 -0.00000000000E+00  0.00000000000E+00  0.94747087097E+03  0.94747087097E+03  0.00000000000E+00 0.  1.
          2   -1    0    0  501    0  0.00000000000E+00 -0.00000000000E+00 -0.12836323094E+04  0.12836323094E+04  0.00000000000E+00 0. -1.
         23    2    1    2    0    0 -0.35522198312E+03 -0.10296840569E+04 -0.32934749588E+03  0.11418473132E+04  0.94411859880E+02 0.  0.
         13    1    3    3    0    0 -0.24629630588E+03 -0.69731827653E+03 -0.26887745493E+03  0.78689880851E+03  0.00000000000E+00 0. -1.
        -13    1    3    3    0    0 -0.10892567724E+03 -0.33236578038E+03 -0.60470040951E+02  0.35494850469E+03  0.00000000000E+00 0.  1.
         22    1    1    2    0    0  0.35522198312E+03  0.10296840569E+04 -0.68139425531E+01  0.10892558672E+04  0.00000000000E+00 0. -1.
<mgrwt>
<rscale>  0 0.22056330E+04</rscale>
<asrwt>0</asrwt>
<pdfrwt beam="1">  1        2 0.19748189E+00 0.22056330E+04</pdfrwt>
<pdfrwt beam="2">  1       -2 0.14576475E+00 0.22056330E+04</pdfrwt>
<totfact> 0.49905523E+00</totfact>
</mgrwt>
</event>
<event>
 6    1  0.1585031E-006  0.1187186E+04  0.7818608E-02  0.9124147E-01
          2   -1    0    0  501    0  0.00000000000E+00  0.00000000000E+00  0.90866720117E+03  0.90866720117E+03  0.00000000000E+00 0.  1.
         -2   -1    0    0    0  501 -0.00000000000E+00 -0.00000000000E+00 -0.38776873331E+03  0.38776873331E+03  0.00000000000E+00 0. -1.
         23    2    1    2    0    0 -0.34739368840E+03 -0.44000488036E+03  0.61034402039E+02  0.57134171403E+03  0.91757759801E+02 0.  0.
         13    1    3    3    0    0 -0.44619828851E+02 -0.11405574029E+03  0.25083094911E+02  0.12501520976E+03  0.00000000000E+00 0. -1.
        -13    1    3    3    0    0 -0.30277385955E+03 -0.32594914007E+03  0.35951307128E+02  0.44632650428E+03  0.00000000000E+00 0.  1.
         22    1    1    2    0    0  0.34739368840E+03  0.44000488036E+03  0.45986406583E+03  0.72509422044E+03  0.00000000000E+00 0.  1.
<mgrwt>
<rscale>  0 0.11871861E+04</rscale>
<asrwt>0</asrwt>
<pdfrwt beam="1">  1        2 0.13979495E+00 0.11871861E+04</pdfrwt>
<pdfrwt beam="2">  1       -2 0.59656728E-01 0.11871861E+04</pdfrwt>
<totfact> 0.74909761E+01</totfact>
</mgrwt>
</event>
<event>
 6    1  0.1585031E-006  0.1244757E+04  0.7818608E-02  0.9074558E-01
          2   -1    0    0  501    0  0.00000000000E+00  0.00000000000E+00  0.12584415947E+04  0.12584415947E+04  0.00000000000E+00 0. -1.
         -2   -1    0    0    0  501 -0.00000000000E+00 -0.00000000000E+00 -0.30780554301E+03  0.30780554301E+03  0.00000000000E+00 0.  1.
         23    2    1    2    0    0 -0.66785539735E+02  0.39514767658E+03  0.10713465425E+04  0.11477103804E+04  0.94094147542E+02 0.  0.
         11    1    3    3    0    0  0.10715782205E+02  0.20702208482E+03  0.50301350005E+03  0.54405473330E+03  0.00000000000E+00 0.  1.
        -11    1    3    3    0    0 -0.77501321940E+02  0.18812559176E+03  0.56833304241E+03  0.60365564710E+03  0.00000000000E+00 0. -1.
         22    1    1    2    0    0  0.66785539735E+02 -0.39514767658E+03 -0.12071049079E+03  0.41853675730E+03  0.00000000000E+00 0.  1.
<mgrwt>
<rscale>  0 0.12447575E+04</rscale>
<asrwt>0</asrwt>
<pdfrwt beam="1">  1        2 0.19360640E+00 0.12447575E+04</pdfrwt>
<pdfrwt beam="2">  1       -2 0.47354699E-01 0.12447575E+04</pdfrwt>
<totfact> 0.72681248E+01</totfact>
</mgrwt>
</event>
<event>
 6    1  0.1585031E-006  0.7646018E+03  0.7818608E-02  0.9612717E-01
          1   -1    0    0  501    0  0.00000000000E+00  0.00000000000E+00  0.65899099276E+03  0.65899099276E+03  0.00000000000E+00 0. -1.
         -1   -1    0    0    0  501 -0.00000000000E+00 -0.00000000000E+00 -0.22178448078E+03  0.22178448078E+03  0.00000000000E+00 0.  1.
         23    2    1    2    0    0  0.98208310495E+02  0.10349228435E+03  0.62351229635E+03  0.64611535665E+03  0.91334250057E+02 0.  0.
         13    1    3    3    0    0  0.11025049340E+03  0.64294194862E+02  0.49686942661E+03  0.51299916363E+03  0.00000000000E+00 0.  1.
        -13    1    3    3    0    0 -0.12042182902E+02  0.39198089490E+02  0.12664286974E+03  0.13311619303E+03  0.00000000000E+00 0. -1.
         22    1    1    2    0    0 -0.98208310495E+02 -0.10349228435E+03 -0.18630578436E+03  0.23466011689E+03  0.00000000000E+00 0.  1.
<mgrwt>
<rscale>  0 0.76460179E+03</rscale>
<asrwt>0</asrwt>
<pdfrwt beam="1">  1        1 0.10138323E+00 0.76460179E+03</pdfrwt>
<pdfrwt beam="2">  1       -1 0.34120690E-01 0.76460179E+03</pdfrwt>
<totfact> 0.24500176E+02</totfact>
</mgrwt>
</event>
<event>
 6    1  0.1585031E-006  0.5640543E+04  0.7818608E-02  0.7736641E-01
          1   -1    0    0  501    0  0.00000000000E+00  0.00000000000E+00  0.41871533135E+04  0.41871533135E+04  0.00000000000E+00 0. -1.
         -1   -1    0    0    0  501 -0.00000000000E+00 -0.00000000000E+00 -0.18996036455E+04  0.18996036455E+04  0.00000000000E+00 0.  1.
         23    2    1    2    0    0  0.16263986879E+04 -0.78606733623E+03  0.34801956536E+04  0.39221602307E+04  0.92220053653E+02 0.  0.
         11    1    3    3    0    0  0.45724805191E+03 -0.19573680021E+03  0.88480633667E+03  0.10150226250E+04  0.00000000000E+00 0.  1.
        -11    1    3    3    0    0  0.11691506360E+04 -0.59033053602E+03  0.25953893169E+04  0.29071376056E+04  0.00000000000E+00 0. -1.
         22    1    1    2    0    0 -0.16263986879E+04  0.78606733623E+03 -0.11926459857E+04  0.21645967283E+04  0.00000000000E+00 0.  1.
<mgrwt>
<rscale>  0 0.56405431E+04</rscale>
<asrwt>0</asrwt>
<pdfrwt beam="1">  1        1 0.64417743E+00 0.56405431E+04</pdfrwt>
<pdfrwt beam="2">  1       -1 0.29224672E+00 0.56405431E+04</pdfrwt>
<totfact> 0.16464893E-03</totfact>
</mgrwt>
</event>
<event>
 6    1  0.1585031E-006  0.2327944E+04  0.7818608E-02  0.8466984E-01
         -2   -1    0    0    0  501 -0.00000000000E+00  0.00000000000E+00  0.11932205614E+04  0.11932205614E+04  0.00000000000E+00 0.  1.
          2   -1    0    0  501    0  0.00000000000E+00 -0.00000000000E+00 -0.11354408080E+04  0.11354408080E+04  0.00000000000E+00 0. -1.
         23    2    1    2    0    0 -0.88797013982E+03  0.20405343999E+03  0.75064810486E+03  0.11840237289E+04  0.91163795554E+02 0.  0.
         11    1    3    3    0    0 -0.32043758664E+03  0.10481388292E+03  0.31875265865E+03  0.46397139392E+03  0.00000000000E+00 0. -1.
        -11    1    3    3    0    0 -0.56753255318E+03  0.99239557073E+02  0.43189544622E+03  0.72005233495E+03  0.00000000000E+00 0.  1.
         22    1    1    2    0    0  0.88797013982E+03 -0.20405343999E+03 -0.69286835148E+03  0.11446376405E+04  0.00000000000E+00 0. -1.
<mgrwt>
<rscale>  0 0.23279444E+04</rscale>
<asrwt>0</asrwt>
<pdfrwt beam="1">  1        2 0.17468320E+00 0.23279444E+04</pdfrwt>
<pdfrwt beam="2">  1       -2 0.18357239E+00 0.23279444E+04</pdfrwt>
<totfact> 0.32115373E+00</totfact>
</mgrwt>
</event>
<event>
 6    1  0.1585031E-006  0.1369492E+04  0.7818608E-02  0.8976203E-01
          1   -1    0    0  501    0  0.00000000000E+00  0.00000000000E+00  0.80064306955E+03  0.80064306955E+03  0.00000000000E+00 0. -1.
         -1   -1    0    0    0  501 -0.00000000000E+00 -0.00000000000E+00 -0.58562570962E+03  0.58562570962E+03  0.00000000000E+00 0.  1.
         23    2    1    2    0    0 -0.22273090988E+03 -0.63510373997E+03  0.22026280004E+03  0.71322098489E+03  0.84868448013E+02 0.  0.
         11    1    3    3    0    0 -0.12797916401E+03 -0.31767710161E+03  0.70471451107E+02  0.34966216943E+03  0.00000000000E+00 0. -1.
        -11    1    3    3    0    0 -0.94751745874E+02 -0.31742663836E+03  0.14979134893E+03  0.36355881546E+03  0.00000000000E+00 0.  1.
         22    1    1    2    0    0  0.22273090988E+03  0.63510373997E+03 -0.52454401124E+01  0.67304779428E+03  0.00000000000E+00 0.  1.
<mgrwt>
<rscale>  0 0.13694921E+04</rscale>
<asrwt>0</asrwt>
<pdfrwt beam="1">  1        1 0.12317586E+00 0.13694921E+04</pdfrwt>
<pdfrwt beam="2">  1       -1 0.90096263E-01 0.13694921E+04</pdfrwt>
<totfact> 0.26018184E+01</totfact>
</mgrwt>
</event>
<event>
 6    1  0.1585031E-006  0.1277881E+04  0.7818608E-02  0.9047292E-01
          2   -1    0    0  501    0  0.00000000000E+00  0.00000000000E+00  0.80028966973E+03  0.80028966973E+03  0.00000000000E+00 0. -1.
         -2   -1    0    0    0  501 -0.00000000000E+00 -0.00000000000E+00 -0.51012165897E+03  0.51012165897E+03  0.00000000000E+00 0.  1.
         23    2    1    2    0    0  0.24539571570E+03 -0.50834751231E+03  0.44546730425E+03  0.72495926309E+03  0.92133400162E+02 0.  0.
         11    1    3    3    0    0  0.21233679996E+03 -0.45442025597E+03  0.35470161744E+03  0.61432721172E+03  0.00000000000E+00 0.  1.
        -11    1    3    3    0    0  0.33058915745E+02 -0.53927256346E+02  0.90765686818E+02  0.11063205137E+03  0.00000000000E+00 0. -1.
         22    1    1    2    0    0 -0.24539571570E+03  0.50834751231E+03 -0.15529929349E+03  0.58545206560E+03  0.00000000000E+00 0.  1.
<mgrwt>
<rscale>  0 0.12778812E+04</rscale>
<asrwt>0</asrwt>
<pdfrwt beam="1">  1        2 0.12312149E+00 0.12778812E+04</pdfrwt>
<pdfrwt beam="2">  1       -2 0.78480255E-01 0.12778812E+04</pdfrwt>
<totfact> 0.48796619E+01</totfact>
</mgrwt>
</event>
<event>
 6    1  0.1585031E-006  0.3019578E+04  0.7818608E-02  0.8238162E-01
          2   -1    0    0  501    0  0.00000000000E+00  0.00000000000E+00  0.20399866493E+04  0.20399866493E+04  0.00000000000E+00 0. -1.
         -2   -1    0    0    0  501 -0.00000000000E+00 -0.00000000000E+00 -0.11173910078E+04  0.11173910078E+04  0.00000000000E+00 0.  1.
         23    2    1    2    0    0 -0.12021823052E+04 -0.87703508422E+03  0.20353915501E+03  0.15046601783E+04  0.90228769012E+02 0.  0.
         11    1    3    3    0    0 -0.68524005068E+03 -0.55083069778E+03  0.13684971871E+03  0.88977313411E+03  0.00000000000E+00 0.  1.
        -11    1    3    3    0    0 -0.51694225453E+03 -0.32620438643E+03  0.66689436300E+02  0.61488704423E+03  0.00000000000E+00 0. -1.
         22    1    1    2    0    0  0.12021823052E+04  0.87703508422E+03  0.71905648646E+03  0.16527174788E+04  0.00000000000E+00 0. -1.
<mgrwt>
<rscale>  0 0.30195779E+04</rscale>
<asrwt>0</asrwt>
<pdfrwt beam="1">  1        2 0.31384410E+00 0.30195779E+04</pdfrwt>
<pdfrwt beam="2">  1       -2 0.17190631E+00 0.30195779E+04</pdfrwt>
<totfact> 0.11207731E+00</totfact>
</mgrwt>
</event>
<event>
 6    1  0.1959551E-006  0.3343215E+04  0.7818608E-02  0.8151986E-01
          2   -1    0    0  501    0  0.00000000000E+00  0.00000000000E+00  0.19299882397E+04  0.19299882397E+04  0.00000000000E+00 0. -1.
         -2   -1    0    0    0  501 -0.00000000000E+00 -0.00000000000E+00 -0.14478177564E+04  0.14478177564E+04  0.00000000000E+00 0.  1.
         23    2    1    2    0    0 -0.39310787892E+02  0.41662570004E+03 -0.13922185495E+04  0.14572705087E+04  0.10120540513E+03 0.  0.
         13    1    3    3    0    0 -0.34203430416E+02  0.35629150723E+03 -0.10396125442E+04  0.10995034128E+04  0.00000000000E+00 0.  1.
        -13    1    3    3    0    0 -0.51073574767E+01  0.60334192809E+02 -0.35260600533E+03  0.35776709591E+03  0.00000000000E+00 0. -1.
         22    1    1    2    0    0  0.39310787892E+02 -0.41662570004E+03  0.18743890328E+04  0.19205354873E+04  0.00000000000E+00 0. -1.
<mgrwt>
<rscale>  0 0.33432148E+04</rscale>
<asrwt>0</asrwt>
<pdfrwt beam="1">  1        2 0.29692127E+00 0.33432148E+04</pdfrwt>
<pdfrwt beam="2">  1       -2 0.22274119E+00 0.33432148E+04</pdfrwt>
<totfact> 0.57763624E-01</totfact>
</mgrwt>
</event>
<event>
 6    1  0.1585031E-006  0.1895443E+04  0.7818608E-02  0.8657128E-01
         -2   -1    0    0    0  501 -0.00000000000E+00  0.00000000000E+00  0.12319678747E+04  0.12319678747E+04  0.00000000000E+00 0.  1.
          2   -1    0    0  501    0  0.00000000000E+00 -0.00000000000E+00 -0.72905775821E+03  0.72905775821E+03  0.00000000000E+00 0. -1.
         23    2    1    2    0    0 -0.43056586044E+03 -0.14708209643E+03 -0.60565815370E+03  0.76271694440E+03  0.88855134176E+02 0.  0.
         11    1    3    3    0    0 -0.23956584539E+03 -0.63182989275E+02 -0.26120936063E+03  0.36001974181E+03  0.00000000000E+00 0. -1.
        -11    1    3    3    0    0 -0.19100001505E+03 -0.83899107154E+02 -0.34444879307E+03  0.40269720259E+03  0.00000000000E+00 0.  1.
         22    1    1    2    0    0  0.43056586044E+03  0.14708209643E+03  0.11085682702E+04  0.11983086885E+04  0.00000000000E+00 0.  1.
<mgrwt>
<rscale>  0 0.18954427E+04</rscale>
<asrwt>0</asrwt>
<pdfrwt beam="1">  1        2 0.11216273E+00 0.18954427E+04</pdfrwt>
<pdfrwt beam="2">  1       -2 0.18953352E+00 0.18954427E+04</pdfrwt>
<totfact> 0.56860773E+00</totfact>
</mgrwt>
</event>
<event>
 6    1  0.1585031E-006  0.9976815E+03  0.7818608E-02  0.9311091E-01
         -1   -1    0    0    0  501 -0.00000000000E+00  0.00000000000E+00  0.65186170128E+03  0.65186170128E+03  0.00000000000E+00 0.  1.
          1   -1    0    0  501    0  0.00000000000E+00 -0.00000000000E+00 -0.38174063545E+03  0.38174063545E+03  0.00000000000E+00 0. -1.
         23    2    1    2    0    0  0.45608598394E+03 -0.19119487411E+03  0.13480032000E+03  0.52088252155E+03  0.92615173464E+02 0.  0.
         11    1    3    3    0    0  0.39428086992E+03 -0.13215190263E+03  0.94781829725E+02  0.42650337044E+03  0.00000000000E+00 0. -1.
        -11    1    3    3    0    0  0.61805114016E+02 -0.59042971483E+02  0.40018490273E+02  0.94379151107E+02  0.00000000000E+00 0.  1.
         22    1    1    2    0    0 -0.45608598394E+03  0.19119487411E+03  0.13532074583E+03  0.51271981518E+03  0.00000000000E+00 0. -1.
<mgrwt>
<rscale>  0 0.99768151E+03</rscale>
<asrwt>0</asrwt>
<pdfrwt beam="1">  1        1 0.58729329E-01 0.99768151E+03</pdfrwt>
<pdfrwt beam="2">  1       -1 0.10028642E+00 0.99768151E+03</pdfrwt>
<totfact> 0.60658060E+01</totfact>
</mgrwt>
</event>
<event>
 6    1  0.1585031E-006  0.1495673E+04  0.7818608E-02  0.8887336E-01
         -1   -1    0    0    0  501 -0.00000000000E+00  0.00000000000E+00  0.49059709759E+03  0.49059709759E+03  0.00000000000E+00 0.  1.
          1   -1    0    0  501    0  0.00000000000E+00 -0.00000000000E+00 -0.11399559805E+04  0.11399559805E+04  0.00000000000E+00 0. -1.
         23    2    1    2    0    0 -0.60782810136E+03 -0.33434694171E+03 -0.29825611680E+02  0.70046472079E+03  0.92295068798E+02 0.  0.
         13    1    3    3    0    0 -0.54228195891E+03 -0.32727791628E+03 -0.19133551349E+02  0.63367708672E+03  0.00000000000E+00 0. -1.
        -13    1    3    3    0    0 -0.65546142453E+02 -0.70690254285E+01 -0.10692060331E+02  0.66787634073E+02  0.00000000000E+00 0.  1.
         22    1    1    2    0    0  0.60782810136E+03  0.33434694171E+03 -0.61953327125E+03  0.93008835732E+03  0.00000000000E+00 0. -1.
<mgrwt>
<rscale>  0 0.14956726E+04</rscale>
<asrwt>0</asrwt>
<pdfrwt beam="1">  1        1 0.17537784E+00 0.14956726E+04</pdfrwt>
<pdfrwt beam="2">  1       -1 0.75476477E-01 0.14956726E+04</pdfrwt>
<totfact> 0.20206790E+01</totfact>
</mgrwt>
</event>
<event>
 6    1  0.1585031E-006  0.1709660E+04  0.7818608E-02  0.8755874E-01
         -3   -1    0    0    0  501 -0.00000000000E+00  0.00000000000E+00  0.86004601639E+03  0.86004601639E+03  0.00000000000E+00 0.  1.
          3   -1    0    0  501    0  0.00000000000E+00 -0.00000000000E+00 -0.84964569811E+03  0.84964569811E+03  0.00000000000E+00 0. -1.
         23    2    1    2    0    0 -0.69678394478E+03  0.20301326256E+03  0.45203949756E+03  0.86012275605E+03  0.93537145851E+02 0.  0.
         13    1    3    3    0    0 -0.33892291389E+03  0.50163200978E+02  0.21352835103E+03  0.40370712774E+03  0.00000000000E+00 0.  1.
        -13    1    3    3    0    0 -0.35786103088E+03  0.15285006158E+03  0.23851114653E+03  0.45641562832E+03  0.00000000000E+00 0. -1.
         22    1    1    2    0    0  0.69678394478E+03 -0.20301326256E+03 -0.44163917928E+03  0.84956895845E+03  0.00000000000E+00 0. -1.
<mgrwt>
<rscale>  0 0.17096601E+04</rscale>
<asrwt>0</asrwt>
<pdfrwt beam="1">  1        3 0.13071472E+00 0.17096601E+04</pdfrwt>
<pdfrwt beam="2">  1       -3 0.13231477E+00 0.17096601E+04</pdfrwt>
<totfact> 0.50700553E-01</totfact>
</mgrwt>
</event>
<event>
 6    1  0.1585031E-006  0.2257023E+04  0.7818608E-02  0.8495062E-01
          2   -1    0    0  501    0  0.00000000000E+00  0.00000000000E+00  0.52901052596E+03  0.52901052596E+03  0.00000000000E+00 0. -1.
         -2   -1    0    0    0  501 -0.00000000000E+00 -0.00000000000E+00 -0.24073968272E+04  0.24073968272E+04  0.00000000000E+00 0.  1.
         23    2    1    2    0    0  0.37019949761E+03 -0.90834721819E+03 -0.16618974111E+04  0.19319125665E+04  0.90778977769E+02 0.  0.
         13    1    3    3    0    0  0.15637327326E+03 -0.39474574180E+03 -0.80812304919E+03  0.91287439656E+03  0.00000000000E+00 0. -1.
        -13    1    3    3    0    0  0.21382622435E+03 -0.51360147639E+03 -0.85377436191E+03  0.10190381700E+04  0.00000000000E+00 0.  1.
         22    1    1    2    0    0 -0.37019949761E+03  0.90834721819E+03 -0.21648889013E+03  0.10044947866E+04  0.00000000000E+00 0.  1.
<mgrwt>
<rscale>  0 0.22570230E+04</rscale>
<asrwt>0</asrwt>
<pdfrwt beam="1">  1        2 0.81386237E-01 0.22570230E+04</pdfrwt>
<pdfrwt beam="2">  1       -2 0.37036873E+00 0.22570230E+04</pdfrwt>
<totfact> 0.60638792E-01</totfact>
</mgrwt>
</event>
<event>
 6    1  0.1585031E-006  0.5564652E+04  0.7818608E-02  0.7746855E-01
          2   -1    0    0  501    0  0.00000000000E+00  0.00000000000E+00  0.41249279786E+04  0.41249279786E+04  0.00000000000E+00 0. -1.
         -2   -1    0    0    0  501 -0.00000000000E+00 -0.00000000000E+00 -0.18767208410E+04  0.18767208410E+04  0.00000000000E+00 0.  1.
         23    2    1    2    0    0  0.24112757740E+03 -0.22517993590E+04  0.28662925169E+04  0.36541453803E+04  0.91666823046E+02 0.  0.
         13    1    3    3    0    0  0.61648554433E+02 -0.93368957192E+03  0.12226951127E+04  0.15396623330E+04  0.00000000000E+00 0.  1.
        -13    1    3    3    0    0  0.17947902296E+03 -0.13181097870E+04  0.16435974042E+04  0.21144830473E+04  0.00000000000E+00 0. -1.
         22    1    1    2    0    0 -0.24112757740E+03  0.22517993590E+04 -0.61808537930E+03  0.23475034393E+04  0.00000000000E+00 0.  1.
<mgrwt>
<rscale>  0 0.55646521E+04</rscale>
<asrwt>0</asrwt>
<pdfrwt beam="1">  1        2 0.63460430E+00 0.55646521E+04</pdfrwt>
<pdfrwt beam="2">  1       -2 0.28872628E+00 0.55646521E+04</pdfrwt>
<totfact> 0.69498391E-03</totfact>
</mgrwt>
</event>
<event>
 6    1  0.1881457E-006  0.2686768E+04  0.7818608E-02  0.8339311E-01
         -1   -1    0    0    0  501 -0.00000000000E+00  0.00000000000E+00  0.95352711539E+03  0.95352711539E+03  0.00000000000E+00 0.  1.
          1   -1    0    0  501    0  0.00000000000E+00 -0.00000000000E+00 -0.18926373390E+04  0.18926373390E+04  0.00000000000E+00 0. -1.
         23    2    1    2    0    0  0.73587387663E+03  0.11190687750E+04 -0.38366018968E+03  0.13962161706E+04  0.91646976774E+02 0.  0.
         11    1    3    3    0    0  0.43876705848E+03  0.59510514551E+03 -0.23481095674E+03  0.77575953183E+03  0.00000000000E+00 0. -1.
        -11    1    3    3    0    0  0.29710681815E+03  0.52396362949E+03 -0.14884923293E+03  0.62045663874E+03  0.00000000000E+00 0.  1.
         22    1    1    2    0    0 -0.73587387663E+03 -0.11190687750E+04 -0.55545003390E+03  0.14499482838E+04  0.00000000000E+00 0.  1.
<mgrwt>
<rscale>  0 0.26867683E+04</rscale>
<asrwt>0</asrwt>
<pdfrwt beam="1">  1        1 0.29117497E+00 0.26867683E+04</pdfrwt>
<pdfrwt beam="2">  1       -1 0.14669648E+00 0.26867683E+04</pdfrwt>
<totfact> 0.11411010E+00</totfact>
</mgrwt>
</event>
<event>
 6    1  0.1585031E-006  0.1585515E+04  0.7818608E-02  0.8829496E-01
          1   -1    0    0  501    0  0.00000000000E+00  0.00000000000E+00  0.70388476591E+03  0.70388476591E+03  0.00000000000E+00 0. -1.
         -1   -1    0    0    0  501 -0.00000000000E+00 -0.00000000000E+00 -0.89285159787E+03  0.89285159787E+03  0.00000000000E+00 0.  1.
         23    2    1    2    0    0  0.75088928545E+03 -0.10952394126E+03  0.12725676005E+03  0.77464903700E+03  0.89758759148E+02 0.  0.
         13    1    3    3    0    0  0.44722196552E+02 -0.26711491311E+02  0.18998103919E+02  0.55448233380E+02  0.00000000000E+00 0.  1.
        -13    1    3    3    0    0  0.70616708890E+03 -0.82812449951E+02  0.10825865613E+03  0.71920080362E+03  0.00000000000E+00 0. -1.
         22    1    1    2    0    0 -0.75088928545E+03  0.10952394126E+03 -0.31622359201E+03  0.82208732678E+03  0.00000000000E+00 0.  1.
<mgrwt>
<rscale>  0 0.15855152E+04</rscale>
<asrwt>0</asrwt>
<pdfrwt beam="1">  1        1 0.10828996E+00 0.15855152E+04</pdfrwt>
<pdfrwt beam="2">  1       -1 0.13736178E+00 0.15855152E+04</pdfrwt>
<totfact> 0.11433707E+01</totfact>
</mgrwt>
</event>
<event>
 6    1  0.1585031E-006  0.4918022E+04  0.7818608E-02  0.7841279E-01
         -2   -1    0    0    0  501 -0.00000000000E+00  0.00000000000E+00  0.18561090893E+04  0.18561090893E+04  0.00000000000E+00 0.  1.
          2   -1    0    0  501    0  0.00000000000E+00 -0.00000000000E+00 -0.32577478767E+04  0.32577478767E+04  0.00000000000E+00 0. -1.
         23    2    1    2    0    0  0.14765483176E+04 -0.16850170290E+04  0.35113727602E+03  0.22692653872E+04  0.82405633420E+02 0.  0.
         11    1    3    3    0    0  0.80718650197E+03 -0.89558273803E+03  0.22685022779E+03  0.12268168223E+04  0.00000000000E+00 0. -1.
        -11    1    3    3    0    0  0.66936181566E+03 -0.78943429097E+03  0.12428704824E+03  0.10424485649E+04  0.00000000000E+00 0.  1.
         22    1    1    2    0    0 -0.14765483176E+04  0.16850170290E+04 -0.17527760634E+04  0.28445915789E+04  0.00000000000E+00 0. -1.
<mgrwt>
<rscale>  0 0.49180221E+04</rscale>
<asrwt>0</asrwt>
<pdfrwt beam="1">  1        2 0.50119198E+00 0.49180221E+04</pdfrwt>
<pdfrwt beam="2">  1       -2 0.28555525E+00 0.49180221E+04</pdfrwt>
<totfact> 0.33876316E-02</totfact>
</mgrwt>
</event>
<event>
 6    1  0.1585031E-006  0.2080206E+04  0.7818608E-02  0.8570013E-01
         -1   -1    0    0    0  501 -0.00000000000E+00  0.00000000000E+00  0.53861973513E+03  0.53861973513E+03  0.00000000000E+00 0.  1.
          1   -1    0    0  501    0  0.00000000000E+00 -0.00000000000E+00 -0.20084938870E+04  0.20084938870E+04  0.00000000000E+00 0. -1.
         23    2    1    2    0    0  0.71387448477E+03 -0.77289669196E+02 -0.16549603421E+04  0.18055966832E+04  0.75466386017E+02 0.  0.
         13    1    3    3    0    0  0.28478668721E+03 -0.59426458040E+02 -0.60972360964E+03  0.67557223247E+03  0.00000000000E+00 0.  1.
        -13    1    3    3    0    0  0.42908779756E+03 -0.17863211156E+02 -0.10452367325E+04  0.11300244507E+04  0.00000000000E+00 0. -1.
         22    1    1    2    0    0 -0.71387448477E+03  0.77289669196E+02  0.18508619021E+03  0.74151693897E+03  0.00000000000E+00 0.  1.
<mgrwt>
<rscale>  0 0.20802062E+04</rscale>
<asrwt>0</asrwt>
<pdfrwt beam="1">  1        1 0.30899906E+00 0.20802062E+04</pdfrwt>
<pdfrwt beam="2">  1       -1 0.82864576E-01 0.20802062E+04</pdfrwt>
<totfact> 0.39184882E+00</totfact>
</mgrwt>
</event>
<event>
 6    1  0.1585031E-006  0.2773812E+04  0.7818608E-02  0.8311445E-01
          2   -1    0    0  501    0  0.00000000000E+00  0.00000000000E+00  0.33817888302E+04  0.33817888302E+04  0.00000000000E+00 0. -1.
         -2   -1    0    0    0  501 -0.00000000000E+00 -0.00000000000E+00 -0.56878431638E+03  0.56878431638E+03  0.00000000000E+00 0.  1.
         23    2    1    2    0    0  0.27067866519E+02  0.10412865710E+04  0.27090530224E+04  0.29037606969E+04  0.88586196012E+02 0.  0.
         13    1    3    3    0    0  0.18734618699E+01  0.12165063511E+03  0.40321008696E+03  0.42116595436E+03  0.00000000000E+00 0.  1.
        -13    1    3    3    0    0  0.25194404649E+02  0.91963593585E+03  0.23058429355E+04  0.24825947425E+04  0.00000000000E+00 0. -1.
         22    1    1    2    0    0 -0.27067866519E+02 -0.10412865710E+04  0.10395149139E+03  0.10468124497E+04  0.00000000000E+00 0.  1.
<mgrwt>
<rscale>  0 0.27738121E+04</rscale>
<asrwt>0</asrwt>
<pdfrwt beam="1">  1        2 0.52027519E+00 0.27738121E+04</pdfrwt>
<pdfrwt beam="2">  1       -2 0.87505282E-01 0.27738121E+04</pdfrwt>
<totfact> 0.96436069E-01</totfact>
</mgrwt>
</event>
<event>
 6    1  0.1585031E-006  0.1891539E+04  0.7818608E-02  0.8659080E-01
          1   -1    0    0  501    0  0.00000000000E+00  0.00000000000E+00  0.74088897012E+03  0.74088897012E+03  0.00000000000E+00 0. -1.
         -1   -1    0    0    0  501 -0.00000000000E+00 -0.00000000000E+00 -0.12073060745E+04  0.12073060745E+04  0.00000000000E+00 0.  1.
         23    2    1    2    0    0 -0.17208835235E+03 -0.87110918063E+03 -0.56261096748E+03  0.10550551536E+04  0.90358567716E+02 0.  0.
         11    1    3    3    0    0 -0.11986351199E+03 -0.66608784836E+03 -0.38375134247E+03  0.77801373772E+03  0.00000000000E+00 0. -1.
        -11    1    3    3    0    0 -0.52224840363E+02 -0.20502133227E+03 -0.17885962502E+03  0.27704141585E+03  0.00000000000E+00 0.  1.
         22    1    1    2    0    0  0.17208835235E+03  0.87110918063E+03  0.96193863150E+02  0.89313989100E+03  0.00000000000E+00 0. -1.
<mgrwt>
<rscale>  0 0.18915388E+04</rscale>
<asrwt>0</asrwt>
<pdfrwt beam="1">  1        1 0.11398292E+00 0.18915388E+04</pdfrwt>
<pdfrwt beam="2">  1       -1 0.18573939E+00 0.18915388E+04</pdfrwt>
<totfact> 0.44257934E+00</totfact>
</mgrwt>
</event>
<event>
 6    1  0.1585031E-006  0.2988086E+04  0.7818608E-02  0.8247141E-01
          2   -1    0    0  501    0  0.00000000000E+00  0.00000000000E+00  0.41197080313E+04  0.41197080313E+04  0.00000000000E+00 0. -1.
         -2   -1    0    0    0  501 -0.00000000000E+00 -0.00000000000E+00 -0.54182589709E+03  0.54182589709E+03  0.00000000000E+00 0.  1.
         23    2    1    2    0    0  0.76777787529E+03 -0.44218566924E+03 -0.82708918043E+02  0.89524425768E+03  0.98033075613E+02 0.  0.
         13    1    3    3    0    0  0.52303246819E+03 -0.28994716377E+03 -0.10074360724E+03  0.60644999378E+03  0.00000000000E+00 0. -1.
        -13    1    3    3    0    0  0.24474540710E+03 -0.15223850547E+03  0.18034689196E+02  0.28879426390E+03  0.00000000000E+00 0.  1.
         22    1    1    2    0    0 -0.76777787529E+03  0.44218566924E+03  0.36605910522E+04  0.37662896707E+04  0.00000000000E+00 0. -1.
<mgrwt>
<rscale>  0 0.29880860E+04</rscale>
<asrwt>0</asrwt>
<pdfrwt beam="1">  1        2 0.63380122E+00 0.29880860E+04</pdfrwt>
<pdfrwt beam="2">  1       -2 0.83357833E-01 0.29880860E+04</pdfrwt>
<totfact> 0.29385175E-01</totfact>
</mgrwt>
</event>
<event>
 6    1  0.1585031E-006  0.3067204E+04  0.7818608E-02  0.8224796E-01
          1   -1    0    0  501    0  0.00000000000E+00  0.00000000000E+00  0.17970237012E+04  0.17970237012E+04  0.00000000000E+00 0. -1.
         -1   -1    0    0    0  501 -0.00000000000E+00 -0.00000000000E+00 -0.13087951214E+04  0.13087951214E+04  0.00000000000E+00 0.  1.
         23    2    1    2    0    0 -0.10105431741E+04 -0.10142226653E+04 -0.30851575122E+03  0.14673296861E+04  0.89606457559E+02 0.  0.
         11    1    3    3    0    0 -0.22565439420E+03 -0.17603436601E+03 -0.65094973477E+02  0.29350529674E+03  0.00000000000E+00 0.  1.
        -11    1    3    3    0    0 -0.78488877993E+03 -0.83818829932E+03 -0.24342077775E+03  0.11738243893E+04  0.00000000000E+00 0. -1.
         22    1    1    2    0    0  0.10105431741E+04  0.10142226653E+04  0.79674433101E+03  0.16384891366E+04  0.00000000000E+00 0. -1.
<mgrwt>
<rscale>  0 0.30672045E+04</rscale>
<asrwt>0</asrwt>
<pdfrwt beam="1">  1        1 0.27646519E+00 0.30672045E+04</pdfrwt>
<pdfrwt beam="2">  1       -1 0.20135309E+00 0.30672045E+04</pdfrwt>
<totfact> 0.51021951E-01</totfact>
</mgrwt>
</event>
<event>
 6    1  0.1585031E-006  0.2724287E+04  0.7818608E-02  0.8327168E-01
          1   -1    0    0  501    0  0.00000000000E+00  0.00000000000E+00  0.30645307762E+04  0.30645307762E+04  0.00000000000E+00 0. -1.
         -1   -1    0    0    0  501 -0.00000000000E+00 -0.00000000000E+00 -0.60545459869E+03  0.60545459869E+03  0.00000000000E+00 0.  1.
         23    2    1    2    0    0 -0.40840730215E+03  0.59114707454E+03  0.27874304021E+04  0.28800057011E+04  0.91723518475E+02 0.  0.
         11    1    3    3    0    0 -0.37178844340E+03  0.48426198365E+03  0.22997903766E+04  0.23794478543E+04  0.00000000000E+00 0. -1.
        -11    1    3    3    0    0 -0.36618858748E+02  0.10688509089E+03  0.48764002551E+03  0.50055784675E+03  0.00000000000E+00 0.  1.
         22    1    1    2    0    0  0.40840730215E+03 -0.59114707454E+03 -0.32835422457E+03  0.78997967378E+03  0.00000000000E+00 0.  1.
<mgrwt>
<rscale>  0 0.27242865E+04</rscale>
<asrwt>0</asrwt>
<pdfrwt beam="1">  1        1 0.47146627E+00 0.27242865E+04</pdfrwt>
<pdfrwt beam="2">  1       -1 0.93146863E-01 0.27242865E+04</pdfrwt>
<totfact> 0.52245099E-01</totfact>
</mgrwt>
</event>
<event>
 6    1  0.1585031E-006  0.1248665E+04  0.7818608E-02  0.9071295E-01
         -1   -1    0    0    0  501 -0.00000000000E+00  0.00000000000E+00  0.36648054608E+03  0.36648054608E+03  0.00000000000E+00 0.  1.
          1   -1    0    0  501    0  0.00000000000E+00 -0.00000000000E+00 -0.10636070577E+04  0.10636070577E+04  0.00000000000E+00 0. -1.
         23    2    1    2    0    0  0.14032424457E+03 -0.52176132395E+03  0.67923567051E+00  0.54755792511E+03  0.88845074146E+02 0.  0.
         13    1    3    3    0    0  0.94874487666E+02 -0.18702447617E+03  0.33437028874E+01  0.20973913189E+03  0.00000000000E+00 0. -1.
        -13    1    3    3    0    0  0.45449756901E+02 -0.33473684778E+03 -0.26644672169E+01  0.33781879322E+03  0.00000000000E+00 0.  1.
         22    1    1    2    0    0 -0.14032424457E+03  0.52176132395E+03 -0.69780574732E+03  0.88252967869E+03  0.00000000000E+00 0. -1.
<mgrwt>
<rscale>  0 0.12486654E+04</rscale>
<asrwt>0</asrwt>
<pdfrwt beam="1">  1        1 0.16363186E+00 0.12486654E+04</pdfrwt>
<pdfrwt beam="2">  1       -1 0.56381622E-01 0.12486654E+04</pdfrwt>
<totfact> 0.42416037E+01</totfact>
</mgrwt>
</event>
<event>
 6    1  0.1585031E-006  0.1175749E+04  0.7818608E-02  0.9134352E-01
         -1   -1    0    0    0  501 -0.00000000000E+00  0.00000000000E+00  0.24413176928E+03  0.24413176928E+03  0.00000000000E+00 0.  1.
          1   -1    0    0  501    0  0.00000000000E+00 -0.00000000000E+00 -0.14156143169E+04  0.14156143169E+04  0.00000000000E+00 0. -1.
         23    2    1    2    0    0 -0.21114083917E+03  0.52514901409E+03 -0.79386691039E+03  0.97933774524E+03  0.92281129594E+02 0.  0.
         13    1    3    3    0    0 -0.14570648903E+03  0.27167570730E+03 -0.37575786242E+03  0.48603707888E+03  0.00000000000E+00 0.  1.
        -13    1    3    3    0    0 -0.65434350146E+02  0.25347330679E+03 -0.41810904797E+03  0.49330066636E+03  0.00000000000E+00 0. -1.
         22    1    1    2    0    0  0.21114083917E+03 -0.52514901409E+03 -0.37761563727E+03  0.68040834098E+03  0.00000000000E+00 0.  1.
<mgrwt>
<rscale>  0 0.11757490E+04</rscale>
<asrwt>0</asrwt>
<pdfrwt beam="1">  1        1 0.21778682E+00 0.11757490E+04</pdfrwt>
<pdfrwt beam="2">  1       -1 0.37558734E-01 0.11757490E+04</pdfrwt>
<totfact> 0.50721483E+01</totfact>
</mgrwt>
</event>
<event>
 6    1  0.1585031E-006  0.2286532E+04  0.7818608E-02  0.8483250E-01
         -2   -1    0    0    0  501 -0.00000000000E+00  0.00000000000E+00  0.74440939053E+03  0.74440939053E+03  0.00000000000E+00 0.  1.
          2   -1    0    0  501    0  0.00000000000E+00 -0.00000000000E+00 -0.17558309966E+04  0.17558309966E+04  0.00000000000E+00 0. -1.
         23    2    1    2    0    0  0.19395722889E+03 -0.20985665889E+03  0.70187002288E+03  0.76328113897E+03  0.91199474601E+02 0.  0.
         11    1    3    3    0    0  0.14330733111E+03 -0.10648376767E+03  0.49967343469E+03  0.53061221741E+03  0.00000000000E+00 0.  1.
        -11    1    3    3    0    0  0.50649897782E+02 -0.10337289122E+03  0.20219658819E+03  0.23266892156E+03  0.00000000000E+00 0. -1.
         22    1    1    2    0    0 -0.19395722889E+03  0.20985665889E+03 -0.17132916289E+04  0.17369592481E+04  0.00000000000E+00 0. -1.
<mgrwt>
<rscale>  0 0.22865319E+04</rscale>
<asrwt>0</asrwt>
<pdfrwt beam="1">  1        2 0.27012784E+00 0.22865319E+04</pdfrwt>
<pdfrwt beam="2">  1       -2 0.11452452E+00 0.22865319E+04</pdfrwt>
<totfact> 0.49363255E+00</totfact>
</mgrwt>
</event>
<event>
 6    1  0.1585031E-006  0.1523175E+04  0.7818608E-02  0.8869186E-01
          1   -1    0    0  501    0  0.00000000000E+00  0.00000000000E+00  0.40997079780E+03  0.40997079780E+03  0.00000000000E+00 0. -1.
         -1   -1    0    0    0  501 -0.00000000000E+00 -0.00000000000E+00 -0.14147734872E+04  0.14147734872E+04  0.00000000000E+00 0.  1.
         23    2    1    2    0    0  0.42586780935E+03  0.10435158244E+03 -0.12461968475E+04  0.13242207758E+04  0.91112218662E+02 0.  0.
         11    1    3    3    0    0  0.54891188905E+02  0.25297718374E+02 -0.27539900776E+03  0.28195324196E+03  0.00000000000E+00 0.  1.
        -11    1    3    3    0    0  0.37097662044E+03  0.79053864063E+02 -0.97079783976E+03  0.10422675338E+04  0.00000000000E+00 0. -1.
         22    1    1    2    0    0 -0.42586780935E+03 -0.10435158244E+03  0.24139415807E+03  0.50052350929E+03  0.00000000000E+00 0. -1.
<mgrwt>
<rscale>  0 0.15231754E+04</rscale>
<asrwt>0</asrwt>
<pdfrwt beam="1">  1        1 0.63072431E-01 0.15231754E+04</pdfrwt>
<pdfrwt beam="2">  1       -1 0.21765746E+00 0.15231754E+04</pdfrwt>
<totfact> 0.63959093E+00</totfact>
</mgrwt>
</event>
<event>
 6    1  0.1585031E-006  0.3423910E+04  0.7818608E-02  0.8132063E-01
         -1   -1    0    0    0  501 -0.00000000000E+00  0.00000000000E+00  0.10304165672E+04  0.10304165672E+04  0.00000000000E+00 0.  1.
          1   -1    0    0  501    0  0.00000000000E+00 -0.00000000000E+00 -0.28442772360E+04  0.28442772360E+04  0.00000000000E+00 0. -1.
         23    2    1    2    0    0  0.12254031267E+04  0.96576403540E+01  0.44335889725E+03  0.13062806233E+04  0.89977008755E+02 0.  0.
         11    1    3    3    0    0  0.10388445095E+03  0.11996928134E+02  0.62640741448E+02  0.12190064776E+03  0.00000000000E+00 0. -1.
        -11    1    3    3    0    0  0.11215186758E+04 -0.23392877799E+01  0.38071815580E+03  0.11843799756E+04  0.00000000000E+00 0.  1.
         22    1    1    2    0    0 -0.12254031267E+04 -0.96576403540E+01 -0.22572195661E+04  0.25684131799E+04  0.00000000000E+00 0. -1.
<mgrwt>
<rscale>  0 0.34239103E+04</rscale>
<asrwt>0</asrwt>
<pdfrwt beam="1">  1        1 0.43758110E+00 0.34239103E+04</pdfrwt>
<pdfrwt beam="2">  1       -1 0.15852563E+00 0.34239103E+04</pdfrwt>
<totfact> 0.19065294E-01</totfact>
</mgrwt>
</event>
<event>
 6    1  0.1824365E-006  0.3160615E+04  0.7818608E-02  0.8199297E-01
         -1   -1    0    0    0  501 -0.00000000000E+00  0.00000000000E+00  0.91495494849E+03  0.91495494849E+03  0.00000000000E+00 0.  1.
          1   -1    0    0  501    0  0.00000000000E+00 -0.00000000000E+00 -0.27295028802E+04  0.27295028802E+04  0.00000000000E+00 0. -1.
         23    2    1    2    0    0  0.45360457001E+03 -0.14183432694E+04 -0.30138825941E+03  0.15214630266E+04  0.80994582518E+02 0.  0.
         11    1    3    3    0    0  0.29342409745E+03 -0.88413519991E+03 -0.14978847146E+03  0.94351965473E+03  0.00000000000E+00 0. -1.
        -11    1    3    3    0    0  0.16018047256E+03 -0.53420806954E+03 -0.15159978794E+03  0.57794337184E+03  0.00000000000E+00 0.  1.
         22    1    1    2    0    0 -0.45360457001E+03  0.14183432694E+04 -0.15131596723E+04  0.21229948021E+04  0.00000000000E+00 0. -1.
<mgrwt>
<rscale>  0 0.31606152E+04</rscale>
<asrwt>0</asrwt>
<pdfrwt beam="1">  1        1 0.41992352E+00 0.31606152E+04</pdfrwt>
<pdfrwt beam="2">  1       -1 0.14076230E+00 0.31606152E+04</pdfrwt>
<totfact> 0.32428293E-01</totfact>
</mgrwt>
</event>
<event>
 6    1  0.1585031E-006  0.6796894E+03  0.7818608E-02  0.9752611E-01
         -2   -1    0    0    0  501 -0.00000000000E+00  0.00000000000E+00  0.50265465254E+02  0.50265465254E+02  0.00000000000E+00 0.  1.
          2   -1    0    0  501    0  0.00000000000E+00 -0.00000000000E+00 -0.22976891192E+04  0.22976891192E+04  0.00000000000E+00 0. -1.
         23    2    1    2    0    0 -0.17109280923E+03 -0.27736324789E+03 -0.13925953873E+04  0.14331133490E+04  0.91043053890E+02 0.  0.
         13    1    3    3    0    0 -0.64118946166E+01 -0.63636977615E+02 -0.37184560204E+03  0.37730614767E+03  0.00000000000E+00 0.  1.
        -13    1    3    3    0    0 -0.16468091462E+03 -0.21372627027E+03 -0.10207497853E+04  0.10558072014E+04  0.00000000000E+00 0. -1.
         22    1    1    2    0    0  0.17109280923E+03  0.27736324789E+03 -0.85482826661E+03  0.91484123543E+03  0.00000000000E+00 0.  1.
<mgrwt>
<rscale>  0 0.67968938E+03</rscale>
<asrwt>0</asrwt>
<pdfrwt beam="1">  1        2 0.35349064E+00 0.67968938E+03</pdfrwt>
<pdfrwt beam="2">  1       -2 0.77331483E-02 0.67968938E+03</pdfrwt>
<totfact> 0.49014995E+02</totfact>
</mgrwt>
</event>
<event>
 6    1  0.1585031E-006  0.1774462E+04  0.7818608E-02  0.8719999E-01
         -2   -1    0    0    0  501 -0.00000000000E+00  0.00000000000E+00  0.54554092693E+03  0.54554092693E+03  0.00000000000E+00 0.  1.
          2   -1    0    0  501    0  0.00000000000E+00 -0.00000000000E+00 -0.14429333849E+04  0.14429333849E+04  0.00000000000E+00 0. -1.
         23    2    1    2    0    0 -0.54442896033E+02 -0.41689857870E+03  0.42270224549E+03  0.60304351965E+03  0.90641295232E+02 0.  0.
         13    1    3    3    0    0  0.10773310993E+02 -0.68398917121E+02  0.34709160883E+02  0.77454515312E+02  0.00000000000E+00 0.  1.
        -13    1    3    3    0    0 -0.65216207026E+02 -0.34849966157E+03  0.38799308461E+03  0.52558900434E+03  0.00000000000E+00 0. -1.
         22    1    1    2    0    0  0.54442896033E+02  0.41689857870E+03 -0.13200947035E+04  0.13854307922E+04  0.00000000000E+00 0. -1.
<mgrwt>
<rscale>  0 0.17744624E+04</rscale>
<asrwt>0</asrwt>
<pdfrwt beam="1">  1        2 0.22198975E+00 0.17744624E+04</pdfrwt>
<pdfrwt beam="2">  1       -2 0.83929374E-01 0.17744624E+04</pdfrwt>
<totfact> 0.16045369E+01</totfact>
</mgrwt>
</event>
<event>
 6    1  0.1585031E-006  0.4116665E+04  0.7818608E-02  0.7981416E-01
          2   -1    0    0  501    0  0.00000000000E+00  0.00000000000E+00  0.34402462708E+04  0.34402462708E+04  0.00000000000E+00 0. -1.
         -2   -1    0    0    0  501 -0.00000000000E+00 -0.00000000000E+00 -0.12315201642E+04  0.12315201642E+04  0.00000000000E+00 0.  1.
         23    2    1    2    0    0  0.18025999991E+04  0.61926829031E+03  0.22609345905E+03  0.19215496822E+04  0.91514789069E+02 0.  0.
         13    1    3    3    0    0  0.10437875125E+04  0.36912913084E+03  0.17563261856E+03  0.11209797068E+04  0.00000000000E+00 0.  1.
        -13    1    3    3    0    0  0.75881248664E+03  0.25013915948E+03  0.50460840496E+02  0.80056997534E+03  0.00000000000E+00 0. -1.
         22    1    1    2    0    0 -0.18025999991E+04 -0.61926829031E+03  0.19826326476E+04  0.27502167528E+04  0.00000000000E+00 0. -1.
<mgrwt>
<rscale>  0 0.41166650E+04</rscale>
<asrwt>0</asrwt>
<pdfrwt beam="1">  1        2 0.52926866E+00 0.41166650E+04</pdfrwt>
<pdfrwt beam="2">  1       -2 0.18946464E+00 0.41166650E+04</pdfrwt>
<totfact> 0.10908736E-01</totfact>
</mgrwt>
</event>
<event>
 6    1  0.1585031E-006  0.4575073E+04  0.7818608E-02  0.7897624E-01
         -2   -1    0    0    0  501 -0.00000000000E+00  0.00000000000E+00  0.23859634631E+04  0.23859634631E+04  0.00000000000E+00 0.  1.
          2   -1    0    0  501    0  0.00000000000E+00 -0.00000000000E+00 -0.21931695371E+04  0.21931695371E+04  0.00000000000E+00 0. -1.
         23    2    1    2    0    0 -0.11689712768E+04 -0.65119584487E+03  0.19522676646E+04  0.23686358364E+04  0.92394896808E+02 0.  0.
         11    1    3    3    0    0 -0.41706501333E+03 -0.20466352755E+03  0.61341231067E+03  0.76948362409E+03  0.00000000000E+00 0.  1.
        -11    1    3    3    0    0 -0.75190626343E+03 -0.44653231732E+03  0.13388553539E+04  0.15991522123E+04  0.00000000000E+00 0. -1.
         22    1    1    2    0    0  0.11689712768E+04  0.65119584487E+03 -0.17594737386E+04  0.22104971638E+04  0.00000000000E+00 0. -1.
<mgrwt>
<rscale>  0 0.45750726E+04</rscale>
<asrwt>0</asrwt>
<pdfrwt beam="1">  1        2 0.33741070E+00 0.45750726E+04</pdfrwt>
<pdfrwt beam="2">  1       -2 0.36707130E+00 0.45750726E+04</pdfrwt>
<totfact> 0.47562293E-02</totfact>
</mgrwt>
</event>
<event>
 6    1  0.1585031E-006  0.3510976E+04  0.7818608E-02  0.8111194E-01
          1   -1    0    0  501    0  0.00000000000E+00  0.00000000000E+00  0.18364685523E+04  0.18364685523E+04  0.00000000000E+00 0. -1.
         -1   -1    0    0    0  501 -0.00000000000E+00 -0.00000000000E+00 -0.16780788228E+04  0.16780788228E+04  0.00000000000E+00 0.  1.
         23    2    1    2    0    0 -0.10531164190E+04  0.13783902017E+04  0.34087855735E+03  0.17703237906E+04  0.93991449687E+02 0.  0.
         13    1    3    3    0    0 -0.15910339661E+03  0.23162848471E+03  0.23270549943E+02  0.28197014777E+03  0.00000000000E+00 0.  1.
        -13    1    3    3    0    0 -0.89401302242E+03  0.11467617170E+04  0.31760800741E+03  0.14883536429E+04  0.00000000000E+00 0. -1.
         22    1    1    2    0    0  0.10531164190E+04 -0.13783902017E+04 -0.18248882784E+03  0.17442235844E+04  0.00000000000E+00 0.  1.
<mgrwt>
<rscale>  0 0.35109765E+04</rscale>
<asrwt>0</asrwt>
<pdfrwt beam="1">  1        1 0.28253362E+00 0.35109765E+04</pdfrwt>
<pdfrwt beam="2">  1       -1 0.25816597E+00 0.35109765E+04</pdfrwt>
<totfact> 0.19344245E-01</totfact>
</mgrwt>
</event>
<event>
 6    1  0.1585031E-006  0.1520823E+04  0.7818608E-02  0.8870722E-01
          1   -1    0    0  501    0  0.00000000000E+00  0.00000000000E+00  0.10297647780E+04  0.10297647780E+04  0.00000000000E+00 0. -1.
         -1   -1    0    0    0  501 -0.00000000000E+00 -0.00000000000E+00 -0.56151267892E+03  0.56151267892E+03  0.00000000000E+00 0.  1.
         23    2    1    2    0    0  0.54139244862E+03  0.38179165342E+03 -0.14981855380E+03  0.68525208090E+03  0.90852436810E+02 0.  0.
         13    1    3    3    0    0  0.42953740510E+03  0.33601177425E+03 -0.99585337357E+02  0.55436768866E+03  0.00000000000E+00 0.  1.
        -13    1    3    3    0    0  0.11185504352E+03  0.45779879164E+02 -0.50233216445E+02  0.13088439224E+03  0.00000000000E+00 0. -1.
         22    1    1    2    0    0 -0.54139244862E+03 -0.38179165342E+03  0.61807065291E+03  0.90602537604E+03  0.00000000000E+00 0. -1.
<mgrwt>
<rscale>  0 0.15208234E+04</rscale>
<asrwt>0</asrwt>
<pdfrwt beam="1">  1        1 0.15842535E+00 0.15208234E+04</pdfrwt>
<pdfrwt beam="2">  1       -1 0.86386566E-01 0.15208234E+04</pdfrwt>
<totfact> 0.18314073E+01</totfact>
</mgrwt>
</event>
<event>
 6    1  0.1585031E-006  0.2526991E+04  0.7818608E-02  0.8393432E-01
          2   -1    0    0  501    0  0.00000000000E+00  0.00000000000E+00  0.30777542629E+04  0.30777542629E+04  0.00000000000E+00 0. -1.
         -2   -1    0    0    0  501 -0.00000000000E+00 -0.00000000000E+00 -0.51869674549E+03  0.51869674549E+03  0.00000000000E+00 0.  1.
         23    2    1    2    0    0 -0.12543063058E+04  0.37228505498E+02  0.10909602987E+04  0.16651354687E+04  0.88382607826E+02 0.  0.
         11    1    3    3    0    0 -0.47088658154E+03 -0.24798834847E+02  0.38525719008E+03  0.60891071381E+03  0.00000000000E+00 0. -1.
        -11    1    3    3    0    0 -0.78341972425E+03  0.62027340346E+02  0.70570310861E+03  0.10562247549E+04  0.00000000000E+00 0.  1.
         22    1    1    2    0    0  0.12543063058E+04 -0.37228505498E+02  0.14680972188E+04  0.19313155398E+04  0.00000000000E+00 0.  1.
<mgrwt>
<rscale>  0 0.25269912E+04</rscale>
<asrwt>0</asrwt>
<pdfrwt beam="1">  1        2 0.47350064E+00 0.25269912E+04</pdfrwt>
<pdfrwt beam="2">  1       -2 0.79799501E-01 0.25269912E+04</pdfrwt>
<totfact> 0.19238711E+00</totfact>
</mgrwt>
</event>
<event>
 6    1  0.1585031E-006  0.6672584E+04  0.7818608E-02  0.7612178E-01
          2   -1    0    0  501    0  0.00000000000E+00  0.00000000000E+00  0.26438249068E+04  0.26438249068E+04  0.00000000000E+00 0. -1.
         -2   -1    0    0    0  501 -0.00000000000E+00 -0.00000000000E+00 -0.42101294003E+04  0.42101294003E+04  0.00000000000E+00 0.  1.
         23    2    1    2    0    0  0.83764703662E+03  0.32283099014E+04 -0.72659409498E+03  0.34146591858E+04  0.91219508928E+02 0.  0.
         13    1    3    3    0    0  0.79644449011E+03  0.30739862833E+04 -0.71148685482E+03  0.32542171164E+04  0.00000000000E+00 0.  1.
        -13    1    3    3    0    0  0.41202546516E+02  0.15432361808E+03 -0.15107240164E+02  0.16044206943E+03  0.00000000000E+00 0. -1.
         22    1    1    2    0    0 -0.83764703662E+03 -0.32283099014E+04 -0.83971039851E+03  0.34392951212E+04  0.00000000000E+00 0.  1.
<mgrwt>
<rscale>  0 0.66725842E+04</rscale>
<asrwt>0</asrwt>
<pdfrwt beam="1">  1        2 0.40674230E+00 0.66725842E+04</pdfrwt>
<pdfrwt beam="2">  1       -2 0.64771221E+00 0.66725842E+04</pdfrwt>
<totfact> 0.64408805E-04</totfact>
</mgrwt>
</event>
<event>
 6    1  0.1585031E-006  0.2277924E+04  0.7818608E-02  0.8486677E-01
          2   -1    0    0  501    0  0.00000000000E+00  0.00000000000E+00  0.10932927141E+04  0.10932927141E+04  0.00000000000E+00 0. -1.
         -2   -1    0    0    0  501 -0.00000000000E+00 -0.00000000000E+00 -0.11865391078E+04  0.11865391078E+04  0.00000000000E+00 0.  1.
         23    2    1    2    0    0 -0.22346800950E+03 -0.25998611181E+03  0.10384745937E+04  0.10973246874E+04  0.90339683245E+02 0.  0.
         11    1    3    3    0    0 -0.50360741556E+02 -0.46312607644E+02  0.33696250125E+03  0.34383831835E+03  0.00000000000E+00 0. -1.
        -11    1    3    3    0    0 -0.17310726794E+03 -0.21367350417E+03  0.70151209243E+03  0.75348636910E+03  0.00000000000E+00 0.  1.
         22    1    1    2    0    0  0.22346800950E+03  0.25998611181E+03 -0.11317209874E+04  0.11825071344E+04  0.00000000000E+00 0.  1.
<mgrwt>
<rscale>  0 0.22779241E+04</rscale>
<asrwt>0</asrwt>
<pdfrwt beam="1">  1        2 0.16819888E+00 0.22779241E+04</pdfrwt>
<pdfrwt beam="2">  1       -2 0.18254448E+00 0.22779241E+04</pdfrwt>
<totfact> 0.34787828E+00</totfact>
</mgrwt>
</event>
<event>
 6    1  0.1585031E-006  0.5444005E+04  0.7818608E-02  0.7763441E-01
          1   -1    0    0  501    0  0.00000000000E+00  0.00000000000E+00  0.25204356516E+04  0.25204356516E+04  0.00000000000E+00 0.  1.
         -1   -1    0    0    0  501 -0.00000000000E+00 -0.00000000000E+00 -0.29396888175E+04  0.29396888175E+04  0.00000000000E+00 0. -1.
         23    2    1    2    0    0  0.10497728403E+04  0.11869814902E+04  0.20092333023E+04  0.25603840324E+04  0.87177151086E+02 0.  0.
         13    1    3    3    0    0  0.93314009846E+03  0.10771840655E+04  0.18398149977E+04  0.23272290777E+04  0.00000000000E+00 0. -1.
        -13    1    3    3    0    0  0.11663274186E+03  0.10979742475E+03  0.16941830464E+03  0.23315495471E+03  0.00000000000E+00 0.  1.
         22    1    1    2    0    0 -0.10497728403E+04 -0.11869814902E+04 -0.24284864682E+04  0.28997404367E+04  0.00000000000E+00 0. -1.
<mgrwt>
<rscale>  0 0.54440046E+04</rscale>
<asrwt>0</asrwt>
<pdfrwt beam="1">  1        1 0.38775933E+00 0.54440046E+04</pdfrwt>
<pdfrwt beam="2">  1       -1 0.45225982E+00 0.54440046E+04</pdfrwt>
<totfact> 0.28635762E-03</totfact>
</mgrwt>
</event>
<event>
 6    1  0.1585031E-006  0.3409607E+04  0.7818608E-02  0.8135553E-01
         -2   -1    0    0    0  501 -0.00000000000E+00  0.00000000000E+00  0.73364958338E+03  0.73364958338E+03  0.00000000000E+00 0.  1.
          2   -1    0    0  501    0  0.00000000000E+00 -0.00000000000E+00 -0.39615025456E+04  0.39615025456E+04  0.00000000000E+00 0. -1.
         23    2    1    2    0    0 -0.10266232794E+04 -0.80960237616E+02 -0.34838458081E+04  0.36340007472E+04  0.90938979586E+02 0.  0.
         13    1    3    3    0    0 -0.63143006244E+03 -0.93695709115E+02 -0.21298404372E+04  0.22234439722E+04  0.00000000000E+00 0.  1.
        -13    1    3    3    0    0 -0.39519321696E+03  0.12735471499E+02 -0.13540053709E+04  0.14105567750E+04  0.00000000000E+00 0. -1.
         22    1    1    2    0    0  0.10266232794E+04  0.80960237616E+02  0.25599284591E+03  0.10611513818E+04  0.00000000000E+00 0.  1.
<mgrwt>
<rscale>  0 0.34096068E+04</rscale>
<asrwt>0</asrwt>
<pdfrwt beam="1">  1        2 0.60946192E+00 0.34096068E+04</pdfrwt>
<pdfrwt beam="2">  1       -2 0.11286917E+00 0.34096068E+04</pdfrwt>
<totfact> 0.18727817E-01</totfact>
</mgrwt>
</event>
<event>
 6    1  0.1585031E-006  0.2338860E+04  0.7818608E-02  0.8462755E-01
         -1   -1    0    0    0  501 -0.00000000000E+00  0.00000000000E+00  0.51031413983E+03  0.51031413983E+03  0.00000000000E+00 0.  1.
          1   -1    0    0  501    0  0.00000000000E+00 -0.00000000000E+00 -0.26798530075E+04  0.26798530075E+04  0.00000000000E+00 0. -1.
         23    2    1    2    0    0 -0.54067720833E+02  0.10567523402E+04 -0.41282354917E+03  0.11393874085E+04  0.90175146445E+02 0.  0.
         11    1    3    3    0    0 -0.69793609661E+01  0.84566357073E+03 -0.32922939743E+03  0.90751726291E+03  0.00000000000E+00 0.  1.
        -11    1    3    3    0    0 -0.47088359867E+02  0.21108876944E+03 -0.83594151742E+02  0.23187014561E+03  0.00000000000E+00 0. -1.
         22    1    1    2    0    0  0.54067720833E+02 -0.10567523402E+04 -0.17567153185E+04  0.20507797388E+04  0.00000000000E+00 0. -1.
<mgrwt>
<rscale>  0 0.23388603E+04</rscale>
<asrwt>0</asrwt>
<pdfrwt beam="1">  1        1 0.41228508E+00 0.23388603E+04</pdfrwt>
<pdfrwt beam="2">  1       -1 0.78509867E-01 0.23388603E+04</pdfrwt>
<totfact> 0.14831089E+00</totfact>
</mgrwt>
</event>
<event>
 6    1  0.1585031E-006  0.1676137E+04  0.7818608E-02  0.8775093E-01
         -1   -1    0    0    0  501 -0.00000000000E+00  0.00000000000E+00  0.56997660178E+03  0.56997660178E+03  0.00000000000E+00 0.  1.
          1   -1    0    0  501    0  0.00000000000E+00 -0.00000000000E+00 -0.12322590154E+04  0.12322590154E+04  0.00000000000E+00 0. -1.
         23    2    1    2    0    0 -0.17338330096E+03 -0.54680705643E+03  0.32114881229E+03  0.66372927020E+03  0.91325015624E+02 0.  0.
         13    1    3    3    0    0 -0.14528563145E+03 -0.46091922024E+03  0.30625774098E+03  0.57214355384E+03  0.00000000000E+00 0. -1.
        -13    1    3    3    0    0 -0.28097669506E+02 -0.85887836191E+02  0.14891071313E+02  0.91585716366E+02  0.00000000000E+00 0.  1.
         22    1    1    2    0    0  0.17338330096E+03  0.54680705643E+03 -0.98343122595E+03  0.11385063470E+04  0.00000000000E+00 0. -1.
<mgrwt>
<rscale>  0 0.16761370E+04</rscale>
<asrwt>0</asrwt>
<pdfrwt beam="1">  1        1 0.18957831E+00 0.16761370E+04</pdfrwt>
<pdfrwt beam="2">  1       -1 0.87688710E-01 0.16761370E+04</pdfrwt>
<totfact> 0.12346866E+01</totfact>
</mgrwt>
</event>
<event>
 6    1  0.1585031E-006  0.1110460E+04  0.7818608E-02  0.9195056E-01
         -1   -1    0    0    0  501 -0.00000000000E+00  0.00000000000E+00  0.19524516513E+03  0.19524516513E+03  0.00000000000E+00 0.  1.
          1   -1    0    0  501    0  0.00000000000E+00 -0.00000000000E+00 -0.15789410582E+04  0.15789410582E+04  0.00000000000E+00 0. -1.
         23    2    1    2    0    0 -0.35541089515E+03 -0.10579924153E+03 -0.44408974142E+02  0.38451006138E+03  0.91462814365E+02 0.  0.
         13    1    3    3    0    0 -0.14966053046E+03 -0.86843545882E+02 -0.41172475290E+02  0.17786300504E+03  0.00000000000E+00 0.  1.
        -13    1    3    3    0    0 -0.20575036469E+03 -0.18955695652E+02 -0.32364988522E+01  0.20664705634E+03  0.00000000000E+00 0. -1.
         22    1    1    2    0    0  0.35541089515E+03  0.10579924153E+03 -0.13392869189E+04  0.13896761619E+04  0.00000000000E+00 0. -1.
<mgrwt>
<rscale>  0 0.11104605E+04</rscale>
<asrwt>0</asrwt>
<pdfrwt beam="1">  1        1 0.24291401E+00 0.11104605E+04</pdfrwt>
<pdfrwt beam="2">  1       -1 0.30037717E-01 0.11104605E+04</pdfrwt>
<totfact> 0.58495742E+01</totfact>
</mgrwt>
</event>
<event>
 6    1  0.1585031E-006  0.1366520E+04  0.7818608E-02  0.8978416E-01
         -1   -1    0    0    0  501 -0.00000000000E+00  0.00000000000E+00  0.94421579567E+03  0.94421579567E+03  0.00000000000E+00 0.  1.
          1   -1    0    0  501    0  0.00000000000E+00 -0.00000000000E+00 -0.49442507366E+03  0.49442507366E+03  0.00000000000E+00 0. -1.
         23    2    1    2    0    0 -0.57206820697E+03  0.26428282613E+03 -0.43508359598E+02  0.63835877561E+03  0.92203597704E+02 0.  0.
         13    1    3    3    0    0 -0.45946847800E+03  0.22935537015E+03 -0.67803888279E+02  0.51798893362E+03  0.00000000000E+00 0. -1.
        -13    1    3    3    0    0 -0.11259972898E+03  0.34927455978E+02  0.24295528681E+02  0.12036984199E+03  0.00000000000E+00 0.  1.
         22    1    1    2    0    0  0.57206820697E+03 -0.26428282613E+03  0.49329908161E+03  0.80028209372E+03  0.00000000000E+00 0.  1.
<mgrwt>
<rscale>  0 0.13665196E+04</rscale>
<asrwt>0</asrwt>
<pdfrwt beam="1">  1        1 0.76065396E-01 0.13665196E+04</pdfrwt>
<pdfrwt beam="2">  1       -1 0.14526397E+00 0.13665196E+04</pdfrwt>
<totfact> 0.16734597E+01</totfact>
</mgrwt>
</event>
<event>
 6    1  0.1585031E-006  0.1672252E+04  0.7818608E-02  0.8777350E-01
         -2   -1    0    0    0  501 -0.00000000000E+00  0.00000000000E+00  0.10934235588E+04  0.10934235588E+04  0.00000000000E+00 0.  1.
          2   -1    0    0  501    0  0.00000000000E+00 -0.00000000000E+00 -0.63937413555E+03  0.63937413555E+03  0.00000000000E+00 0. -1.
         23    2    1    2    0    0 -0.66070023193E+03 -0.40485851089E+03 -0.90844665568E+02  0.78551485470E+03  0.91354383451E+02 0.  0.
         13    1    3    3    0    0 -0.21233223499E+03 -0.10363759100E+03 -0.63542122469E+02  0.24466983797E+03  0.00000000000E+00 0. -1.
        -13    1    3    3    0    0 -0.44836799694E+03 -0.30122091989E+03 -0.27302543099E+02  0.54084501673E+03  0.00000000000E+00 0.  1.
         22    1    1    2    0    0  0.66070023193E+03  0.40485851089E+03  0.54489408887E+03  0.94728283970E+03  0.00000000000E+00 0.  1.
<mgrwt>
<rscale>  0 0.16722521E+04</rscale>
<asrwt>0</asrwt>
<pdfrwt beam="1">  1        2 0.98365252E-01 0.16722521E+04</pdfrwt>
<pdfrwt beam="2">  1       -2 0.16821901E+00 0.16722521E+04</pdfrwt>
<totfact> 0.95960943E+00</totfact>
</mgrwt>
</event>
<event>
 6    1  0.1585031E-006  0.1459118E+04  0.7818608E-02  0.8912103E-01
         -2   -1    0    0    0  501 -0.00000000000E+00  0.00000000000E+00  0.46848689867E+03  0.46848689867E+03  0.00000000000E+00 0.  1.
          2   -1    0    0  501    0  0.00000000000E+00 -0.00000000000E+00 -0.11361183089E+04  0.11361183089E+04  0.00000000000E+00 0. -1.
         23    2    1    2    0    0 -0.12348572507E+03 -0.70793912806E+03 -0.21622329136E+03  0.75596168809E+03  0.91099005472E+02 0.  0.
         13    1    3    3    0    0 -0.24075176515E+02 -0.90105655939E+02 -0.60256414198E+02  0.11103818626E+03  0.00000000000E+00 0. -1.
        -13    1    3    3    0    0 -0.99410548559E+02 -0.61783347212E+03 -0.15596687716E+03  0.64492350183E+03  0.00000000000E+00 0.  1.
         22    1    1    2    0    0  0.12348572507E+03  0.70793912806E+03 -0.45140811884E+03  0.84864351944E+03  0.00000000000E+00 0.  1.
<mgrwt>
<rscale>  0 0.14591183E+04</rscale>
<asrwt>0</asrwt>
<pdfrwt beam="1">  1        2 0.17478743E+00 0.14591183E+04</pdfrwt>
<pdfrwt beam="2">  1       -2 0.72074909E-01 0.14591183E+04</pdfrwt>
<totfact> 0.34984638E+01</totfact>
</mgrwt>
</event>
<event>
 6    1  0.1585031E-006  0.3277638E+04  0.7818608E-02  0.8168609E-01
         -2   -1    0    0    0  501 -0.00000000000E+00  0.00000000000E+00  0.89129325572E+03  0.89129325572E+03  0.00000000000E+00 0. -1.
          2   -1    0    0  501    0  0.00000000000E+00 -0.00000000000E+00 -0.30132937606E+04  0.30132937606E+04  0.00000000000E+00 0.  1.
         23    2    1    2    0    0 -0.10270496783E+03 -0.98081524232E+03 -0.26191857031E+04  0.28001686303E+04  0.90905230836E+02 0.  0.
         11    1    3    3    0    0 -0.64296235531E+02 -0.31469510996E+03 -0.77092964415E+03  0.83516437565E+03  0.00000000000E+00 0.  1.
        -11    1    3    3    0    0 -0.38408732298E+02 -0.66612013237E+03 -0.18482560590E+04  0.19650042547E+04  0.00000000000E+00 0. -1.
         22    1    1    2    0    0  0.10270496783E+03  0.98081524232E+03  0.49718519821E+03  0.11044183860E+04  0.00000000000E+00 0. -1.
<mgrwt>
<rscale>  0 0.32776384E+04</rscale>
<asrwt>0</asrwt>
<pdfrwt beam="1">  1        2 0.46358366E+00 0.32776384E+04</pdfrwt>
<pdfrwt beam="2">  1       -2 0.13712204E+00 0.32776384E+04</pdfrwt>
<totfact> 0.54129073E-01</totfact>
</mgrwt>
</event>
<event>
 6    1  0.1585031E-006  0.1697698E+04  0.7818608E-02  0.8762678E-01
          1   -1    0    0  501    0  0.00000000000E+00  0.00000000000E+00  0.17893770634E+04  0.17893770634E+04  0.00000000000E+00 0. -1.
         -1   -1    0    0    0  501 -0.00000000000E+00 -0.00000000000E+00 -0.40267915649E+03  0.40267915649E+03  0.00000000000E+00 0.  1.
         23    2    1    2    0    0 -0.22040558313E+03  0.39780127272E+03  0.16170044935E+04  0.16822860781E+04  0.92511852840E+02 0.  0.
         11    1    3    3    0    0 -0.22107692158E+03  0.38825815034E+03  0.15061906208E+04  0.15710600189E+04  0.00000000000E+00 0. -1.
        -11    1    3    3    0    0  0.67133844410E+00  0.95431223836E+01  0.11081387264E+03  0.11122605922E+03  0.00000000000E+00 0.  1.
         22    1    1    2    0    0  0.22040558313E+03 -0.39780127272E+03 -0.23030658657E+03  0.50977014180E+03  0.00000000000E+00 0.  1.
<mgrwt>
<rscale>  0 0.16976983E+04</rscale>
<asrwt>0</asrwt>
<pdfrwt beam="1">  1        1 0.27528877E+00 0.16976983E+04</pdfrwt>
<pdfrwt beam="2">  1       -1 0.61950641E-01 0.16976983E+04</pdfrwt>
<totfact> 0.10420102E+01</totfact>
</mgrwt>
</event>
<event>
 6    1  0.1585031E-006  0.3706279E+04  0.7818608E-02  0.8066572E-01
          2   -1    0    0  501    0  0.00000000000E+00  0.00000000000E+00  0.33525051105E+04  0.33525051105E+04  0.00000000000E+00 0. -1.
         -2   -1    0    0    0  501 -0.00000000000E+00 -0.00000000000E+00 -0.10243459675E+04  0.10243459675E+04  0.00000000000E+00 0.  1.
         23    2    1    2    0    0 -0.15161235953E+04 -0.83601127127E+02  0.24169456885E+04  0.28558307114E+04  0.92318395547E+02 0.  0.
         13    1    3    3    0    0 -0.61865745361E+03 -0.79583367958E+02  0.99018235168E+03  0.11702699035E+04  0.00000000000E+00 0. -1.
        -13    1    3    3    0    0 -0.89746614172E+03 -0.40177591695E+01  0.14267633368E+04  0.16855608079E+04  0.00000000000E+00 0.  1.
         22    1    1    2    0    0  0.15161235953E+04  0.83601127127E+02 -0.88786545491E+02  0.15210203665E+04  0.00000000000E+00 0.  1.
<mgrwt>
<rscale>  0 0.37062785E+04</rscale>
<asrwt>0</asrwt>
<pdfrwt beam="1">  1        2 0.51577001E+00 0.37062785E+04</pdfrwt>
<pdfrwt beam="2">  1       -2 0.15759169E+00 0.37062785E+04</pdfrwt>
<totfact> 0.21751087E-01</totfact>
</mgrwt>
</event>
<event>
 6    1  0.1585031E-006  0.3042968E+04  0.7818608E-02  0.8231567E-01
         -2   -1    0    0    0  501 -0.00000000000E+00  0.00000000000E+00  0.13462090283E+04  0.13462090283E+04  0.00000000000E+00 0.  1.
          2   -1    0    0  501    0  0.00000000000E+00 -0.00000000000E+00 -0.17195792813E+04  0.17195792813E+04  0.00000000000E+00 0. -1.
         23    2    1    2    0    0  0.63043822963E+03 -0.19610796609E+02 -0.15801594335E+04  0.17041066028E+04  0.96117291486E+02 0.  0.
         11    1    3    3    0    0  0.88286544401E+02  0.10038959998E+02 -0.31650653679E+03  0.32874257782E+03  0.00000000000E+00 0.  1.
        -11    1    3    3    0    0  0.54215168523E+03 -0.29649756607E+02 -0.12636528967E+04  0.13753640250E+04  0.00000000000E+00 0. -1.
         22    1    1    2    0    0 -0.63043822963E+03  0.19610796609E+02  0.12067891805E+04  0.13616817069E+04  0.00000000000E+00 0.  1.
<mgrwt>
<rscale>  0 0.30429677E+04</rscale>
<asrwt>0</asrwt>
<pdfrwt beam="1">  1        2 0.26455066E+00 0.30429677E+04</pdfrwt>
<pdfrwt beam="2">  1       -2 0.20710908E+00 0.30429677E+04</pdfrwt>
<totfact> 0.97527760E-01</totfact>
</mgrwt>
</event>
<event>
 6    1  0.1585031E-006  0.8785934E+03  0.7818608E-02  0.9452744E-01
         -3   -1    0    0    0  501 -0.00000000000E+00  0.00000000000E+00  0.48479771075E+03  0.48479771075E+03  0.00000000000E+00 0.  1.
          3   -1    0    0  501    0  0.00000000000E+00 -0.00000000000E+00 -0.39806619617E+03  0.39806619617E+03  0.00000000000E+00 0. -1.
         23    2    1    2    0    0 -0.34029289012E+03  0.15831481861E+03  0.26413424368E+03  0.46773192653E+03  0.90240919489E+02 0.  0.
         13    1    3    3    0    0 -0.18610653306E+03  0.12354863746E+03  0.18952635119E+03  0.29295075570E+03  0.00000000000E+00 0. -1.
        -13    1    3    3    0    0 -0.15418635706E+03  0.34766181144E+02  0.74607892486E+02  0.17478117083E+03  0.00000000000E+00 0.  1.
         22    1    1    2    0    0  0.34029289012E+03 -0.15831481861E+03 -0.17740272910E+03  0.41513198040E+03  0.00000000000E+00 0. -1.
<mgrwt>
<rscale>  0 0.87859338E+03</rscale>
<asrwt>0</asrwt>
<pdfrwt beam="1">  1        3 0.61240953E-01 0.87859338E+03</pdfrwt>
<pdfrwt beam="2">  1       -3 0.74584263E-01 0.87859338E+03</pdfrwt>
<totfact> 0.11614543E+01</totfact>
</mgrwt>
</event>
<event>
 6    1  0.1585031E-006  0.1809491E+04  0.7818608E-02  0.8701269E-01
          1   -1    0    0  501    0  0.00000000000E+00  0.00000000000E+00  0.33078173520E+03  0.33078173520E+03  0.00000000000E+00 0.  1.
         -1   -1    0    0    0  501 -0.00000000000E+00 -0.00000000000E+00 -0.24746351160E+04  0.24746351160E+04  0.00000000000E+00 0. -1.
         23    2    1    2    0    0 -0.17484384258E+03 -0.73597848836E+03 -0.18380470056E+04  0.19894804298E+04  0.85912055129E+02 0.  0.
         11    1    3    3    0    0 -0.14740688053E+03 -0.47776704559E+03 -0.12709707061E+04  0.13657806098E+04  0.00000000000E+00 0.  1.
        -11    1    3    3    0    0 -0.27436962046E+02 -0.25821144276E+03 -0.56707629948E+03  0.62369982002E+03  0.00000000000E+00 0. -1.
         22    1    1    2    0    0  0.17484384258E+03  0.73597848836E+03 -0.30580637517E+03  0.81593642136E+03  0.00000000000E+00 0.  1.
<mgrwt>
<rscale>  0 0.18094906E+04</rscale>
<asrwt>0</asrwt>
<pdfrwt beam="1">  1        1 0.50889498E-01 0.18094906E+04</pdfrwt>
<pdfrwt beam="2">  1       -1 0.38071309E+00 0.18094906E+04</pdfrwt>
<totfact> 0.70587913E-01</totfact>
</mgrwt>
</event>
<event>
 6    1  0.1585031E-006  0.1874193E+04  0.7818608E-02  0.8667810E-01
         -1   -1    0    0    0  501 -0.00000000000E+00  0.00000000000E+00  0.98525868416E+03  0.98525868416E+03  0.00000000000E+00 0.  1.
          1   -1    0    0  501    0  0.00000000000E+00 -0.00000000000E+00 -0.89128852238E+03  0.89128852238E+03  0.00000000000E+00 0. -1.
         23    2    1    2    0    0 -0.60906853442E+03  0.64557936491E+03  0.34102031913E+03  0.95525953363E+03  0.92134263498E+02 0.  0.
         13    1    3    3    0    0 -0.16549138104E+03  0.20425031299E+03  0.61711820946E+02  0.27002580691E+03  0.00000000000E+00 0.  1.
        -13    1    3    3    0    0 -0.44357715338E+03  0.44132905192E+03  0.27930849818E+03  0.68523372672E+03  0.00000000000E+00 0. -1.
         22    1    1    2    0    0  0.60906853442E+03 -0.64557936491E+03 -0.24705015734E+03  0.92128767291E+03  0.00000000000E+00 0. -1.
<mgrwt>
<rscale>  0 0.18741929E+04</rscale>
<asrwt>0</asrwt>
<pdfrwt beam="1">  1        1 0.13712131E+00 0.18741929E+04</pdfrwt>
<pdfrwt beam="2">  1       -1 0.15157826E+00 0.18741929E+04</pdfrwt>
<totfact> 0.58836474E+00</totfact>
</mgrwt>
</event>
<event>
 6    1  0.1585031E-006  0.2420576E+04  0.7818608E-02  0.8431840E-01
          1   -1    0    0  501    0  0.00000000000E+00  0.00000000000E+00  0.27520167267E+04  0.27520167267E+04  0.00000000000E+00 0. -1.
         -1   -1    0    0    0  501 -0.00000000000E+00 -0.00000000000E+00 -0.53226320187E+03  0.53226320187E+03  0.00000000000E+00 0.  1.
         23    2    1    2    0    0  0.73552211951E+03 -0.74460858159E+03  0.19315063256E+04  0.21986827768E+04  0.89747083116E+02 0.  0.
         11    1    3    3    0    0  0.42737824020E+03 -0.42266965822E+03  0.10164301147E+04  0.11808606939E+04  0.00000000000E+00 0.  1.
        -11    1    3    3    0    0  0.30814387931E+03 -0.32193892337E+03  0.91507621090E+03  0.10178220829E+04  0.00000000000E+00 0. -1.
         22    1    1    2    0    0 -0.73552211951E+03  0.74460858159E+03  0.28824719917E+03  0.10855971518E+04  0.00000000000E+00 0.  1.
<mgrwt>
<rscale>  0 0.24205762E+04</rscale>
<asrwt>0</asrwt>
<pdfrwt beam="1">  1        1 0.42338718E+00 0.24205762E+04</pdfrwt>
<pdfrwt beam="2">  1       -1 0.81886648E-01 0.24205762E+04</pdfrwt>
<totfact> 0.11966945E+00</totfact>
</mgrwt>
</event>
<event>
 6    1  0.1585031E-006  0.5042535E+04  0.7818608E-02  0.7821979E-01
         -2   -1    0    0    0  501 -0.00000000000E+00  0.00000000000E+00  0.21173986434E+04  0.21173986434E+04  0.00000000000E+00 0.  1.
          2   -1    0    0  501    0  0.00000000000E+00 -0.00000000000E+00 -0.30021697195E+04  0.30021697195E+04  0.00000000000E+00 0. -1.
         23    2    1    2    0    0 -0.90495508405E+03 -0.19053866225E+04 -0.18431826360E+04  0.28026750543E+04  0.90682659654E+02 0.  0.
         13    1    3    3    0    0 -0.46241518802E+03 -0.10734601748E+04 -0.10391043851E+04  0.15639317364E+04  0.00000000000E+00 0. -1.
        -13    1    3    3    0    0 -0.44253989603E+03 -0.83192644764E+03 -0.80407825090E+03  0.12387433178E+04  0.00000000000E+00 0.  1.
         22    1    1    2    0    0  0.90495508405E+03  0.19053866225E+04  0.95841155999E+03  0.23168933086E+04  0.00000000000E+00 0.  1.
<mgrwt>
<rscale>  0 0.50425351E+04</rscale>
<asrwt>0</asrwt>
<pdfrwt beam="1">  1        2 0.46187226E+00 0.50425351E+04</pdfrwt>
<pdfrwt beam="2">  1       -2 0.32575364E+00 0.50425351E+04</pdfrwt>
<totfact> 0.27766503E-02</totfact>
</mgrwt>
</event>
<event>
 6    1  0.1724730E-006  0.4866987E+04  0.7818608E-02  0.7849360E-01
          1   -1    0    0  501    0  0.00000000000E+00  0.00000000000E+00  0.24030203078E+04  0.24030203078E+04  0.00000000000E+00 0. -1.
         -1   -1    0    0    0  501 -0.00000000000E+00 -0.00000000000E+00 -0.24643533583E+04  0.24643533583E+04  0.00000000000E+00 0.  1.
         23    2    1    2    0    0  0.23473019895E+04 -0.26727250048E+03  0.54956747348E+03  0.24271973057E+04  0.89449054859E+02 0.  0.
         13    1    3    3    0    0  0.10164001128E+04 -0.15438002707E+03  0.21626853191E+03  0.10505591178E+04  0.00000000000E+00 0. -1.
        -13    1    3    3    0    0  0.13309018767E+04 -0.11289247341E+03  0.33329894157E+03  0.13766381879E+04  0.00000000000E+00 0.  1.
         22    1    1    2    0    0 -0.23473019895E+04  0.26727250048E+03 -0.61090052403E+03  0.24401763604E+04  0.00000000000E+00 0.  1.
<mgrwt>
<rscale>  0 0.48669872E+04</rscale>
<asrwt>0</asrwt>
<pdfrwt beam="1">  1        1 0.36969543E+00 0.48669872E+04</pdfrwt>
<pdfrwt beam="2">  1       -1 0.37913128E+00 0.48669872E+04</pdfrwt>
<totfact> 0.11441928E-02</totfact>
</mgrwt>
</event>
<event>
 6    1  0.1585031E-006  0.2514428E+04  0.7818608E-02  0.8397864E-01
         -2   -1    0    0    0  501 -0.00000000000E+00  0.00000000000E+00  0.13996748520E+04  0.13996748520E+04  0.00000000000E+00 0.  1.
          2   -1    0    0  501    0  0.00000000000E+00 -0.00000000000E+00 -0.11292527093E+04  0.11292527093E+04  0.00000000000E+00 0. -1.
         23    2    1    2    0    0  0.47781187104E+03 -0.64790807805E+03 -0.83370733933E+03  0.11624755954E+04  0.90512544043E+02 0.  0.
         13    1    3    3    0    0  0.18825589934E+03 -0.26315256718E+03 -0.27272652468E+03  0.42316582390E+03  0.00000000000E+00 0. -1.
        -13    1    3    3    0    0  0.28955597170E+03 -0.38475551087E+03 -0.56098081465E+03  0.73930977154E+03  0.00000000000E+00 0.  1.
         22    1    1    2    0    0 -0.47781187104E+03  0.64790807805E+03  0.11041294821E+04  0.13664519658E+04  0.00000000000E+00 0.  1.
<mgrwt>
<rscale>  0 0.25144277E+04</rscale>
<asrwt>0</asrwt>
<pdfrwt beam="1">  1        2 0.17373119E+00 0.25144277E+04</pdfrwt>
<pdfrwt beam="2">  1       -2 0.21533459E+00 0.25144277E+04</pdfrwt>
<totfact> 0.19703801E+00</totfact>
</mgrwt>
</event>
<event>
 6    1  0.1585031E-006  0.2619098E+04  0.7818608E-02  0.8361743E-01
          2   -1    0    0  501    0  0.00000000000E+00  0.00000000000E+00  0.48105982229E+03  0.48105982229E+03  0.00000000000E+00 0. -1.
         -2   -1    0    0    0  501 -0.00000000000E+00 -0.00000000000E+00 -0.35648761778E+04  0.35648761778E+04  0.00000000000E+00 0.  1.
         23    2    1    2    0    0  0.63901157082E+03 -0.10298896568E+04 -0.78375753672E+03  0.14460746456E+04  0.88586180033E+02 0.  0.
         13    1    3    3    0    0  0.95484635534E+02 -0.21931813457E+03 -0.14615076895E+03  0.28031733275E+03  0.00000000000E+00 0. -1.
        -13    1    3    3    0    0  0.54352693528E+03 -0.81057152227E+03 -0.63760676777E+03  0.11657573128E+04  0.00000000000E+00 0.  1.
         22    1    1    2    0    0 -0.63901157082E+03  0.10298896568E+04 -0.23000588188E+04  0.25998613546E+04  0.00000000000E+00 0.  1.
<mgrwt>
<rscale>  0 0.26190981E+04</rscale>
<asrwt>0</asrwt>
<pdfrwt beam="1">  1        2 0.74009205E-01 0.26190981E+04</pdfrwt>
<pdfrwt beam="2">  1       -2 0.54844248E+00 0.26190981E+04</pdfrwt>
<totfact> 0.48966754E-02</totfact>
</mgrwt>
</event>
<event>
 6    1  0.1585031E-006  0.3393444E+04  0.7818608E-02  0.8139517E-01
         -1   -1    0    0    0  501 -0.00000000000E+00  0.00000000000E+00  0.13274725922E+04  0.13274725922E+04  0.00000000000E+00 0.  1.
          1   -1    0    0  501    0  0.00000000000E+00 -0.00000000000E+00 -0.21686813263E+04  0.21686813263E+04  0.00000000000E+00 0. -1.
         23    2    1    2    0    0 -0.31625794288E+03  0.16087617407E+04  0.24258786226E+02  0.16421939800E+04  0.89884117508E+02 0.  0.
         11    1    3    3    0    0 -0.22919046194E+03  0.10691985883E+04  0.54220231361E+02  0.10948304538E+04  0.00000000000E+00 0. -1.
        -11    1    3    3    0    0 -0.87067480944E+02  0.53956315232E+03 -0.29961445135E+02  0.54736352616E+03  0.00000000000E+00 0.  1.
         22    1    1    2    0    0  0.31625794288E+03 -0.16087617407E+04 -0.86546752033E+03  0.18539599385E+04  0.00000000000E+00 0. -1.
<mgrwt>
<rscale>  0 0.33934437E+04</rscale>
<asrwt>0</asrwt>
<pdfrwt beam="1">  1        1 0.33364328E+00 0.33934437E+04</pdfrwt>
<pdfrwt beam="2">  1       -1 0.20422655E+00 0.33934437E+04</pdfrwt>
<totfact> 0.26514676E-01</totfact>
</mgrwt>
</event>
<event>
 6    1  0.1585031E-006  0.2456850E+04  0.7818608E-02  0.8418521E-01
         -2   -1    0    0    0  501 -0.00000000000E+00  0.00000000000E+00  0.29734787610E+03  0.29734787610E+03  0.00000000000E+00 0.  1.
          2   -1    0    0  501    0  0.00000000000E+00 -0.00000000000E+00 -0.50749564648E+04  0.50749564648E+04  0.00000000000E+00 0. -1.
         23    2    1    2    0    0 -0.30330831732E+03  0.10685779446E+04 -0.12540701227E+04  0.16778249350E+04  0.92465565277E+02 0.  0.
         13    1    3    3    0    0 -0.14005212059E+03  0.46149893139E+03 -0.61270242848E+03  0.77974362840E+03  0.00000000000E+00 0.  1.
        -13    1    3    3    0    0 -0.16325619673E+03  0.60707901324E+03 -0.64136769417E+03  0.89808130657E+03  0.00000000000E+00 0. -1.
         22    1    1    2    0    0  0.30330831732E+03 -0.10685779446E+04 -0.35235384661E+04  0.36944794060E+04  0.00000000000E+00 0. -1.
<mgrwt>
<rscale>  0 0.24568496E+04</rscale>
<asrwt>0</asrwt>
<pdfrwt beam="1">  1        2 0.78076252E+00 0.24568496E+04</pdfrwt>
<pdfrwt beam="2">  1       -2 0.45745828E-01 0.24568496E+04</pdfrwt>
<totfact> 0.11265969E-01</totfact>
</mgrwt>
</event>
<event>
 6    1  0.1585031E-006  0.1474354E+04  0.7818608E-02  0.8901688E-01
          1   -1    0    0  501    0  0.00000000000E+00  0.00000000000E+00  0.94690893387E+03  0.94690893387E+03  0.00000000000E+00 0. -1.
         -1   -1    0    0    0  501 -0.00000000000E+00 -0.00000000000E+00 -0.57389909791E+03  0.57389909791E+03  0.00000000000E+00 0.  1.
         23    2    1    2    0    0  0.41806657834E+03 -0.16924036390E+02  0.80974701025E+03  0.91598950831E+03  0.90997097707E+02 0.  0.
         11    1    3    3    0    0  0.30334067611E+03  0.26379397320E+02  0.60580026018E+03  0.67801577682E+03  0.00000000000E+00 0. -1.
        -11    1    3    3    0    0  0.11472590223E+03 -0.43303433710E+02  0.20394675007E+03  0.23797373149E+03  0.00000000000E+00 0.  1.
         22    1    1    2    0    0 -0.41806657834E+03  0.16924036390E+02 -0.43673717429E+03  0.60481852348E+03  0.00000000000E+00 0.  1.
<mgrwt>
<rscale>  0 0.14743543E+04</rscale>
<asrwt>0</asrwt>
<pdfrwt beam="1">  1        1 0.14567830E+00 0.14743543E+04</pdfrwt>
<pdfrwt beam="2">  1       -1 0.88292169E-01 0.14743543E+04</pdfrwt>
<totfact> 0.20366325E+01</totfact>
</mgrwt>
</event>
<event>
 6    1  0.1585031E-006  0.2012999E+04  0.7818608E-02  0.8600567E-01
          2   -1    0    0  501    0  0.00000000000E+00  0.00000000000E+00  0.20459588528E+04  0.20459588528E+04  0.00000000000E+00 0. -1.
         -2   -1    0    0    0  501 -0.00000000000E+00 -0.00000000000E+00 -0.49514268527E+03  0.49514268527E+03  0.00000000000E+00 0.  1.
         23    2    1    2    0    0 -0.14104395386E+03  0.85092069532E+02  0.20278016212E+04  0.20364737741E+04  0.90066423629E+02 0.  0.
         13    1    3    3    0    0 -0.33770284754E+02 -0.18527879718E+02  0.43970355035E+03  0.44138750169E+03  0.00000000000E+00 0.  1.
        -13    1    3    3    0    0 -0.10727366911E+03  0.10361994925E+03  0.15880980708E+04  0.15950862724E+04  0.00000000000E+00 0. -1.
         22    1    1    2    0    0  0.14104395386E+03 -0.85092069532E+02 -0.47698545361E+03  0.50462776397E+03  0.00000000000E+00 0.  1.
<mgrwt>
<rscale>  0 0.20129993E+04</rscale>
<asrwt>0</asrwt>
<pdfrwt beam="1">  1        2 0.31476290E+00 0.20129993E+04</pdfrwt>
<pdfrwt beam="2">  1       -2 0.76175799E-01 0.20129993E+04</pdfrwt>
<totfact> 0.90164965E+00</totfact>
</mgrwt>
</event>
<event>
 6    1  0.1585031E-006  0.1677459E+04  0.7818608E-02  0.8774326E-01
          2   -1    0    0  501    0  0.00000000000E+00  0.00000000000E+00  0.30355958646E+04  0.30355958646E+04  0.00000000000E+00 0. -1.
         -2   -1    0    0    0  501 -0.00000000000E+00 -0.00000000000E+00 -0.23173940835E+03  0.23173940835E+03  0.00000000000E+00 0.  1.
         23    2    1    2    0    0  0.10724185622E+03 -0.19422207385E+02  0.30210291347E+04  0.30243496558E+04  0.90530491268E+02 0.  0.
         11    1    3    3    0    0 -0.40684962896E+01 -0.31175180420E+01  0.11101679942E+04  0.11101798264E+04  0.00000000000E+00 0.  1.
        -11    1    3    3    0    0  0.11131035251E+03 -0.16304689343E+02  0.19108611406E+04  0.19141698294E+04  0.00000000000E+00 0. -1.
         22    1    1    2    0    0 -0.10724185622E+03  0.19422207385E+02 -0.21717267847E+03  0.24298561715E+03  0.00000000000E+00 0.  1.
<mgrwt>
<rscale>  0 0.16774590E+04</rscale>
<asrwt>0</asrwt>
<pdfrwt beam="1">  1        2 0.46701472E+00 0.16774590E+04</pdfrwt>
<pdfrwt beam="2">  1       -2 0.35652219E-01 0.16774590E+04</pdfrwt>
<totfact> 0.11718132E+01</totfact>
</mgrwt>
</event>
<event>
 6    1  0.1585031E-006  0.1065070E+04  0.7818608E-02  0.9239922E-01
         -2   -1    0    0    0  501 -0.00000000000E+00  0.00000000000E+00  0.30476955688E+03  0.30476955688E+03  0.00000000000E+00 0.  1.
          2   -1    0    0  501    0  0.00000000000E+00 -0.00000000000E+00 -0.93051775555E+03  0.93051775555E+03  0.00000000000E+00 0. -1.
         23    2    1    2    0    0 -0.47685400162E+03 -0.14561880024E+03 -0.11093167092E+03  0.51860702730E+03  0.89737613673E+02 0.  0.
         11    1    3    3    0    0 -0.29479447277E+03 -0.63263344152E+02 -0.10305383750E+03  0.31863164518E+03  0.00000000000E+00 0.  1.
        -11    1    3    3    0    0 -0.18205952885E+03 -0.82355456088E+02 -0.78778334128E+01  0.19997538212E+03  0.00000000000E+00 0. -1.
         22    1    1    2    0    0  0.47685400162E+03  0.14561880024E+03 -0.51481652776E+03  0.71668028513E+03  0.00000000000E+00 0.  1.
<mgrwt>
<rscale>  0 0.10650699E+04</rscale>
<asrwt>0</asrwt>
<pdfrwt beam="1">  1        2 0.14315657E+00 0.10650699E+04</pdfrwt>
<pdfrwt beam="2">  1       -2 0.46887625E-01 0.10650699E+04</pdfrwt>
<totfact> 0.11994224E+02</totfact>
</mgrwt>
</event>
<event>
 6    1  0.1585031E-006  0.1043239E+04  0.7818608E-02  0.9262352E-01
         -1   -1    0    0    0  501 -0.00000000000E+00  0.00000000000E+00  0.21821904692E+03  0.21821904692E+03  0.00000000000E+00 0.  1.
          1   -1    0    0  501    0  0.00000000000E+00 -0.00000000000E+00 -0.12468533258E+04  0.12468533258E+04  0.00000000000E+00 0. -1.
         23    2    1    2    0    0 -0.22493609655E+03  0.39797709380E+03 -0.85916816342E+03  0.97752670412E+03  0.91687019286E+02 0.  0.
         11    1    3    3    0    0 -0.19815360454E+03  0.26698017037E+03 -0.61992354930E+03  0.70345466758E+03  0.00000000000E+00 0.  1.
        -11    1    3    3    0    0 -0.26782492012E+02  0.13099692343E+03 -0.23924461412E+03  0.27407203654E+03  0.00000000000E+00 0. -1.
         22    1    1    2    0    0  0.22493609655E+03 -0.39797709380E+03 -0.16946611550E+03  0.48754566865E+03  0.00000000000E+00 0.  1.
<mgrwt>
<rscale>  0 0.10432395E+04</rscale>
<asrwt>0</asrwt>
<pdfrwt beam="1">  1        1 0.19182359E+00 0.10432395E+04</pdfrwt>
<pdfrwt beam="2">  1       -1 0.33572161E-01 0.10432395E+04</pdfrwt>
<totfact> 0.82518385E+01</totfact>
</mgrwt>
</event>
<event>
 6    1  0.1585031E-006  0.1361732E+04  0.7818608E-02  0.8981994E-01
         -2   -1    0    0    0  501 -0.00000000000E+00  0.00000000000E+00  0.12835507550E+04  0.12835507550E+04  0.00000000000E+00 0.  1.
          2   -1    0    0  501    0  0.00000000000E+00 -0.00000000000E+00 -0.36116897994E+03  0.36116897994E+03  0.00000000000E+00 0. -1.
         23    2    1    2    0    0  0.69292916953E+01 -0.66534043245E+03  0.30610067711E+03  0.73778627662E+03  0.88910400427E+02 0.  0.
         13    1    3    3    0    0 -0.32581729263E+02 -0.13237844032E+03  0.50482545069E+02  0.14537574729E+03  0.00000000000E+00 0. -1.
        -13    1    3    3    0    0  0.39511020959E+02 -0.53296199213E+03  0.25561813204E+03  0.59241052933E+03  0.00000000000E+00 0.  1.
         22    1    1    2    0    0 -0.69292916953E+01  0.66534043245E+03  0.61628109799E+03  0.90693345835E+03  0.00000000000E+00 0.  1.
<mgrwt>
<rscale>  0 0.13617323E+04</rscale>
<asrwt>0</asrwt>
<pdfrwt beam="1">  1        2 0.55564459E-01 0.13617323E+04</pdfrwt>
<pdfrwt beam="2">  1       -2 0.19746935E+00 0.13617323E+04</pdfrwt>
<totfact> 0.12021313E+01</totfact>
</mgrwt>
</event>
<event>
 6    1  0.1585031E-006  0.7726098E+03  0.7818608E-02  0.9600532E-01
          1   -1    0    0  501    0  0.00000000000E+00  0.00000000000E+00  0.97359690011E+03  0.97359690011E+03  0.00000000000E+00 0. -1.
         -1   -1    0    0    0  501 -0.00000000000E+00 -0.00000000000E+00 -0.15327850974E+03  0.15327850974E+03  0.00000000000E+00 0.  1.
         23    2    1    2    0    0 -0.30144432872E+03  0.14950198084E+03  0.15523591345E+03  0.38152030878E+03  0.90774619763E+02 0.  0.
         11    1    3    3    0    0 -0.13552006057E+03  0.40510832478E+02  0.23800793214E+02  0.14343392946E+03  0.00000000000E+00 0.  1.
        -11    1    3    3    0    0 -0.16592426816E+03  0.10899114836E+03  0.13143512024E+03  0.23808637932E+03  0.00000000000E+00 0. -1.
         22    1    1    2    0    0  0.30144432872E+03 -0.14950198084E+03  0.66508247692E+03  0.74535510108E+03  0.00000000000E+00 0.  1.
<mgrwt>
<rscale>  0 0.77260982E+03</rscale>
<asrwt>0</asrwt>
<pdfrwt beam="1">  1        1 0.14978413E+00 0.77260982E+03</pdfrwt>
<pdfrwt beam="2">  1       -1 0.23581310E-01 0.77260982E+03</pdfrwt>
<totfact> 0.24830104E+02</totfact>
</mgrwt>
</event>
<event>
 6    1  0.1585031E-006  0.5934570E+04  0.7818608E-02  0.7698568E-01
          2   -1    0    0  501    0  0.00000000000E+00  0.00000000000E+00  0.29059795893E+04  0.29059795893E+04  0.00000000000E+00 0. -1.
         -2   -1    0    0    0  501 -0.00000000000E+00 -0.00000000000E+00 -0.30298834007E+04  0.30298834007E+04  0.00000000000E+00 0.  1.
         23    2    1    2    0    0 -0.15347920244E+04  0.23857557604E+04  0.80610249869E+03  0.29505106082E+04  0.91074168272E+02 0.  0.
         11    1    3    3    0    0 -0.13217610021E+04  0.20661859813E+04  0.72842688131E+03  0.25586680866E+04  0.00000000000E+00 0.  1.
        -11    1    3    3    0    0 -0.21303102235E+03  0.31956977914E+03  0.77675617388E+02  0.39184252163E+03  0.00000000000E+00 0. -1.
         22    1    1    2    0    0  0.15347920244E+04 -0.23857557604E+04 -0.93000631006E+03  0.29853523818E+04  0.00000000000E+00 0.  1.
<mgrwt>
<rscale>  0 0.59345697E+04</rscale>
<asrwt>0</asrwt>
<pdfrwt beam="1">  1        2 0.44707379E+00 0.59345697E+04</pdfrwt>
<pdfrwt beam="2">  1       -2 0.46613590E+00 0.59345697E+04</pdfrwt>
<totfact> 0.36852087E-03</totfact>
</mgrwt>
</event>
<event>
 6    1  0.1585031E-006  0.1783920E+04  0.7818608E-02  0.8714898E-01
          1   -1    0    0  501    0  0.00000000000E+00  0.00000000000E+00  0.18297722353E+04  0.18297722353E+04  0.00000000000E+00 0. -1.
         -1   -1    0    0    0  501 -0.00000000000E+00 -0.00000000000E+00 -0.43480408055E+03  0.43480408055E+03  0.00000000000E+00 0.  1.
         23    2    1    2    0    0  0.77146601727E+03 -0.41500229388E+03  0.89548995239E+03  0.12561789763E+04  0.93255809774E+02 0.  0.
         13    1    3    3    0    0  0.53390252800E+03 -0.27295924852E+03  0.55177100109E+03  0.81486802514E+03  0.00000000000E+00 0.  1.
        -13    1    3    3    0    0  0.23756348927E+03 -0.14204304536E+03  0.34371895130E+03  0.44131095120E+03  0.00000000000E+00 0. -1.
         22    1    1    2    0    0 -0.77146601727E+03  0.41500229388E+03  0.49947820241E+03  0.10083973395E+04  0.00000000000E+00 0.  1.
<mgrwt>
<rscale>  0 0.17839198E+04</rscale>
<asrwt>0</asrwt>
<pdfrwt beam="1">  1        1 0.28150342E+00 0.17839198E+04</pdfrwt>
<pdfrwt beam="2">  1       -1 0.66892936E-01 0.17839198E+04</pdfrwt>
<totfact> 0.83185932E+00</totfact>
</mgrwt>
</event>
<event>
 6    1  0.1585031E-006  0.2018921E+04  0.7818608E-02  0.8597825E-01
          2   -1    0    0  501    0  0.00000000000E+00  0.00000000000E+00  0.13238950857E+04  0.13238950857E+04  0.00000000000E+00 0. -1.
         -2   -1    0    0    0  501 -0.00000000000E+00 -0.00000000000E+00 -0.76970670401E+03  0.76970670401E+03  0.00000000000E+00 0.  1.
         23    2    1    2    0    0  0.71878717469E+03 -0.62126763374E+03 -0.69900991884E+02  0.95688897575E+03  0.90121517993E+02 0.  0.
         13    1    3    3    0    0  0.67660973214E+03 -0.60914637434E+03 -0.65087889112E+02  0.91274118364E+03  0.00000000000E+00 0.  1.
        -13    1    3    3    0    0  0.42177442549E+02 -0.12121259392E+02 -0.48131027712E+01  0.44147792102E+02  0.00000000000E+00 0. -1.
         22    1    1    2    0    0 -0.71878717469E+03  0.62126763374E+03  0.62408937358E+03  0.11367128140E+04  0.00000000000E+00 0. -1.
<mgrwt>
<rscale>  0 0.20189214E+04</rscale>
<asrwt>0</asrwt>
<pdfrwt beam="1">  1        2 0.20367617E+00 0.20189214E+04</pdfrwt>
<pdfrwt beam="2">  1       -2 0.11841642E+00 0.20189214E+04</pdfrwt>
<totfact> 0.81522151E+00</totfact>
</mgrwt>
</event>
<event>
 6    1  0.1585031E-006  0.2871035E+04  0.7818608E-02  0.8281548E-01
         -1   -1    0    0    0  501 -0.00000000000E+00  0.00000000000E+00  0.11833926699E+04  0.11833926699E+04  0.00000000000E+00 0.  1.
          1   -1    0    0  501    0  0.00000000000E+00 -0.00000000000E+00 -0.17413581857E+04  0.17413581857E+04  0.00000000000E+00 0. -1.
         23    2    1    2    0    0 -0.77853893157E+03  0.66535947441E+03 -0.13020362699E+04  0.16588648476E+04  0.87795423735E+02 0.  0.
         11    1    3    3    0    0 -0.19392774900E+03  0.12690540787E+03 -0.25970815918E+03  0.34808229246E+03  0.00000000000E+00 0.  1.
        -11    1    3    3    0    0 -0.58461118257E+03  0.53845406653E+03 -0.10423281107E+04  0.13107825552E+04  0.00000000000E+00 0. -1.
         22    1    1    2    0    0  0.77853893157E+03 -0.66535947441E+03  0.74407075407E+03  0.12658860080E+04  0.00000000000E+00 0.  1.
<mgrwt>
<rscale>  0 0.28710350E+04</rscale>
<asrwt>0</asrwt>
<pdfrwt beam="1">  1        1 0.26790126E+00 0.28710350E+04</pdfrwt>
<pdfrwt beam="2">  1       -1 0.18206041E+00 0.28710350E+04</pdfrwt>
<totfact> 0.77307109E-01</totfact>
</mgrwt>
</event>
<event>
 6    1  0.1585031E-006  0.2963155E+04  0.7818608E-02  0.8254331E-01
         -1   -1    0    0    0  501 -0.00000000000E+00  0.00000000000E+00  0.12737194274E+04  0.12737194274E+04  0.00000000000E+00 0.  1.
          1   -1    0    0  501    0  0.00000000000E+00 -0.00000000000E+00 -0.17233560021E+04  0.17233560021E+04  0.00000000000E+00 0. -1.
         23    2    1    2    0    0  0.52443684086E+03  0.25688893393E+03 -0.16007108022E+04  0.17063400570E+04  0.91079052105E+02 0.  0.
         13    1    3    3    0    0  0.36760492896E+03  0.22497789368E+03 -0.11697374830E+04  0.12466090869E+04  0.00000000000E+00 0.  1.
        -13    1    3    3    0    0  0.15683191190E+03  0.31911040256E+02 -0.43097331920E+03  0.45973097018E+03  0.00000000000E+00 0. -1.
         22    1    1    2    0    0 -0.52443684086E+03 -0.25688893393E+03  0.11510742274E+04  0.12907353724E+04  0.00000000000E+00 0.  1.
<mgrwt>
<rscale>  0 0.29631551E+04</rscale>
<asrwt>0</asrwt>
<pdfrwt beam="1">  1        1 0.26513169E+00 0.29631551E+04</pdfrwt>
<pdfrwt beam="2">  1       -1 0.19595684E+00 0.29631551E+04</pdfrwt>
<totfact> 0.62970370E-01</totfact>
</mgrwt>
</event>
<event>
 6    1  0.1585031E-006  0.2051537E+03  0.7818608E-02  0.1145462E+00
         -2   -1    0    0    0  501 -0.00000000000E+00  0.00000000000E+00  0.18506265352E+02  0.18506265352E+02  0.00000000000E+00 0.  1.
          2   -1    0    0  501    0  0.00000000000E+00 -0.00000000000E+00 -0.56856467184E+03  0.56856467184E+03  0.00000000000E+00 0. -1.
         23    2    1    2    0    0  0.66039094660E+02  0.97267754169E+01 -0.18679525186E+03  0.21772571698E+03  0.89756612755E+02 0.  0.
         13    1    3    3    0    0  0.88153397126E+02  0.61381480142E+01 -0.16016561150E+03  0.18292545310E+03  0.00000000000E+00 0. -1.
        -13    1    3    3    0    0 -0.22114302466E+02  0.35886274027E+01 -0.26629640369E+02  0.34800263883E+02  0.00000000000E+00 0.  1.
         22    1    1    2    0    0 -0.66039094660E+02 -0.97267754169E+01 -0.36326315462E+03  0.36934522021E+03  0.00000000000E+00 0. -1.
<mgrwt>
<rscale>  0 0.20515369E+03</rscale>
<asrwt>0</asrwt>
<pdfrwt beam="1">  1        2 0.87471476E-01 0.20515369E+03</pdfrwt>
<pdfrwt beam="2">  1       -2 0.28471181E-02 0.20515369E+03</pdfrwt>
<totfact> 0.23943375E+04</totfact>
</mgrwt>
</event>
<event>
 6    1  0.1585031E-006  0.1652112E+04  0.7818608E-02  0.8789158E-01
          1   -1    0    0  501    0  0.00000000000E+00  0.00000000000E+00  0.18832301322E+04  0.18832301322E+04  0.00000000000E+00 0. -1.
         -1   -1    0    0    0  501 -0.00000000000E+00 -0.00000000000E+00 -0.36233927992E+03  0.36233927992E+03  0.00000000000E+00 0.  1.
         23    2    1    2    0    0  0.60080456317E+03 -0.61247336366E+02  0.15236990313E+04  0.16416445449E+04  0.92847802729E+02 0.  0.
         13    1    3    3    0    0  0.53063986334E+03 -0.79419738256E+02  0.13815947712E+04  0.14821235681E+04  0.00000000000E+00 0. -1.
        -13    1    3    3    0    0  0.70164699828E+02  0.18172401890E+02  0.14210426019E+03  0.15952097685E+03  0.00000000000E+00 0.  1.
         22    1    1    2    0    0 -0.60080456317E+03  0.61247336366E+02 -0.28081790569E+01  0.60392486719E+03  0.00000000000E+00 0.  1.
<mgrwt>
<rscale>  0 0.16521117E+04</rscale>
<asrwt>0</asrwt>
<pdfrwt beam="1">  1        1 0.28972771E+00 0.16521117E+04</pdfrwt>
<pdfrwt beam="2">  1       -1 0.55744506E-01 0.16521117E+04</pdfrwt>
<totfact> 0.11124046E+01</totfact>
</mgrwt>
</event>
<event>
 6    1  0.1585031E-006  0.2609848E+04  0.7818608E-02  0.8364864E-01
          2   -1    0    0  501    0  0.00000000000E+00  0.00000000000E+00  0.12103427821E+04  0.12103427821E+04  0.00000000000E+00 0. -1.
         -2   -1    0    0    0  501 -0.00000000000E+00 -0.00000000000E+00 -0.14068965878E+04  0.14068965878E+04  0.00000000000E+00 0.  1.
         23    2    1    2    0    0 -0.90430330202E+03  0.71722007621E+03  0.50849707860E+03  0.12647358213E+04  0.93905904362E+02 0.  0.
         13    1    3    3    0    0 -0.68630009143E+03  0.51914792034E+03  0.33900100974E+03  0.92490219120E+03  0.00000000000E+00 0. -1.
        -13    1    3    3    0    0 -0.21800321059E+03  0.19807215587E+03  0.16949606886E+03  0.33983363006E+03  0.00000000000E+00 0.  1.
         22    1    1    2    0    0  0.90430330202E+03 -0.71722007621E+03 -0.70505088433E+03  0.13525035487E+04  0.00000000000E+00 0.  1.
<mgrwt>
<rscale>  0 0.26098484E+04</rscale>
<asrwt>0</asrwt>
<pdfrwt beam="1">  1        2 0.18620658E+00 0.26098484E+04</pdfrwt>
<pdfrwt beam="2">  1       -2 0.21644563E+00 0.26098484E+04</pdfrwt>
<totfact> 0.17182723E+00</totfact>
</mgrwt>
</event>
<event>
 6    1  0.1585031E-006  0.2258190E+04  0.7818608E-02  0.8494591E-01
          2   -1    0    0  501    0  0.00000000000E+00  0.00000000000E+00  0.27132001903E+04  0.27132001903E+04  0.00000000000E+00 0. -1.
         -2   -1    0    0    0  501 -0.00000000000E+00 -0.00000000000E+00 -0.46987141038E+03  0.46987141038E+03  0.00000000000E+00 0.  1.
         23    2    1    2    0    0  0.53206291364E+03  0.69431916240E+03  0.12103832668E+03  0.88757888424E+03  0.89308207156E+02 0.  0.
         13    1    3    3    0    0  0.25981997517E+03  0.38210024222E+03  0.27369032394E+02  0.46287803851E+03  0.00000000000E+00 0.  1.
        -13    1    3    3    0    0  0.27224293847E+03  0.31221892018E+03  0.93669294291E+02  0.42470084573E+03  0.00000000000E+00 0. -1.
         22    1    1    2    0    0 -0.53206291364E+03 -0.69431916240E+03  0.21222904532E+04  0.22954927164E+04  0.00000000000E+00 0. -1.
<mgrwt>
<rscale>  0 0.22581897E+04</rscale>
<asrwt>0</asrwt>
<pdfrwt beam="1">  1        2 0.41741541E+00 0.22581897E+04</pdfrwt>
<pdfrwt beam="2">  1       -2 0.72287911E-01 0.22581897E+04</pdfrwt>
<totfact> 0.41107273E+00</totfact>
</mgrwt>
</event>
<event>
 6    1  0.1585031E-006  0.2987062E+04  0.7818608E-02  0.8247435E-01
          2   -1    0    0  501    0  0.00000000000E+00  0.00000000000E+00  0.20987710354E+04  0.20987710354E+04  0.00000000000E+00 0. -1.
         -2   -1    0    0    0  501 -0.00000000000E+00 -0.00000000000E+00 -0.10628292555E+04  0.10628292555E+04  0.00000000000E+00 0.  1.
         23    2    1    2    0    0  0.14729915711E+04  0.23824661630E+03  0.52378807608E+03  0.15840176354E+04  0.91062077730E+02 0.  0.
         11    1    3    3    0    0  0.41432429249E+03  0.62423609267E+02  0.19061400995E+03  0.46032056996E+03  0.00000000000E+00 0. -1.
        -11    1    3    3    0    0  0.10586672786E+04  0.17582300703E+03  0.33317406613E+03  0.11236970654E+04  0.00000000000E+00 0.  1.
         22    1    1    2    0    0 -0.14729915711E+04 -0.23824661630E+03  0.51215370381E+03  0.15775826555E+04  0.00000000000E+00 0.  1.
<mgrwt>
<rscale>  0 0.29870623E+04</rscale>
<asrwt>0</asrwt>
<pdfrwt beam="1">  1        2 0.32288785E+00 0.29870623E+04</pdfrwt>
<pdfrwt beam="2">  1       -2 0.16351219E+00 0.29870623E+04</pdfrwt>
<totfact> 0.11970931E+00</totfact>
</mgrwt>
</event>
<event>
 6    1  0.1585031E-006  0.2501399E+04  0.7818608E-02  0.8402487E-01
         -1   -1    0    0    0  501 -0.00000000000E+00  0.00000000000E+00  0.23149921310E+04  0.23149921310E+04  0.00000000000E+00 0.  1.
          1   -1    0    0  501    0  0.00000000000E+00 -0.00000000000E+00 -0.67570414147E+03  0.67570414147E+03  0.00000000000E+00 0. -1.
         23    2    1    2    0    0  0.55199607818E+03 -0.23397231039E+03 -0.48974760495E+03  0.77885647834E+03  0.85568597798E+02 0.  0.
         13    1    3    3    0    0  0.19720580554E+03 -0.92355238745E+02 -0.23103370700E+03  0.31748416281E+03  0.00000000000E+00 0.  1.
        -13    1    3    3    0    0  0.35479027264E+03 -0.14161707164E+03 -0.25871389795E+03  0.46137231553E+03  0.00000000000E+00 0. -1.
         22    1    1    2    0    0 -0.55199607818E+03  0.23397231039E+03  0.21290355945E+04  0.22118397941E+04  0.00000000000E+00 0.  1.
<mgrwt>
<rscale>  0 0.25013994E+04</rscale>
<asrwt>0</asrwt>
<pdfrwt beam="1">  1        1 0.10395448E+00 0.25013994E+04</pdfrwt>
<pdfrwt beam="2">  1       -1 0.35615263E+00 0.25013994E+04</pdfrwt>
<totfact> 0.36115263E-01</totfact>
</mgrwt>
</event>
<event>
 6    1  0.1585031E-006  0.3197575E+04  0.7818608E-02  0.8189458E-01
         -1   -1    0    0    0  501 -0.00000000000E+00  0.00000000000E+00  0.14497036067E+04  0.14497036067E+04  0.00000000000E+00 0.  1.
          1   -1    0    0  501    0  0.00000000000E+00 -0.00000000000E+00 -0.17632022997E+04  0.17632022997E+04  0.00000000000E+00 0. -1.
         23    2    1    2    0    0 -0.14690334987E+04  0.14406228604E+03 -0.77098756665E+03  0.16675549973E+04  0.86628391946E+02 0.  0.
         11    1    3    3    0    0 -0.37690164005E+03  0.64281305593E+02 -0.16999760832E+03  0.41843293293E+03  0.00000000000E+00 0.  1.
        -11    1    3    3    0    0 -0.10921318587E+04  0.79780980446E+02 -0.60098995833E+03  0.12491220643E+04  0.00000000000E+00 0. -1.
         22    1    1    2    0    0  0.14690334987E+04 -0.14406228604E+03  0.45748887363E+03  0.15453509091E+04  0.00000000000E+00 0.  1.
<mgrwt>
<rscale>  0 0.31975745E+04</rscale>
<asrwt>0</asrwt>
<pdfrwt beam="1">  1        1 0.27126189E+00 0.31975745E+04</pdfrwt>
<pdfrwt beam="2">  1       -1 0.22303132E+00 0.31975745E+04</pdfrwt>
<totfact> 0.37934287E-01</totfact>
</mgrwt>
</event>
<event>
 6    1  0.1585031E-006  0.2685104E+04  0.7818608E-02  0.8339854E-01
          1   -1    0    0  501    0  0.00000000000E+00  0.00000000000E+00  0.25695120033E+04  0.25695120033E+04  0.00000000000E+00 0. -1.
         -1   -1    0    0    0  501 -0.00000000000E+00 -0.00000000000E+00 -0.70147416357E+03  0.70147416357E+03  0.00000000000E+00 0.  1.
         23    2    1    2    0    0  0.10020561533E+04 -0.64598075339E+03  0.18719808666E+03  0.12102508749E+04  0.90864670910E+02 0.  0.
         13    1    3    3    0    0  0.45584285234E+03 -0.34743737961E+03  0.95540565159E+02  0.58106233604E+03  0.00000000000E+00 0.  1.
        -13    1    3    3    0    0  0.54621330094E+03 -0.29854337378E+03  0.91657521497E+02  0.62918853883E+03  0.00000000000E+00 0. -1.
         22    1    1    2    0    0 -0.10020561533E+04  0.64598075339E+03  0.16808397530E+04  0.20607352919E+04  0.00000000000E+00 0. -1.
<mgrwt>
<rscale>  0 0.26851043E+04</rscale>
<asrwt>0</asrwt>
<pdfrwt beam="1">  1        1 0.39530954E+00 0.26851043E+04</pdfrwt>
<pdfrwt beam="2">  1       -1 0.10791910E+00 0.26851043E+04</pdfrwt>
<totfact> 0.84549547E-01</totfact>
</mgrwt>
</event>
<event>
 6    1  0.1585031E-006  0.2031685E+04  0.7818608E-02  0.8591949E-01
          2   -1    0    0  501    0  0.00000000000E+00  0.00000000000E+00  0.51452572812E+03  0.51452572812E+03  0.00000000000E+00 0.  1.
         -2   -1    0    0    0  501 -0.00000000000E+00 -0.00000000000E+00 -0.20056062153E+04  0.20056062153E+04  0.00000000000E+00 0. -1.
         23    2    1    2    0    0  0.86707030892E+03  0.49453497824E+03 -0.96812160173E+03  0.13932505117E+04  0.86670567636E+02 0.  0.
         13    1    3    3    0    0  0.52078659824E+03  0.30497044366E+03 -0.52638601421E+03  0.80081701304E+03  0.00000000000E+00 0.  1.
        -13    1    3    3    0    0  0.34628371067E+03  0.18956453457E+03 -0.44173558752E+03  0.59243349866E+03  0.00000000000E+00 0. -1.
         22    1    1    2    0    0 -0.86707030892E+03 -0.49453497824E+03 -0.52295888546E+03  0.11268814317E+04  0.00000000000E+00 0.  1.
<mgrwt>
<rscale>  0 0.20316850E+04</rscale>
<asrwt>0</asrwt>
<pdfrwt beam="1">  1        2 0.79157803E-01 0.20316850E+04</pdfrwt>
<pdfrwt beam="2">  1       -2 0.30855481E+00 0.20316850E+04</pdfrwt>
<totfact> 0.15562235E+00</totfact>
</mgrwt>
</event>
<event>
 6    1  0.1585031E-006  0.4254770E+03  0.7818608E-02  0.1035298E+00
          2   -1    0    0  501    0  0.00000000000E+00  0.00000000000E+00  0.23830158273E+03  0.23830158273E+03  0.00000000000E+00 0. -1.
         -2   -1    0    0    0  501 -0.00000000000E+00 -0.00000000000E+00 -0.18991762138E+03  0.18991762138E+03  0.00000000000E+00 0.  1.
         23    2    1    2    0    0  0.17575570892E+03 -0.54061743302E+02  0.11145896587E+03  0.23381962205E+03  0.91846465773E+02 0.  0.
         11    1    3    3    0    0  0.13688141413E+03  0.48346819707E+00  0.88561570924E+02  0.16303345399E+03  0.00000000000E+00 0.  1.
        -11    1    3    3    0    0  0.38874294791E+02 -0.54545211499E+02  0.22897394947E+02  0.70786168058E+02  0.00000000000E+00 0. -1.
         22    1    1    2    0    0 -0.17575570892E+03  0.54061743302E+02 -0.63075004524E+02  0.19439958206E+03  0.00000000000E+00 0.  1.
<mgrwt>
<rscale>  0 0.42547700E+03</rscale>
<asrwt>0</asrwt>
<pdfrwt beam="1">  1        2 0.36661782E-01 0.42547700E+03</pdfrwt>
<pdfrwt beam="2">  1       -2 0.29218095E-01 0.42547700E+03</pdfrwt>
<totfact> 0.15195854E+03</totfact>
</mgrwt>
</event>
<event>
 6    1  0.1585031E-006  0.2860886E+04  0.7818608E-02  0.8284611E-01
          2   -1    0    0  501    0  0.00000000000E+00  0.00000000000E+00  0.37413159380E+04  0.37413159380E+04  0.00000000000E+00 0. -1.
         -2   -1    0    0    0  501 -0.00000000000E+00 -0.00000000000E+00 -0.54691114019E+03  0.54691114019E+03  0.00000000000E+00 0.  1.
         23    2    1    2    0    0 -0.68993276741E+03 -0.11382694763E+04  0.23780935046E+04  0.27268082517E+04  0.92140659149E+02 0.  0.
         13    1    3    3    0    0 -0.59654298793E+03 -0.94683749419E+03  0.19386494173E+04  0.22384651751E+04  0.00000000000E+00 0. -1.
        -13    1    3    3    0    0 -0.93389779482E+02 -0.19143198208E+03  0.43944408726E+03  0.48834307664E+03  0.00000000000E+00 0.  1.
         22    1    1    2    0    0  0.68993276741E+03  0.11382694763E+04  0.81631129327E+03  0.15614188265E+04  0.00000000000E+00 0.  1.
<mgrwt>
<rscale>  0 0.28608861E+04</rscale>
<asrwt>0</asrwt>
<pdfrwt beam="1">  1        2 0.57558705E+00 0.28608861E+04</pdfrwt>
<pdfrwt beam="2">  1       -2 0.84140178E-01 0.28608861E+04</pdfrwt>
<totfact> 0.58057017E-01</totfact>
</mgrwt>
</event>
<event>
 6    1  0.1585031E-006  0.1442976E+04  0.7818608E-02  0.8923284E-01
          2   -1    0    0  501    0  0.00000000000E+00  0.00000000000E+00  0.68466583185E+03  0.68466583185E+03  0.00000000000E+00 0. -1.
         -2   -1    0    0    0  501 -0.00000000000E+00 -0.00000000000E+00 -0.76029074176E+03  0.76029074176E+03  0.00000000000E+00 0.  1.
         23    2    1    2    0    0  0.29711978176E+03  0.49657922352E+02  0.61551862169E+03  0.69101661894E+03  0.88852237158E+02 0.  0.
         11    1    3    3    0    0  0.20811621223E+03  0.48391820233E+02  0.51011146933E+03  0.55305319563E+03  0.00000000000E+00 0.  1.
        -11    1    3    3    0    0  0.89003569531E+02  0.12661021196E+01  0.10540715236E+03  0.13796342331E+03  0.00000000000E+00 0. -1.
         22    1    1    2    0    0 -0.29711978176E+03 -0.49657922352E+02 -0.69114353160E+03  0.75393995466E+03  0.00000000000E+00 0.  1.
<mgrwt>
<rscale>  0 0.14429762E+04</rscale>
<asrwt>0</asrwt>
<pdfrwt beam="1">  1        2 0.10533321E+00 0.14429762E+04</pdfrwt>
<pdfrwt beam="2">  1       -2 0.11696781E+00 0.14429762E+04</pdfrwt>
<totfact> 0.23124454E+01</totfact>
</mgrwt>
</event>
<event>
 6    1  0.1585031E-006  0.6034201E+03  0.7818608E-02  0.9898336E-01
          2   -1    0    0  501    0  0.00000000000E+00  0.00000000000E+00  0.12455591359E+04  0.12455591359E+04  0.00000000000E+00 0. -1.
         -2   -1    0    0    0  501 -0.00000000000E+00 -0.00000000000E+00 -0.73082815804E+02  0.73082815804E+02  0.00000000000E+00 0.  1.
         23    2    1    2    0    0  0.47577563605E+02  0.12139112461E+03  0.11774050941E+04  0.11881669637E+04  0.91970365665E+02 0.  0.
         11    1    3    3    0    0  0.11633742855E+01 -0.14535409690E+02  0.71352572017E+02  0.72827337642E+02  0.00000000000E+00 0.  1.
        -11    1    3    3    0    0  0.46414189319E+02  0.13592653430E+03  0.11060525221E+04  0.11153396260E+04  0.00000000000E+00 0. -1.
         22    1    1    2    0    0 -0.47577563605E+02 -0.12139112461E+03 -0.49287740325E+01  0.13047498804E+03  0.00000000000E+00 0.  1.
<mgrwt>
<rscale>  0 0.60342015E+03</rscale>
<asrwt>0</asrwt>
<pdfrwt beam="1">  1        2 0.19162447E+00 0.60342015E+03</pdfrwt>
<pdfrwt beam="2">  1       -2 0.11243511E-01 0.60342015E+03</pdfrwt>
<totfact> 0.10210720E+03</totfact>
</mgrwt>
</event>
<event>
 6    1  0.1585031E-006  0.4091369E+04  0.7818608E-02  0.7986364E-01
          1   -1    0    0  501    0  0.00000000000E+00  0.00000000000E+00  0.35103234917E+04  0.35103234917E+04  0.00000000000E+00 0. -1.
         -1   -1    0    0    0  501 -0.00000000000E+00 -0.00000000000E+00 -0.11921478119E+04  0.11921478119E+04  0.00000000000E+00 0.  1.
         23    2    1    2    0    0 -0.13169657823E+04  0.58984375002E+02  0.29560293658E+04  0.32379798038E+04  0.92334012648E+02 0.  0.
         13    1    3    3    0    0 -0.51889735512E+03 -0.10981650453E+02  0.12348872236E+04  0.13395228691E+04  0.00000000000E+00 0.  1.
        -13    1    3    3    0    0 -0.79806842722E+03  0.69966025454E+02  0.17211421422E+04  0.18984569347E+04  0.00000000000E+00 0. -1.
         22    1    1    2    0    0  0.13169657823E+04 -0.58984375002E+02 -0.63785368603E+03  0.14644914998E+04  0.00000000000E+00 0.  1.
<mgrwt>
<rscale>  0 0.40913687E+04</rscale>
<asrwt>0</asrwt>
<pdfrwt beam="1">  1        1 0.54004976E+00 0.40913687E+04</pdfrwt>
<pdfrwt beam="2">  1       -1 0.18340736E+00 0.40913687E+04</pdfrwt>
<totfact> 0.37423449E-02</totfact>
</mgrwt>
</event>
<event>
 6    1  0.1585031E-006  0.5600580E+03  0.7818608E-02  0.9991923E-01
         -1   -1    0    0    0  501 -0.00000000000E+00  0.00000000000E+00  0.43719970572E+02  0.43719970572E+02  0.00000000000E+00 0.  1.
          1   -1    0    0  501    0  0.00000000000E+00 -0.00000000000E+00 -0.17936026129E+04  0.17936026129E+04  0.00000000000E+00 0. -1.
         23    2    1    2    0    0 -0.13476691835E+03  0.22827109276E+03 -0.68951551378E+03  0.74432292136E+03  0.91187463217E+02 0.  0.
         11    1    3    3    0    0 -0.96639260163E+02  0.87319253455E+02 -0.26257538640E+03  0.29310344961E+03  0.00000000000E+00 0. -1.
        -11    1    3    3    0    0 -0.38127658192E+02  0.14095183930E+03 -0.42694012738E+03  0.45121947175E+03  0.00000000000E+00 0.  1.
         22    1    1    2    0    0  0.13476691835E+03 -0.22827109276E+03 -0.10603671286E+04  0.10929996621E+04  0.00000000000E+00 0.  1.
<mgrwt>
<rscale>  0 0.56005805E+03</rscale>
<asrwt>0</asrwt>
<pdfrwt beam="1">  1        1 0.27593883E+00 0.56005805E+03</pdfrwt>
<pdfrwt beam="2">  1       -1 0.67261501E-02 0.56005805E+03</pdfrwt>
<totfact> 0.50154743E+02</totfact>
</mgrwt>
</event>
<event>
 6    1  0.1585031E-006  0.4007224E+04  0.7818608E-02  0.8003091E-01
         -2   -1    0    0    0  501 -0.00000000000E+00  0.00000000000E+00  0.22649862711E+04  0.22649862711E+04  0.00000000000E+00 0.  1.
          2   -1    0    0  501    0  0.00000000000E+00 -0.00000000000E+00 -0.17723995608E+04  0.17723995608E+04  0.00000000000E+00 0. -1.
         23    2    1    2    0    0  0.75237402511E+03  0.16126113488E+04  0.11719217377E+04  0.21326343743E+04  0.90259511324E+02 0.  0.
         11    1    3    3    0    0  0.53744805233E+03  0.10564897346E+04  0.76341444868E+03  0.14099016237E+04  0.00000000000E+00 0. -1.
        -11    1    3    3    0    0  0.21492597277E+03  0.55612161419E+03  0.40850728905E+03  0.72273275057E+03  0.00000000000E+00 0.  1.
         22    1    1    2    0    0 -0.75237402511E+03 -0.16126113488E+04 -0.67933502747E+03  0.19047514576E+04  0.00000000000E+00 0. -1.
<mgrwt>
<rscale>  0 0.40072238E+04</rscale>
<asrwt>0</asrwt>
<pdfrwt beam="1">  1        2 0.27267686E+00 0.40072238E+04</pdfrwt>
<pdfrwt beam="2">  1       -2 0.34845943E+00 0.40072238E+04</pdfrwt>
<totfact> 0.11209941E-01</totfact>
</mgrwt>
</event>
<event>
 6    1  0.1585031E-006  0.1525806E+04  0.7818608E-02  0.8867471E-01
          1   -1    0    0  501    0  0.00000000000E+00  0.00000000000E+00  0.13222623903E+04  0.13222623903E+04  0.00000000000E+00 0. -1.
         -1   -1    0    0    0  501 -0.00000000000E+00 -0.00000000000E+00 -0.44017060202E+03  0.44017060202E+03  0.00000000000E+00 0.  1.
         23    2    1    2    0    0 -0.34434819421E+03  0.21606082939E+03 -0.29913728007E+03  0.51320920422E+03  0.92965660933E+02 0.  0.
         13    1    3    3    0    0 -0.27184584239E+03  0.20906141849E+03 -0.26119770201E+03  0.43108128962E+03  0.00000000000E+00 0.  1.
        -13    1    3    3    0    0 -0.72502351824E+02  0.69994109033E+01 -0.37939578052E+02  0.82127914596E+02  0.00000000000E+00 0. -1.
         22    1    1    2    0    0  0.34434819421E+03 -0.21606082939E+03  0.11812290683E+04  0.12492237881E+04  0.00000000000E+00 0. -1.
<mgrwt>
<rscale>  0 0.15258061E+04</rscale>
<asrwt>0</asrwt>
<pdfrwt beam="1">  1        1 0.20342498E+00 0.15258061E+04</pdfrwt>
<pdfrwt beam="2">  1       -1 0.67718555E-01 0.15258061E+04</pdfrwt>
<totfact> 0.18588328E+01</totfact>
</mgrwt>
</event>
<event>
 6    1  0.1585031E-006  0.3134070E+04  0.7818608E-02  0.8206450E-01
          1   -1    0    0  501    0  0.00000000000E+00  0.00000000000E+00  0.96674634170E+03  0.96674634170E+03  0.00000000000E+00 0. -1.
         -1   -1    0    0    0  501 -0.00000000000E+00 -0.00000000000E+00 -0.25400644033E+04  0.25400644033E+04  0.00000000000E+00 0.  1.
         23    2    1    2    0    0 -0.77821160919E+03  0.42929497066E+03 -0.22296312436E+04  0.24019784168E+04  0.91309099572E+02 0.  0.
         13    1    3    3    0    0 -0.41991149749E+03  0.24016012146E+03 -0.13329772939E+04  0.14180377343E+04  0.00000000000E+00 0.  1.
        -13    1    3    3    0    0 -0.35830011170E+03  0.18913484919E+03 -0.89665394970E+03  0.98394068252E+03  0.00000000000E+00 0. -1.
         22    1    1    2    0    0  0.77821160919E+03 -0.42929497066E+03  0.65631318204E+03  0.11048323282E+04  0.00000000000E+00 0. -1.
<mgrwt>
<rscale>  0 0.31340695E+04</rscale>
<asrwt>0</asrwt>
<pdfrwt beam="1">  1        1 0.14873020E+00 0.31340695E+04</pdfrwt>
<pdfrwt beam="2">  1       -1 0.39077914E+00 0.31340695E+04</pdfrwt>
<totfact> 0.11173722E-01</totfact>
</mgrwt>
</event>
<event>
 6    1  0.1585031E-006  0.4215888E+04  0.7818608E-02  0.7962357E-01
         -2   -1    0    0    0  501 -0.00000000000E+00  0.00000000000E+00  0.17006873808E+04  0.17006873808E+04  0.00000000000E+00 0.  1.
          2   -1    0    0  501    0  0.00000000000E+00 -0.00000000000E+00 -0.26127247877E+04  0.26127247877E+04  0.00000000000E+00 0. -1.
         23    2    1    2    0    0  0.15659950056E+03  0.15440659108E+04  0.10016688838E+04  0.18494854837E+04  0.92698765382E+02 0.  0.
         13    1    3    3    0    0  0.56108972577E+02  0.32985737876E+03  0.25304881904E+03  0.41950901295E+03  0.00000000000E+00 0. -1.
        -13    1    3    3    0    0  0.10049052798E+03  0.12142085321E+04  0.74862006481E+03  0.14299764708E+04  0.00000000000E+00 0.  1.
         22    1    1    2    0    0 -0.15659950056E+03 -0.15440659108E+04 -0.19137062907E+04  0.24639266847E+04  0.00000000000E+00 0. -1.
<mgrwt>
<rscale>  0 0.42158881E+04</rscale>
<asrwt>0</asrwt>
<pdfrwt beam="1">  1        2 0.40195766E+00 0.42158881E+04</pdfrwt>
<pdfrwt beam="2">  1       -2 0.26164421E+00 0.42158881E+04</pdfrwt>
<totfact> 0.12641489E-01</totfact>
</mgrwt>
</event>
<event>
 6    1  0.1585031E-006  0.4694924E+04  0.7818608E-02  0.7877373E-01
         -2   -1    0    0    0  501 -0.00000000000E+00  0.00000000000E+00  0.20305774655E+04  0.20305774655E+04  0.00000000000E+00 0.  1.
          2   -1    0    0  501    0  0.00000000000E+00 -0.00000000000E+00 -0.27137984674E+04  0.27137984674E+04  0.00000000000E+00 0. -1.
         23    2    1    2    0    0 -0.21011489022E+04 -0.10447740691E+04 -0.33706806535E+03  0.23724144197E+04  0.91409701004E+02 0.  0.
         11    1    3    3    0    0 -0.10179998871E+04 -0.45791100024E+03 -0.14541749079E+03  0.11256786846E+04  0.00000000000E+00 0. -1.
        -11    1    3    3    0    0 -0.10831490150E+04 -0.58686306888E+03 -0.19165057456E+03  0.12467357351E+04  0.00000000000E+00 0.  1.
         22    1    1    2    0    0  0.21011489022E+04  0.10447740691E+04 -0.34615293660E+03  0.23719615132E+04  0.00000000000E+00 0. -1.
<mgrwt>
<rscale>  0 0.46949241E+04</rscale>
<asrwt>0</asrwt>
<pdfrwt beam="1">  1        2 0.41750746E+00 0.46949241E+04</pdfrwt>
<pdfrwt beam="2">  1       -2 0.31239653E+00 0.46949241E+04</pdfrwt>
<totfact> 0.51834801E-02</totfact>
</mgrwt>
</event>
<event>
 6    1  0.1585031E-006  0.2647247E+04  0.7818608E-02  0.8352327E-01
          1   -1    0    0  501    0  0.00000000000E+00  0.00000000000E+00  0.14634589082E+04  0.14634589082E+04  0.00000000000E+00 0. -1.
         -1   -1    0    0    0  501 -0.00000000000E+00 -0.00000000000E+00 -0.11971495531E+04  0.11971495531E+04  0.00000000000E+00 0.  1.
         23    2    1    2    0    0  0.37889380457E+03 -0.12032169758E+04  0.53081778856E+03  0.13717111353E+04  0.92370493273E+02 0.  0.
         13    1    3    3    0    0  0.20388729851E+03 -0.70295342478E+03  0.26166103333E+03  0.77729019309E+03  0.00000000000E+00 0. -1.
        -13    1    3    3    0    0  0.17500650605E+03 -0.50026355098E+03  0.26915675523E+03  0.59442094216E+03  0.00000000000E+00 0.  1.
         22    1    1    2    0    0 -0.37889380457E+03  0.12032169758E+04 -0.26450843348E+03  0.12888973261E+04  0.00000000000E+00 0.  1.
<mgrwt>
<rscale>  0 0.26472470E+04</rscale>
<asrwt>0</asrwt>
<pdfrwt beam="1">  1        1 0.22514753E+00 0.26472470E+04</pdfrwt>
<pdfrwt beam="2">  1       -1 0.18417685E+00 0.26472470E+04</pdfrwt>
<totfact> 0.11819717E+00</totfact>
</mgrwt>
</event>
<event>
 6    1  0.1585031E-006  0.2630537E+04  0.7818608E-02  0.8357902E-01
         -2   -1    0    0    0  501 -0.00000000000E+00  0.00000000000E+00  0.51570310133E+03  0.51570310133E+03  0.00000000000E+00 0.  1.
          2   -1    0    0  501    0  0.00000000000E+00 -0.00000000000E+00 -0.33545108154E+04  0.33545108154E+04  0.00000000000E+00 0. -1.
         23    2    1    2    0    0 -0.10162692002E+04  0.80037054152E+03 -0.17570660635E+04  0.21839277341E+04  0.94144067067E+02 0.  0.
         13    1    3    3    0    0 -0.14996672456E+03  0.15984827783E+03 -0.31912821732E+03  0.38714895001E+03  0.00000000000E+00 0. -1.
        -13    1    3    3    0    0 -0.86630247564E+03  0.64052226369E+03 -0.14379378462E+04  0.17967787841E+04  0.00000000000E+00 0.  1.
         22    1    1    2    0    0  0.10162692002E+04 -0.80037054152E+03 -0.10817416506E+04  0.16862861826E+04  0.00000000000E+00 0. -1.
<mgrwt>
<rscale>  0 0.26305373E+04</rscale>
<asrwt>0</asrwt>
<pdfrwt beam="1">  1        2 0.51607856E+00 0.26305373E+04</pdfrwt>
<pdfrwt beam="2">  1       -2 0.79338942E-01 0.26305373E+04</pdfrwt>
<totfact> 0.12724970E+00</totfact>
</mgrwt>
</event>
<event>
 6    1  0.1585031E-006  0.2129673E+04  0.7818608E-02  0.8548283E-01
         -1   -1    0    0    0  501 -0.00000000000E+00  0.00000000000E+00  0.59229106458E+03  0.59229106458E+03  0.00000000000E+00 0.  1.
          1   -1    0    0  501    0  0.00000000000E+00 -0.00000000000E+00 -0.19143919802E+04  0.19143919802E+04  0.00000000000E+00 0. -1.
         23    2    1    2    0    0  0.40946926692E+03  0.94793763591E+03 -0.95890438035E+03  0.14120769214E+04  0.90624384871E+02 0.  0.
         11    1    3    3    0    0  0.23119161484E+03  0.43757597045E+03 -0.42638462320E+03  0.65324278763E+03  0.00000000000E+00 0.  1.
        -11    1    3    3    0    0  0.17827765208E+03  0.51036166545E+03 -0.53251975715E+03  0.75883413376E+03  0.00000000000E+00 0. -1.
         22    1    1    2    0    0 -0.40946926692E+03 -0.94793763591E+03 -0.36319653527E+03  0.10946061234E+04  0.00000000000E+00 0.  1.
<mgrwt>
<rscale>  0 0.21296735E+04</rscale>
<asrwt>0</asrwt>
<pdfrwt beam="1">  1        1 0.29452184E+00 0.21296735E+04</pdfrwt>
<pdfrwt beam="2">  1       -1 0.91121703E-01 0.21296735E+04</pdfrwt>
<totfact> 0.36720664E+00</totfact>
</mgrwt>
</event>
<event>
 6    1  0.1585031E-006  0.1567926E+04  0.7818608E-02  0.8840498E-01
         -1   -1    0    0    0  501 -0.00000000000E+00  0.00000000000E+00  0.16398425149E+04  0.16398425149E+04  0.00000000000E+00 0.  1.
          1   -1    0    0  501    0  0.00000000000E+00 -0.00000000000E+00 -0.37479109402E+03  0.37479109402E+03  0.00000000000E+00 0. -1.
         23    2    1    2    0    0 -0.11707795719E+03 -0.11658637665E+03  0.16159415388E+04  0.16267889157E+04  0.88743946872E+02 0.  0.
         11    1    3    3    0    0 -0.84121306051E+02 -0.11003614504E+03  0.95478840768E+03  0.96478248884E+03  0.00000000000E+00 0. -1.
        -11    1    3    3    0    0 -0.32956651139E+02 -0.65502316117E+01  0.66115313111E+03  0.66200642683E+03  0.00000000000E+00 0.  1.
         22    1    1    2    0    0  0.11707795719E+03  0.11658637665E+03 -0.35089011788E+03  0.38784469328E+03  0.00000000000E+00 0. -1.
<mgrwt>
<rscale>  0 0.15679265E+04</rscale>
<asrwt>0</asrwt>
<pdfrwt beam="1">  1        1 0.57660169E-01 0.15679265E+04</pdfrwt>
<pdfrwt beam="2">  1       -1 0.25228346E+00 0.15679265E+04</pdfrwt>
<totfact> 0.42421628E+00</totfact>
</mgrwt>
</event>
<event>
 6    1  0.1585031E-006  0.1332611E+04  0.7818608E-02  0.9004097E-01
          1   -1    0    0  501    0  0.00000000000E+00  0.00000000000E+00  0.15843600904E+04  0.15843600904E+04  0.00000000000E+00 0. -1.
         -1   -1    0    0    0  501 -0.00000000000E+00 -0.00000000000E+00 -0.28021600288E+03  0.28021600288E+03  0.00000000000E+00 0.  1.
         23    2    1    2    0    0 -0.28333244568E+03 -0.17682007928E+03  0.14568659637E+04  0.14973342293E+04  0.89491580113E+02 0.  0.
         13    1    3    3    0    0 -0.15444189241E+03 -0.98711494083E+02  0.60201979738E+03  0.62930445226E+03  0.00000000000E+00 0. -1.
        -13    1    3    3    0    0 -0.12889055327E+03 -0.78108585192E+02  0.85484616628E+03  0.86802977703E+03  0.00000000000E+00 0.  1.
         22    1    1    2    0    0  0.28333244568E+03  0.17682007928E+03 -0.15272187615E+03  0.36724186399E+03  0.00000000000E+00 0.  1.
<mgrwt>
<rscale>  0 0.13326110E+04</rscale>
<asrwt>0</asrwt>
<pdfrwt beam="1">  1        1 0.24374770E+00 0.13326110E+04</pdfrwt>
<pdfrwt beam="2">  1       -1 0.43110155E-01 0.13326110E+04</pdfrwt>
<totfact> 0.29741042E+01</totfact>
</mgrwt>
</event>
<event>
 6    1  0.1585031E-006  0.1163896E+04  0.7818608E-02  0.9145059E-01
          1   -1    0    0  501    0  0.00000000000E+00  0.00000000000E+00  0.11191321933E+04  0.11191321933E+04  0.00000000000E+00 0. -1.
         -1   -1    0    0    0  501 -0.00000000000E+00 -0.00000000000E+00 -0.30261232765E+03  0.30261232765E+03  0.00000000000E+00 0.  1.
         23    2    1    2    0    0  0.19318877519E+03  0.13199622672E+03 -0.23526442855E+03  0.34424969114E+03  0.91725633201E+02 0.  0.
         11    1    3    3    0    0 -0.91112793368E+01  0.24641120621E+01 -0.18141588317E+02  0.20450048559E+02  0.00000000000E+00 0.  1.
        -11    1    3    3    0    0  0.20230005452E+03  0.12953211466E+03 -0.21712284023E+03  0.32379964258E+03  0.00000000000E+00 0. -1.
         22    1    1    2    0    0 -0.19318877519E+03 -0.13199622672E+03  0.10517842942E+04  0.10774948298E+04  0.00000000000E+00 0. -1.
<mgrwt>
<rscale>  0 0.11638955E+04</rscale>
<asrwt>0</asrwt>
<pdfrwt beam="1">  1        1 0.17217418E+00 0.11638955E+04</pdfrwt>
<pdfrwt beam="2">  1       -1 0.46555743E-01 0.11638955E+04</pdfrwt>
<totfact> 0.55897715E+01</totfact>
</mgrwt>
</event>
<event>
 6    1  0.1585031E-006  0.1576091E+04  0.7818608E-02  0.8835372E-01
          3   -1    0    0  501    0  0.00000000000E+00  0.00000000000E+00  0.96975025918E+03  0.96975025918E+03  0.00000000000E+00 0. -1.
         -3   -1    0    0    0  501 -0.00000000000E+00 -0.00000000000E+00 -0.64038745156E+03  0.64038745156E+03  0.00000000000E+00 0.  1.
         23    2    1    2    0    0 -0.15451341708E+03 -0.76618162033E+03  0.23001228551E+03  0.82224228771E+03  0.11076126048E+03 0.  0.
         13    1    3    3    0    0 -0.11195986425E+03 -0.32105918853E+03  0.13012609103E+03  0.36406979181E+03  0.00000000000E+00 0.  1.
        -13    1    3    3    0    0 -0.42553552829E+02 -0.44512243180E+03  0.99886194473E+02  0.45817249590E+03  0.00000000000E+00 0. -1.
         22    1    1    2    0    0  0.15451341708E+03  0.76618162033E+03  0.99350522110E+02  0.78789542303E+03  0.00000000000E+00 0. -1.
<mgrwt>
<rscale>  0 0.15760912E+04</rscale>
<asrwt>0</asrwt>
<pdfrwt beam="1">  1        3 0.14919235E+00 0.15760912E+04</pdfrwt>
<pdfrwt beam="2">  1       -3 0.98521146E-01 0.15760912E+04</pdfrwt>
<totfact> 0.74676545E-01</totfact>
</mgrwt>
</event>
<event>
 6    1  0.1585031E-006  0.1317416E+04  0.7818608E-02  0.9015867E-01
         -2   -1    0    0    0  501 -0.00000000000E+00  0.00000000000E+00  0.61049055540E+03  0.61049055540E+03  0.00000000000E+00 0.  1.
          2   -1    0    0  501    0  0.00000000000E+00 -0.00000000000E+00 -0.71073419373E+03  0.71073419373E+03  0.00000000000E+00 0. -1.
         23    2    1    2    0    0  0.36305819917E+03  0.42136100456E+03  0.29766241989E+03  0.63734933408E+03  0.90856509328E+02 0.  0.
         13    1    3    3    0    0  0.28632466457E+03  0.30557431342E+03  0.18201423227E+03  0.45660338951E+03  0.00000000000E+00 0.  1.
        -13    1    3    3    0    0  0.76733534594E+02  0.11578669115E+03  0.11564818763E+03  0.18074594457E+03  0.00000000000E+00 0. -1.
         22    1    1    2    0    0 -0.36305819917E+03 -0.42136100456E+03 -0.39790605822E+03  0.68387541505E+03  0.00000000000E+00 0. -1.
<mgrwt>
<rscale>  0 0.13174164E+04</rscale>
<asrwt>0</asrwt>
<pdfrwt beam="1">  1        2 0.10934372E+00 0.13174164E+04</pdfrwt>
<pdfrwt beam="2">  1       -2 0.93921623E-01 0.13174164E+04</pdfrwt>
<totfact> 0.37672123E+01</totfact>
</mgrwt>
</event>
<event>
 6    1  0.1585031E-006  0.2048932E+04  0.7818608E-02  0.8584079E-01
          1   -1    0    0  501    0  0.00000000000E+00  0.00000000000E+00  0.87268224062E+03  0.87268224062E+03  0.00000000000E+00 0. -1.
         -1   -1    0    0    0  501 -0.00000000000E+00 -0.00000000000E+00 -0.12026486425E+04  0.12026486425E+04  0.00000000000E+00 0.  1.
         23    2    1    2    0    0 -0.49661861807E+03  0.88984438814E+03 -0.81832969725E+02  0.10265109334E+04  0.92601157878E+02 0.  0.
         11    1    3    3    0    0 -0.77476096863E+02  0.21781619592E+03 -0.14949329863E+02  0.23166770006E+03  0.00000000000E+00 0. -1.
        -11    1    3    3    0    0 -0.41914252121E+03  0.67202819223E+03 -0.66883639863E+02  0.79484323329E+03  0.00000000000E+00 0.  1.
         22    1    1    2    0    0  0.49661861807E+03 -0.88984438814E+03 -0.24813343219E+03  0.10488199498E+04  0.00000000000E+00 0.  1.
<mgrwt>
<rscale>  0 0.20489315E+04</rscale>
<asrwt>0</asrwt>
<pdfrwt beam="1">  1        1 0.13425881E+00 0.20489315E+04</pdfrwt>
<pdfrwt beam="2">  1       -1 0.18502287E+00 0.20489315E+04</pdfrwt>
<totfact> 0.33925362E+00</totfact>
</mgrwt>
</event>
<event>
 6    1  0.1585031E-006  0.9679996E+03  0.7818608E-02  0.9344356E-01
         -2   -1    0    0    0  501 -0.00000000000E+00  0.00000000000E+00  0.38139115228E+03  0.38139115228E+03  0.00000000000E+00 0.  1.
          2   -1    0    0  501    0  0.00000000000E+00 -0.00000000000E+00 -0.61421403200E+03  0.61421403200E+03  0.00000000000E+00 0. -1.
         23    2    1    2    0    0  0.14516730418E+03 -0.45332117419E+03 -0.57950512347E+02  0.48850166621E+03  0.93284419071E+02 0.  0.
         13    1    3    3    0    0  0.59316296818E+02 -0.23325678347E+03  0.15358185122E+02  0.24117011413E+03  0.00000000000E+00 0. -1.
        -13    1    3    3    0    0  0.85851007367E+02 -0.22006439072E+03 -0.73308697469E+02  0.24733155208E+03  0.00000000000E+00 0.  1.
         22    1    1    2    0    0 -0.14516730418E+03  0.45332117419E+03 -0.17487236736E+03  0.50710351807E+03  0.00000000000E+00 0.  1.
<mgrwt>
<rscale>  0 0.96799958E+03</rscale>
<asrwt>0</asrwt>
<pdfrwt beam="1">  1        2 0.94494467E-01 0.96799958E+03</pdfrwt>
<pdfrwt beam="2">  1       -2 0.58675562E-01 0.96799958E+03</pdfrwt>
<totfact> 0.13095069E+02</totfact>
</mgrwt>
</event>
<event>
 6    1  0.1585031E-006  0.1767064E+04  0.7818608E-02  0.8724013E-01
         -1   -1    0    0    0  501 -0.00000000000E+00  0.00000000000E+00  0.26113138777E+03  0.26113138777E+03  0.00000000000E+00 0.  1.
          1   -1    0    0  501    0  0.00000000000E+00 -0.00000000000E+00 -0.29894115530E+04  0.29894115530E+04  0.00000000000E+00 0. -1.
         23    2    1    2    0    0 -0.54577023588E+03 -0.68774087497E+03 -0.12292224313E+04  0.15132960524E+04  0.90689002341E+02 0.  0.
         13    1    3    3    0    0 -0.24505803105E+03 -0.27535985185E+03 -0.58425668067E+03  0.69082006015E+03  0.00000000000E+00 0.  1.
        -13    1    3    3    0    0 -0.30071220483E+03 -0.41238102312E+03 -0.64496575066E+03  0.82247599228E+03  0.00000000000E+00 0. -1.
         22    1    1    2    0    0  0.54577023588E+03  0.68774087497E+03 -0.14990577339E+04  0.17372468884E+04  0.00000000000E+00 0.  1.
<mgrwt>
<rscale>  0 0.17670644E+04</rscale>
<asrwt>0</asrwt>
<pdfrwt beam="1">  1        1 0.45990948E+00 0.17670644E+04</pdfrwt>
<pdfrwt beam="2">  1       -1 0.40174059E-01 0.17670644E+04</pdfrwt>
<totfact> 0.34908755E+00</totfact>
</mgrwt>
</event>
<event>
 6    1  0.1585031E-006  0.2047787E+04  0.7818608E-02  0.8584599E-01
          2   -1    0    0  501    0  0.00000000000E+00  0.00000000000E+00  0.20101862231E+04  0.20101862231E+04  0.00000000000E+00 0. -1.
         -2   -1    0    0    0  501 -0.00000000000E+00 -0.00000000000E+00 -0.52152281686E+03  0.52152281686E+03  0.00000000000E+00 0.  1.
         23    2    1    2    0    0  0.66384021150E+03  0.39056466123E+02 -0.21339970648E+03  0.70435355357E+03  0.91461793947E+02 0.  0.
         13    1    3    3    0    0  0.49909698663E+03  0.38976750544E+02 -0.11932066360E+03  0.51464007802E+03  0.00000000000E+00 0.  1.
        -13    1    3    3    0    0  0.16474322487E+03  0.79715578795E-01 -0.94079042880E+02  0.18971347555E+03  0.00000000000E+00 0. -1.
         22    1    1    2    0    0 -0.66384021150E+03 -0.39056466123E+02  0.17020631127E+04  0.18273554864E+04  0.00000000000E+00 0. -1.
<mgrwt>
<rscale>  0 0.20477871E+04</rscale>
<asrwt>0</asrwt>
<pdfrwt beam="1">  1        2 0.30925941E+00 0.20477871E+04</pdfrwt>
<pdfrwt beam="2">  1       -2 0.80234281E-01 0.20477871E+04</pdfrwt>
<totfact> 0.83801395E+00</totfact>
</mgrwt>
</event>
<event>
 6    1  0.1585031E-006  0.3622852E+04  0.7818608E-02  0.8085277E-01
          1   -1    0    0  501    0  0.00000000000E+00  0.00000000000E+00  0.43622891736E+04  0.43622891736E+04  0.00000000000E+00 0. -1.
         -1   -1    0    0    0  501 -0.00000000000E+00 -0.00000000000E+00 -0.75218843533E+03  0.75218843533E+03  0.00000000000E+00 0.  1.
         23    2    1    2    0    0  0.12485643426E+04  0.50665351184E+03  0.35129661760E+04  0.37635350410E+04  0.87486869948E+02 0.  0.
         13    1    3    3    0    0  0.59717894867E+03  0.24159823547E+03  0.18016238151E+04  0.19133323745E+04  0.00000000000E+00 0. -1.
        -13    1    3    3    0    0  0.65138539391E+03  0.26505527637E+03  0.17113423609E+04  0.18502026665E+04  0.00000000000E+00 0.  1.
         22    1    1    2    0    0 -0.12485643426E+04 -0.50665351184E+03  0.97134562232E+02  0.13509425679E+04  0.00000000000E+00 0. -1.
<mgrwt>
<rscale>  0 0.36228516E+04</rscale>
<asrwt>0</asrwt>
<pdfrwt beam="1">  1        1 0.67112140E+00 0.36228516E+04</pdfrwt>
<pdfrwt beam="2">  1       -1 0.11572130E+00 0.36228516E+04</pdfrwt>
<totfact> 0.24079475E-02</totfact>
</mgrwt>
</event>
<event>
 6    1  0.1585031E-006  0.1651363E+04  0.7818608E-02  0.8789601E-01
         -1   -1    0    0    0  501 -0.00000000000E+00  0.00000000000E+00  0.30558801797E+03  0.30558801797E+03  0.00000000000E+00 0.  1.
          1   -1    0    0  501    0  0.00000000000E+00 -0.00000000000E+00 -0.22309447650E+04  0.22309447650E+04  0.00000000000E+00 0. -1.
         23    2    1    2    0    0 -0.45214105227E+03 -0.67406461361E+03 -0.11754985867E+04  0.14315070389E+04  0.92848481905E+02 0.  0.
         13    1    3    3    0    0 -0.16048598131E+03 -0.18797500712E+03 -0.41416756046E+03  0.48231226569E+03  0.00000000000E+00 0.  1.
        -13    1    3    3    0    0 -0.29165507097E+03 -0.48608960649E+03 -0.76133102622E+03  0.94919477319E+03  0.00000000000E+00 0. -1.
         22    1    1    2    0    0  0.45214105227E+03  0.67406461361E+03 -0.74985816038E+03  0.11050257441E+04  0.00000000000E+00 0.  1.
<mgrwt>
<rscale>  0 0.16513631E+04</rscale>
<asrwt>0</asrwt>
<pdfrwt beam="1">  1        1 0.34322227E+00 0.16513631E+04</pdfrwt>
<pdfrwt beam="2">  1       -1 0.47013542E-01 0.16513631E+04</pdfrwt>
<totfact> 0.89516731E+00</totfact>
</mgrwt>
</event>
<event>
 6    1  0.1585031E-006  0.2415536E+03  0.7818608E-02  0.1118762E+00
         -2   -1    0    0    0  501 -0.00000000000E+00  0.00000000000E+00  0.50245086146E+02  0.50245086146E+02  0.00000000000E+00 0.  1.
          2   -1    0    0  501    0  0.00000000000E+00 -0.00000000000E+00 -0.29031755718E+03  0.29031755718E+03  0.00000000000E+00 0. -1.
         23    2    1    2    0    0  0.54634171324E+02  0.68523989920E+01 -0.18093687968E+02  0.11185665700E+03  0.95669651006E+02 0.  0.
         13    1    3    3    0    0  0.53287959307E+02  0.46491298891E+02 -0.12032783019E+02  0.71734478090E+02  0.00000000000E+00 0. -1.
        -13    1    3    3    0    0  0.13462120168E+01 -0.39638899899E+02 -0.60609049492E+01  0.40122178914E+02  0.00000000000E+00 0.  1.
         22    1    1    2    0    0 -0.54634171324E+02 -0.68523989920E+01 -0.22197878307E+03  0.22870598633E+03  0.00000000000E+00 0. -1.
<mgrwt>
<rscale>  0 0.24155356E+03</rscale>
<asrwt>0</asrwt>
<pdfrwt beam="1">  1        2 0.44664239E-01 0.24155356E+03</pdfrwt>
<pdfrwt beam="2">  1       -2 0.77300133E-02 0.24155356E+03</pdfrwt>
<totfact> 0.11121361E+04</totfact>
</mgrwt>
</event>
<event>
 6    1  0.1585031E-006  0.1514902E+04  0.7818608E-02  0.8874603E-01
          2   -1    0    0  501    0  0.00000000000E+00  0.00000000000E+00  0.45135649556E+03  0.45135649556E+03  0.00000000000E+00 0.  1.
         -2   -1    0    0    0  501 -0.00000000000E+00 -0.00000000000E+00 -0.12711285409E+04  0.12711285409E+04  0.00000000000E+00 0. -1.
         23    2    1    2    0    0  0.73999411684E+02 -0.23489383997E+03  0.39977612988E+03  0.47831913888E+03  0.91198769792E+02 0.  0.
         13    1    3    3    0    0  0.47223189362E+02 -0.66377188297E+02  0.19778721424E+03  0.21390592058E+03  0.00000000000E+00 0. -1.
        -13    1    3    3    0    0  0.26776222322E+02 -0.16851665168E+03  0.20198891564E+03  0.26441321831E+03  0.00000000000E+00 0.  1.
         22    1    1    2    0    0 -0.73999411684E+02  0.23489383997E+03 -0.12195481752E+04  0.12441658976E+04  0.00000000000E+00 0. -1.
<mgrwt>
<rscale>  0 0.15149021E+04</rscale>
<asrwt>0</asrwt>
<pdfrwt beam="1">  1        2 0.69439461E-01 0.15149021E+04</pdfrwt>
<pdfrwt beam="2">  1       -2 0.19555824E+00 0.15149021E+04</pdfrwt>
<totfact> 0.95083079E+00</totfact>
</mgrwt>
</event>
<event>
 6    1  0.1585031E-006  0.1748274E+04  0.7818608E-02  0.8734301E-01
          1   -1    0    0  501    0  0.00000000000E+00  0.00000000000E+00  0.10541423140E+04  0.10541423140E+04  0.00000000000E+00 0. -1.
         -1   -1    0    0    0  501 -0.00000000000E+00 -0.00000000000E+00 -0.72486955908E+03  0.72486955908E+03  0.00000000000E+00 0.  1.
         23    2    1    2    0    0 -0.76540617993E+03 -0.12858306817E+03  0.56998390725E+03  0.96640982742E+03  0.81768418726E+02 0.  0.
         13    1    3    3    0    0 -0.32306290200E+03 -0.76183967254E+02  0.28604371147E+03  0.43817193017E+03  0.00000000000E+00 0.  1.
        -13    1    3    3    0    0 -0.44234327793E+03 -0.52399100911E+02  0.28394019578E+03  0.52823789725E+03  0.00000000000E+00 0. -1.
         22    1    1    2    0    0  0.76540617993E+03  0.12858306817E+03 -0.24071115237E+03  0.81260204564E+03  0.00000000000E+00 0.  1.
<mgrwt>
<rscale>  0 0.17482742E+04</rscale>
<asrwt>0</asrwt>
<pdfrwt beam="1">  1        1 0.16217574E+00 0.17482742E+04</pdfrwt>
<pdfrwt beam="2">  1       -1 0.11151839E+00 0.17482742E+04</pdfrwt>
<totfact> 0.96206724E+00</totfact>
</mgrwt>
</event>
<event>
 6    1  0.1585031E-006  0.2746629E+04  0.7818608E-02  0.8320032E-01
          2   -1    0    0  501    0  0.00000000000E+00  0.00000000000E+00  0.15854776053E+04  0.15854776053E+04  0.00000000000E+00 0. -1.
         -2   -1    0    0    0  501 -0.00000000000E+00 -0.00000000000E+00 -0.11895423557E+04  0.11895423557E+04  0.00000000000E+00 0.  1.
         23    2    1    2    0    0  0.51090442618E+03  0.10157366493E+03 -0.10839940179E+04  0.12060932008E+04  0.90979316357E+02 0.  0.
         13    1    3    3    0    0  0.31307707299E+03  0.52657337671E+02 -0.75589715671E+03  0.81986008585E+03  0.00000000000E+00 0. -1.
        -13    1    3    3    0    0  0.19782735319E+03  0.48916327263E+02 -0.32809686123E+03  0.38623311496E+03  0.00000000000E+00 0.  1.
         22    1    1    2    0    0 -0.51090442618E+03 -0.10157366493E+03  0.14799292676E+04  0.15689267603E+04  0.00000000000E+00 0. -1.
<mgrwt>
<rscale>  0 0.27466290E+04</rscale>
<asrwt>0</asrwt>
<pdfrwt beam="1">  1        2 0.24391963E+00 0.27466290E+04</pdfrwt>
<pdfrwt beam="2">  1       -2 0.18300652E+00 0.27466290E+04</pdfrwt>
<totfact> 0.17171581E+00</totfact>
</mgrwt>
</event>
<event>
 6    1  0.1585031E-006  0.5535954E+04  0.7818608E-02  0.7750761E-01
          2   -1    0    0  501    0  0.00000000000E+00  0.00000000000E+00  0.28637457817E+04  0.28637457817E+04  0.00000000000E+00 0.  1.
         -2   -1    0    0    0  501 -0.00000000000E+00 -0.00000000000E+00 -0.26754112254E+04  0.26754112254E+04  0.00000000000E+00 0. -1.
         23    2    1    2    0    0 -0.50295888609E+03 -0.12362869777E+03  0.28142395164E+04  0.28626614334E+04  0.81453856192E+02 0.  0.
         11    1    3    3    0    0 -0.28055495338E+03 -0.49158395885E+02  0.13459680983E+04  0.13757753273E+04  0.00000000000E+00 0.  1.
        -11    1    3    3    0    0 -0.22240393271E+03 -0.74470301887E+02  0.14682714181E+04  0.14868861061E+04  0.00000000000E+00 0. -1.
         22    1    1    2    0    0  0.50295888609E+03  0.12362869777E+03 -0.26259049601E+04  0.26764955736E+04  0.00000000000E+00 0. -1.
<mgrwt>
<rscale>  0 0.55359543E+04</rscale>
<asrwt>0</asrwt>
<pdfrwt beam="1">  1        2 0.44057627E+00 0.55359543E+04</pdfrwt>
<pdfrwt beam="2">  1       -2 0.41160173E+00 0.55359543E+04</pdfrwt>
<totfact> 0.92038010E-03</totfact>
</mgrwt>
</event>
<event>
 6    1  0.1585031E-006  0.2627056E+04  0.7818608E-02  0.8359069E-01
         -1   -1    0    0    0  501 -0.00000000000E+00  0.00000000000E+00  0.98490800553E+03  0.98490800553E+03  0.00000000000E+00 0.  1.
          1   -1    0    0  501    0  0.00000000000E+00 -0.00000000000E+00 -0.17517940664E+04  0.17517940664E+04  0.00000000000E+00 0. -1.
         23    2    1    2    0    0  0.46906404025E+03  0.10185995951E+04  0.32540202824E+03  0.11712438391E+04  0.91429983067E+02 0.  0.
         11    1    3    3    0    0  0.14496975367E+03  0.24697673668E+03  0.11234331629E+03  0.30762762987E+03  0.00000000000E+00 0. -1.
        -11    1    3    3    0    0  0.32409428657E+03  0.77162285840E+03  0.21305871195E+03  0.86361620928E+03  0.00000000000E+00 0.  1.
         22    1    1    2    0    0 -0.46906404025E+03 -0.10185995951E+04 -0.10922880891E+04  0.15654582328E+04  0.00000000000E+00 0. -1.
<mgrwt>
<rscale>  0 0.26270561E+04</rscale>
<asrwt>0</asrwt>
<pdfrwt beam="1">  1        1 0.26950678E+00 0.26270561E+04</pdfrwt>
<pdfrwt beam="2">  1       -1 0.15152431E+00 0.26270561E+04</pdfrwt>
<totfact> 0.13106092E+00</totfact>
</mgrwt>
</event>
<event>
 6    1  0.1585031E-006  0.2990698E+04  0.7818608E-02  0.8246392E-01
         -1   -1    0    0    0  501 -0.00000000000E+00  0.00000000000E+00  0.22915961578E+04  0.22915961578E+04  0.00000000000E+00 0.  1.
          1   -1    0    0  501    0  0.00000000000E+00 -0.00000000000E+00 -0.97576890085E+03  0.97576890085E+03  0.00000000000E+00 0. -1.
         23    2    1    2    0    0 -0.14906246150E+04 -0.84342427648E+02  0.59742932847E+03  0.16105093101E+04  0.87994586723E+02 0.  0.
         11    1    3    3    0    0 -0.40883361824E+03 -0.61026500697E+02  0.17678531643E+03  0.44958003659E+03  0.00000000000E+00 0.  1.
        -11    1    3    3    0    0 -0.10817909968E+04 -0.23315926951E+02  0.42064401205E+03  0.11609292735E+04  0.00000000000E+00 0. -1.
         22    1    1    2    0    0  0.14906246150E+04  0.84342427648E+02  0.71839792844E+03  0.16568557486E+04  0.00000000000E+00 0.  1.
<mgrwt>
<rscale>  0 0.29906978E+04</rscale>
<asrwt>0</asrwt>
<pdfrwt beam="1">  1        1 0.15011829E+00 0.29906978E+04</pdfrwt>
<pdfrwt beam="2">  1       -1 0.35255326E+00 0.29906978E+04</pdfrwt>
<totfact> 0.20116599E-01</totfact>
</mgrwt>
</event>
<event>
 6    1  0.1585031E-006  0.1306696E+04  0.7818608E-02  0.9024272E-01
         -2   -1    0    0    0  501 -0.00000000000E+00  0.00000000000E+00  0.17860143365E+03  0.17860143365E+03  0.00000000000E+00 0.  1.
          2   -1    0    0  501    0  0.00000000000E+00 -0.00000000000E+00 -0.23900332743E+04  0.23900332743E+04  0.00000000000E+00 0. -1.
         23    2    1    2    0    0 -0.29086353448E+03 -0.13268587642E+03 -0.22238816662E+04  0.22486938765E+04  0.93634114942E+02 0.  0.
         13    1    3    3    0    0 -0.23850082728E+03 -0.12594140267E+03 -0.15991221645E+04  0.16217076120E+04  0.00000000000E+00 0.  1.
        -13    1    3    3    0    0 -0.52362707193E+02 -0.67444737477E+01 -0.62475950165E+03  0.62698626454E+03  0.00000000000E+00 0. -1.
         22    1    1    2    0    0  0.29086353448E+03  0.13268587642E+03  0.12449825514E+02  0.31994083148E+03  0.00000000000E+00 0.  1.
<mgrwt>
<rscale>  0 0.13066956E+04</rscale>
<asrwt>0</asrwt>
<pdfrwt beam="1">  1        2 0.36769744E+00 0.13066956E+04</pdfrwt>
<pdfrwt beam="2">  1       -2 0.27477143E-01 0.13066956E+04</pdfrwt>
<totfact> 0.47805310E+01</totfact>
</mgrwt>
</event>
<event>
 6    1  0.1585031E-006  0.1912648E+04  0.7818608E-02  0.8648586E-01
         -2   -1    0    0    0  501 -0.00000000000E+00  0.00000000000E+00  0.12444544829E+04  0.12444544829E+04  0.00000000000E+00 0.  1.
          2   -1    0    0  501    0  0.00000000000E+00 -0.00000000000E+00 -0.73490486021E+03  0.73490486021E+03  0.00000000000E+00 0. -1.
         23    2    1    2    0    0  0.52466205253E+03  0.67483199135E+02  0.10770151172E+04  0.12035750051E+04  0.93845504886E+02 0.  0.
         11    1    3    3    0    0  0.33768143196E+03  0.25507060418E+02  0.77686112029E+03  0.84746242385E+03  0.00000000000E+00 0.  1.
        -11    1    3    3    0    0  0.18698062057E+03  0.41976138717E+02  0.30015399692E+03  0.35611258129E+03  0.00000000000E+00 0. -1.
         22    1    1    2    0    0 -0.52466205253E+03 -0.67483199135E+02 -0.56746549453E+03  0.77578433795E+03  0.00000000000E+00 0. -1.
<mgrwt>
<rscale>  0 0.19126481E+04</rscale>
<asrwt>0</asrwt>
<pdfrwt beam="1">  1        2 0.11306229E+00 0.19126481E+04</pdfrwt>
<pdfrwt beam="2">  1       -2 0.19145454E+00 0.19126481E+04</pdfrwt>
<totfact> 0.54558940E+00</totfact>
</mgrwt>
</event>
<event>
 6    1  0.1585031E-006  0.1796010E+04  0.7818608E-02  0.8708424E-01
         -1   -1    0    0    0  501 -0.00000000000E+00  0.00000000000E+00  0.28567541027E+03  0.28567541027E+03  0.00000000000E+00 0.  1.
          1   -1    0    0  501    0  0.00000000000E+00 -0.00000000000E+00 -0.28228296254E+04  0.28228296254E+04  0.00000000000E+00 0. -1.
         23    2    1    2    0    0 -0.68458409181E+03 -0.48499155473E+03 -0.72770231229E+03  0.11140155332E+04  0.87222508131E+02 0.  0.
         11    1    3    3    0    0 -0.39165490949E+03 -0.26061328979E+03 -0.35318360582E+03  0.58826143369E+03  0.00000000000E+00 0.  1.
        -11    1    3    3    0    0 -0.29292918232E+03 -0.22437826494E+03 -0.37451870648E+03  0.52575409949E+03  0.00000000000E+00 0. -1.
         22    1    1    2    0    0  0.68458409181E+03  0.48499155473E+03 -0.18094519029E+04  0.19944895025E+04  0.00000000000E+00 0. -1.
<mgrwt>
<rscale>  0 0.17960100E+04</rscale>
<asrwt>0</asrwt>
<pdfrwt beam="1">  1        1 0.43428146E+00 0.17960100E+04</pdfrwt>
<pdfrwt beam="2">  1       -1 0.43950066E-01 0.17960100E+04</pdfrwt>
<totfact> 0.38867638E+00</totfact>
</mgrwt>
</event>
<event>
 6    1  0.1585031E-006  0.1059673E+04  0.7818608E-02  0.9245414E-01
          1   -1    0    0  501    0  0.00000000000E+00  0.00000000000E+00  0.91130268050E+03  0.91130268050E+03  0.00000000000E+00 0. -1.
         -1   -1    0    0    0  501 -0.00000000000E+00 -0.00000000000E+00 -0.30804996195E+03  0.30804996195E+03  0.00000000000E+00 0.  1.
         23    2    1    2    0    0  0.21492948911E+03  0.47947895456E+03  0.27075394361E+03  0.59754062224E+03  0.87477677647E+02 0.  0.
         13    1    3    3    0    0  0.12513613976E+03  0.37236078712E+03  0.20419639426E+03  0.44272765521E+03  0.00000000000E+00 0.  1.
        -13    1    3    3    0    0  0.89793349358E+02  0.10711816744E+03  0.66557549352E+02  0.15481296703E+03  0.00000000000E+00 0. -1.
         22    1    1    2    0    0 -0.21492948911E+03 -0.47947895456E+03  0.33249877493E+03  0.62181202022E+03  0.00000000000E+00 0. -1.
<mgrwt>
<rscale>  0 0.10596731E+04</rscale>
<asrwt>0</asrwt>
<pdfrwt beam="1">  1        1 0.14020041E+00 0.10596731E+04</pdfrwt>
<pdfrwt beam="2">  1       -1 0.47392302E-01 0.10596731E+04</pdfrwt>
<totfact> 0.79032007E+01</totfact>
</mgrwt>
</event>
<event>
 6    1  0.1585031E-006  0.2167607E+04  0.7818608E-02  0.8532033E-01
         -1   -1    0    0    0  501 -0.00000000000E+00  0.00000000000E+00  0.51457417682E+03  0.51457417682E+03  0.00000000000E+00 0.  1.
          1   -1    0    0  501    0  0.00000000000E+00 -0.00000000000E+00 -0.22827218762E+04  0.22827218762E+04  0.00000000000E+00 0. -1.
         23    2    1    2    0    0  0.85460505246E+03  0.55048060808E+03 -0.13624613282E+04  0.17027824042E+04  0.98936089533E+02 0.  0.
         13    1    3    3    0    0  0.70990440917E+03  0.47982693897E+03 -0.10924038803E+04  0.13883603276E+04  0.00000000000E+00 0.  1.
        -13    1    3    3    0    0  0.14470064329E+03  0.70653669117E+02 -0.27005744788E+03  0.31442207665E+03  0.00000000000E+00 0. -1.
         22    1    1    2    0    0 -0.85460505246E+03 -0.55048060808E+03 -0.40568637115E+03  0.10945136487E+04  0.00000000000E+00 0.  1.
<mgrwt>
<rscale>  0 0.21676067E+04</rscale>
<asrwt>0</asrwt>
<pdfrwt beam="1">  1        1 0.35118798E+00 0.21676067E+04</pdfrwt>
<pdfrwt beam="2">  1       -1 0.79165258E-01 0.21676067E+04</pdfrwt>
<totfact> 0.27891393E+00</totfact>
</mgrwt>
</event>
<event>
 6    1  0.1585031E-006  0.3050967E+04  0.7818608E-02  0.8229325E-01
         -1   -1    0    0    0  501 -0.00000000000E+00  0.00000000000E+00  0.14067269327E+04  0.14067269327E+04  0.00000000000E+00 0.  1.
          1   -1    0    0  501    0  0.00000000000E+00 -0.00000000000E+00 -0.16542659001E+04  0.16542659001E+04  0.00000000000E+00 0. -1.
         23    2    1    2    0    0  0.11292757152E+04 -0.56533056282E+03 -0.97995407019E+03  0.16010975732E+04  0.91330022814E+02 0.  0.
         11    1    3    3    0    0  0.52335118687E+03 -0.29321442195E+03 -0.41951960518E+03  0.73202995920E+03  0.00000000000E+00 0. -1.
        -11    1    3    3    0    0  0.60592452836E+03 -0.27211614087E+03 -0.56043446500E+03  0.86906761403E+03  0.00000000000E+00 0.  1.
         22    1    1    2    0    0 -0.11292757152E+04  0.56533056282E+03  0.73241510273E+03  0.14598952596E+04  0.00000000000E+00 0.  1.
<mgrwt>
<rscale>  0 0.30509673E+04</rscale>
<asrwt>0</asrwt>
<pdfrwt beam="1">  1        1 0.25450245E+00 0.30509673E+04</pdfrwt>
<pdfrwt beam="2">  1       -1 0.21641953E+00 0.30509673E+04</pdfrwt>
<totfact> 0.50486077E-01</totfact>
</mgrwt>
</event>
<event>
 6    1  0.1585031E-006  0.3129367E+04  0.7818608E-02  0.8207724E-01
         -1   -1    0    0    0  501 -0.00000000000E+00  0.00000000000E+00  0.59006676895E+03  0.59006676895E+03  0.00000000000E+00 0.  1.
          1   -1    0    0  501    0  0.00000000000E+00 -0.00000000000E+00 -0.41490813041E+04  0.41490813041E+04  0.00000000000E+00 0. -1.
         23    2    1    2    0    0 -0.14107514918E+04 -0.22350501726E+03 -0.81815377346E+03  0.16484374785E+04  0.88296426333E+02 0.  0.
         13    1    3    3    0    0 -0.80584543385E+03 -0.13174735211E+03 -0.41736915957E+03  0.91702848561E+03  0.00000000000E+00 0. -1.
        -13    1    3    3    0    0 -0.60490605799E+03 -0.91757665152E+02 -0.40078461389E+03  0.73140899286E+03  0.00000000000E+00 0.  1.
         22    1    1    2    0    0  0.14107514918E+04  0.22350501726E+03 -0.27408607617E+04  0.30907105946E+04  0.00000000000E+00 0. -1.
<mgrwt>
<rscale>  0 0.31293673E+04</rscale>
<asrwt>0</asrwt>
<pdfrwt beam="1">  1        1 0.63832016E+00 0.31293673E+04</pdfrwt>
<pdfrwt beam="2">  1       -1 0.90779508E-01 0.31293673E+04</pdfrwt>
<totfact> 0.70211619E-02</totfact>
</mgrwt>
</event>
<event>
 6    1  0.1585031E-006  0.6557340E+04  0.7818608E-02  0.7624894E-01
         -1   -1    0    0    0  501 -0.00000000000E+00  0.00000000000E+00  0.27579382594E+04  0.27579382594E+04  0.00000000000E+00 0.  1.
          1   -1    0    0  501    0  0.00000000000E+00 -0.00000000000E+00 -0.38977223623E+04  0.38977223623E+04  0.00000000000E+00 0. -1.
         23    2    1    2    0    0  0.32347164264E+03  0.17248181498E+04  0.22403013621E+04  0.28471688855E+04  0.88254836520E+02 0.  0.
         13    1    3    3    0    0  0.10224875771E+03  0.66927694543E+03  0.92339829647E+03  0.11450112891E+04  0.00000000000E+00 0. -1.
        -13    1    3    3    0    0  0.22122288493E+03  0.10555412044E+04  0.13169030657E+04  0.17021575965E+04  0.00000000000E+00 0.  1.
         22    1    1    2    0    0 -0.32347164264E+03 -0.17248181498E+04 -0.33800854650E+04  0.38084917361E+04  0.00000000000E+00 0. -1.
<mgrwt>
<rscale>  0 0.65573402E+04</rscale>
<asrwt>0</asrwt>
<pdfrwt beam="1">  1        1 0.59964959E+00 0.65573402E+04</pdfrwt>
<pdfrwt beam="2">  1       -1 0.42429820E+00 0.65573402E+04</pdfrwt>
<totfact> 0.36702909E-04</totfact>
</mgrwt>
</event>
<event>
 6    1  0.1585031E-006  0.1534375E+04  0.7818608E-02  0.8861910E-01
         -2   -1    0    0    0  501 -0.00000000000E+00  0.00000000000E+00  0.94052342458E+03  0.94052342458E+03  0.00000000000E+00 0.  1.
          2   -1    0    0  501    0  0.00000000000E+00 -0.00000000000E+00 -0.62579679202E+03  0.62579679202E+03  0.00000000000E+00 0. -1.
         23    2    1    2    0    0  0.10364865397E+03  0.39665416760E+03  0.81671711106E+03  0.91819059017E+03  0.89272326290E+02 0.  0.
         13    1    3    3    0    0  0.50661139815E+02  0.12863891061E+03  0.36467687384E+03  0.39000479834E+03  0.00000000000E+00 0. -1.
        -13    1    3    3    0    0  0.52987514158E+02  0.26801525698E+03  0.45204023722E+03  0.52818579183E+03  0.00000000000E+00 0.  1.
         22    1    1    2    0    0 -0.10364865397E+03 -0.39665416760E+03 -0.50199047850E+03  0.64812962642E+03  0.00000000000E+00 0. -1.
<mgrwt>
<rscale>  0 0.15343748E+04</rscale>
<asrwt>0</asrwt>
<pdfrwt beam="1">  1        2 0.96276429E-01 0.15343748E+04</pdfrwt>
<pdfrwt beam="2">  1       -2 0.14469591E+00 0.15343748E+04</pdfrwt>
<totfact> 0.14951418E+01</totfact>
</mgrwt>
</event>
<event>
 6    1  0.1585031E-006  0.1805414E+04  0.7818608E-02  0.8703426E-01
          2   -1    0    0  501    0  0.00000000000E+00  0.00000000000E+00  0.11282689966E+04  0.11282689966E+04  0.00000000000E+00 0. -1.
         -2   -1    0    0    0  501 -0.00000000000E+00 -0.00000000000E+00 -0.72223866745E+03  0.72223866745E+03  0.00000000000E+00 0.  1.
         23    2    1    2    0    0 -0.72254362800E+03 -0.51394002823E+03  0.36397679343E+03  0.96282971179E+03  0.91423742813E+02 0.  0.
         11    1    3    3    0    0 -0.24070042169E+02 -0.41022578748E+02  0.13870083806E+02  0.49543900957E+02  0.00000000000E+00 0. -1.
        -11    1    3    3    0    0 -0.69847358583E+03 -0.47291744948E+03  0.35010670963E+03  0.91328581083E+03  0.00000000000E+00 0.  1.
         22    1    1    2    0    0  0.72254362800E+03  0.51394002823E+03  0.42053535670E+02  0.88767795222E+03  0.00000000000E+00 0. -1.
<mgrwt>
<rscale>  0 0.18054135E+04</rscale>
<asrwt>0</asrwt>
<pdfrwt beam="1">  1        2 0.17357985E+00 0.18054135E+04</pdfrwt>
<pdfrwt beam="2">  1       -2 0.11111364E+00 0.18054135E+04</pdfrwt>
<totfact> 0.12666259E+01</totfact>
</mgrwt>
</event>
<event>
 6    1  0.1585031E-006  0.2295928E+04  0.7818608E-02  0.8479529E-01
         -1   -1    0    0    0  501 -0.00000000000E+00  0.00000000000E+00  0.14340574659E+04  0.14340574659E+04  0.00000000000E+00 0.  1.
          1   -1    0    0  501    0  0.00000000000E+00 -0.00000000000E+00 -0.91894560221E+03  0.91894560221E+03  0.00000000000E+00 0. -1.
         23    2    1    2    0    0  0.44584338711E+03 -0.13730312102E+03  0.13308894548E+04  0.14132575967E+04  0.91661446554E+02 0.  0.
         13    1    3    3    0    0  0.12922874322E+03  0.22355762485E+01  0.34494193190E+03  0.36836123881E+03  0.00000000000E+00 0. -1.
        -13    1    3    3    0    0  0.31661464390E+03 -0.13953869727E+03  0.98594752289E+03  0.10448963579E+04  0.00000000000E+00 0.  1.
         22    1    1    2    0    0 -0.44584338711E+03  0.13730312102E+03 -0.81577759112E+03  0.93974547142E+03  0.00000000000E+00 0. -1.
<mgrwt>
<rscale>  0 0.22959275E+04</rscale>
<asrwt>0</asrwt>
<pdfrwt beam="1">  1        1 0.14137625E+00 0.22959275E+04</pdfrwt>
<pdfrwt beam="2">  1       -1 0.22062423E+00 0.22959275E+04</pdfrwt>
<totfact> 0.17304187E+00</totfact>
</mgrwt>
</event>
<event>
 6    1  0.1585031E-006  0.1691849E+04  0.7818608E-02  0.8766027E-01
          1   -1    0    0  501    0  0.00000000000E+00  0.00000000000E+00  0.75825441020E+03  0.75825441020E+03  0.00000000000E+00 0. -1.
         -1   -1    0    0    0  501 -0.00000000000E+00 -0.00000000000E+00 -0.94373112749E+03  0.94373112749E+03  0.00000000000E+00 0.  1.
         23    2    1    2    0    0  0.62034473862E+02 -0.65013570485E+03  0.44299085503E+03  0.79562126208E+03  0.10123035299E+03 0.  0.
         11    1    3    3    0    0  0.25182386648E+02 -0.49249873592E+03  0.37726247276E+03  0.62089945307E+03  0.00000000000E+00 0.  1.
        -11    1    3    3    0    0  0.36852087214E+02 -0.15763696893E+03  0.65728382273E+02  0.17472180900E+03  0.00000000000E+00 0. -1.
         22    1    1    2    0    0 -0.62034473862E+02  0.65013570485E+03 -0.62846757231E+03  0.90636427561E+03  0.00000000000E+00 0.  1.
<mgrwt>
<rscale>  0 0.16918490E+04</rscale>
<asrwt>0</asrwt>
<pdfrwt beam="1">  1        1 0.11665452E+00 0.16918490E+04</pdfrwt>
<pdfrwt beam="2">  1       -1 0.14518940E+00 0.16918490E+04</pdfrwt>
<totfact> 0.87304140E+00</totfact>
</mgrwt>
</event>
<event>
 6    1  0.1585031E-006  0.2338421E+04  0.7818608E-02  0.8462925E-01
         -2   -1    0    0    0  501 -0.00000000000E+00  0.00000000000E+00  0.11419486199E+04  0.11419486199E+04  0.00000000000E+00 0. -1.
          2   -1    0    0  501    0  0.00000000000E+00 -0.00000000000E+00 -0.11971227989E+04  0.11971227989E+04  0.00000000000E+00 0.  1.
         23    2    1    2    0    0  0.53342236737E+03  0.96627095126E+03 -0.40565634451E+03  0.11810313843E+04  0.10981387662E+03 0.  0.
         11    1    3    3    0    0  0.29654900110E+03  0.56491160246E+03 -0.17816421107E+03  0.66242653536E+03  0.00000000000E+00 0.  1.
        -11    1    3    3    0    0  0.23687336627E+03  0.40135934879E+03 -0.22749213345E+03  0.51860484889E+03  0.00000000000E+00 0. -1.
         22    1    1    2    0    0 -0.53342236737E+03 -0.96627095126E+03  0.35048216555E+03  0.11580400346E+04  0.00000000000E+00 0. -1.
<mgrwt>
<rscale>  0 0.23384206E+04</rscale>
<asrwt>0</asrwt>
<pdfrwt beam="1">  1        2 0.18417274E+00 0.23384206E+04</pdfrwt>
<pdfrwt beam="2">  1       -2 0.17568440E+00 0.23384206E+04</pdfrwt>
<totfact> 0.33396247E+00</totfact>
</mgrwt>
</event>
<event>
 6    1  0.1585031E-006  0.4614237E+04  0.7818608E-02  0.7890937E-01
          1   -1    0    0  501    0  0.00000000000E+00  0.00000000000E+00  0.32219700989E+04  0.32219700989E+04  0.00000000000E+00 0. -1.
         -1   -1    0    0    0  501 -0.00000000000E+00 -0.00000000000E+00 -0.16520315784E+04  0.16520315784E+04  0.00000000000E+00 0.  1.
         23    2    1    2    0    0 -0.12305637242E+04  0.14270853781E+04 -0.61925641732E+03  0.19855013343E+04  0.88754055398E+02 0.  0.
         13    1    3    3    0    0 -0.82767394160E+03  0.99275763015E+03 -0.38743876625E+03  0.13493408255E+04  0.00000000000E+00 0.  1.
        -13    1    3    3    0    0 -0.40288978257E+03  0.43432774794E+03 -0.23181765107E+03  0.63616050874E+03  0.00000000000E+00 0. -1.
         22    1    1    2    0    0  0.12305637242E+04 -0.14270853781E+04  0.21891949378E+04  0.28885003430E+04  0.00000000000E+00 0. -1.
<mgrwt>
<rscale>  0 0.46142372E+04</rscale>
<asrwt>0</asrwt>
<pdfrwt beam="1">  1        1 0.49568771E+00 0.46142372E+04</pdfrwt>
<pdfrwt beam="2">  1       -1 0.25415871E+00 0.46142372E+04</pdfrwt>
<totfact> 0.19941308E-02</totfact>
</mgrwt>
</event>
<event>
 6    1  0.1585031E-006  0.4320838E+04  0.7818608E-02  0.7942776E-01
          2   -1    0    0  501    0  0.00000000000E+00  0.00000000000E+00  0.25868181411E+04  0.25868181411E+04  0.00000000000E+00 0. -1.
         -2   -1    0    0    0  501 -0.00000000000E+00 -0.00000000000E+00 -0.18043057310E+04  0.18043057310E+04  0.00000000000E+00 0.  1.
         23    2    1    2    0    0 -0.48974418915E+03 -0.13359131242E+04  0.20421481621E+04  0.24908092998E+04  0.96169671821E+02 0.  0.
         13    1    3    3    0    0 -0.13613621252E+03 -0.50485117499E+03  0.73840243905E+03  0.90479054993E+03  0.00000000000E+00 0. -1.
        -13    1    3    3    0    0 -0.35360797664E+03 -0.83106194920E+03  0.13037457230E+04  0.15860187499E+04  0.00000000000E+00 0.  1.
         22    1    1    2    0    0  0.48974418915E+03  0.13359131242E+04 -0.12596357520E+04  0.19003145724E+04  0.00000000000E+00 0.  1.
<mgrwt>
<rscale>  0 0.43208383E+04</rscale>
<asrwt>0</asrwt>
<pdfrwt beam="1">  1        2 0.39797202E+00 0.43208383E+04</pdfrwt>
<pdfrwt beam="2">  1       -2 0.27758550E+00 0.43208383E+04</pdfrwt>
<totfact> 0.10374810E-01</totfact>
</mgrwt>
</event>
<event>
 6    1  0.1585031E-006  0.2799347E+04  0.7818608E-02  0.8303471E-01
          2   -1    0    0  501    0  0.00000000000E+00  0.00000000000E+00  0.14417517127E+04  0.14417517127E+04  0.00000000000E+00 0.  1.
         -2   -1    0    0    0  501 -0.00000000000E+00 -0.00000000000E+00 -0.13588230329E+04  0.13588230329E+04  0.00000000000E+00 0. -1.
         23    2    1    2    0    0  0.53668639365E+03 -0.25981702785E+03  0.13067670774E+04  0.14392086683E+04  0.90245349289E+02 0.  0.
         11    1    3    3    0    0  0.34811655447E+03 -0.11966430519E+03  0.79658266631E+03  0.87752414536E+03  0.00000000000E+00 0.  1.
        -11    1    3    3    0    0  0.18856983918E+03 -0.14015272266E+03  0.51018441112E+03  0.56168452290E+03  0.00000000000E+00 0. -1.
         22    1    1    2    0    0 -0.53668639365E+03  0.25981702785E+03 -0.12238383977E+04  0.13613660774E+04  0.00000000000E+00 0. -1.
<mgrwt>
<rscale>  0 0.27993467E+04</rscale>
<asrwt>0</asrwt>
<pdfrwt beam="1">  1        2 0.22180796E+00 0.27993467E+04</pdfrwt>
<pdfrwt beam="2">  1       -2 0.20904970E+00 0.27993467E+04</pdfrwt>
<totfact> 0.13843773E+00</totfact>
</mgrwt>
</event>
<event>
 6    1  0.1585031E-006  0.1462791E+04  0.7818608E-02  0.8909580E-01
         -2   -1    0    0    0  501 -0.00000000000E+00  0.00000000000E+00  0.77692981936E+03  0.77692981936E+03  0.00000000000E+00 0.  1.
          2   -1    0    0  501    0  0.00000000000E+00 -0.00000000000E+00 -0.68853016557E+03  0.68853016557E+03  0.00000000000E+00 0. -1.
         23    2    1    2    0    0  0.10930247295E+03  0.40917562167E+03 -0.54947604205E+03  0.69978569171E+03  0.91675370586E+02 0.  0.
         13    1    3    3    0    0  0.12310950833E+03  0.36960920744E+03 -0.47493038248E+03  0.61426849624E+03  0.00000000000E+00 0. -1.
        -13    1    3    3    0    0 -0.13807035379E+02  0.39566414230E+02 -0.74545659561E+02  0.85517195466E+02  0.00000000000E+00 0.  1.
         22    1    1    2    0    0 -0.10930247295E+03 -0.40917562167E+03  0.63787569583E+03  0.76567429322E+03  0.00000000000E+00 0.  1.
<mgrwt>
<rscale>  0 0.14627913E+04</rscale>
<asrwt>0</asrwt>
<pdfrwt beam="1">  1        2 0.10592772E+00 0.14627913E+04</pdfrwt>
<pdfrwt beam="2">  1       -2 0.11952767E+00 0.14627913E+04</pdfrwt>
<totfact> 0.21733898E+01</totfact>
</mgrwt>
</event>
<event>
 6    1  0.1585031E-006  0.1649635E+04  0.7818608E-02  0.8790622E-01
         -2   -1    0    0    0  501 -0.00000000000E+00  0.00000000000E+00  0.29421867616E+03  0.29421867616E+03  0.00000000000E+00 0.  1.
          2   -1    0    0  501    0  0.00000000000E+00 -0.00000000000E+00 -0.23123076592E+04  0.23123076592E+04  0.00000000000E+00 0. -1.
         23    2    1    2    0    0  0.59043802254E+03 -0.51753518310E+03 -0.13979503066E+04  0.16060106173E+04  0.92440892973E+02 0.  0.
         11    1    3    3    0    0  0.25756381194E+03 -0.18640353235E+03 -0.49565861994E+03  0.58886574158E+03  0.00000000000E+00 0. -1.
        -11    1    3    3    0    0  0.33287421060E+03 -0.33113165075E+03 -0.90229168670E+03  0.10171448757E+04  0.00000000000E+00 0.  1.
         22    1    1    2    0    0 -0.59043802254E+03  0.51753518310E+03 -0.62013867641E+03  0.10005157181E+04  0.00000000000E+00 0. -1.
<mgrwt>
<rscale>  0 0.16496352E+04</rscale>
<asrwt>0</asrwt>
<pdfrwt beam="1">  1        2 0.35573964E+00 0.16496352E+04</pdfrwt>
<pdfrwt beam="2">  1       -2 0.45264412E-01 0.16496352E+04</pdfrwt>
<totfact> 0.19745745E+01</totfact>
</mgrwt>
</event>
<event>
 6    1  0.1585031E-006  0.6206278E+03  0.7818608E-02  0.9863511E-01
          2   -1    0    0  501    0  0.00000000000E+00  0.00000000000E+00  0.17363352947E+03  0.17363352947E+03  0.00000000000E+00 0.  1.
         -2   -1    0    0    0  501 -0.00000000000E+00 -0.00000000000E+00 -0.55458596775E+03  0.55458596775E+03  0.00000000000E+00 0. -1.
         23    2    1    2    0    0 -0.28425798050E+03 -0.59571618758E+02 -0.89412080931E+02  0.31670138438E+03  0.89184468432E+02 0.  0.
         13    1    3    3    0    0 -0.22370615473E+03 -0.43270389407E+02 -0.10678118975E+03  0.25163265438E+03  0.00000000000E+00 0.  1.
        -13    1    3    3    0    0 -0.60551825771E+02 -0.16301229351E+02  0.17369108821E+02  0.65068730000E+02  0.00000000000E+00 0. -1.
         22    1    1    2    0    0  0.28425798050E+03  0.59571618758E+02 -0.29154035735E+03  0.41151811285E+03  0.00000000000E+00 0. -1.
<mgrwt>
<rscale>  0 0.62062781E+03</rscale>
<asrwt>0</asrwt>
<pdfrwt beam="1">  1        2 0.26712851E-01 0.62062781E+03</pdfrwt>
<pdfrwt beam="2">  1       -2 0.85320918E-01 0.62062781E+03</pdfrwt>
<totfact> 0.24533120E+02</totfact>
</mgrwt>
</event>
<event>
 6    1  0.1585031E-006  0.3210081E+04  0.7818608E-02  0.8186160E-01
         -1   -1    0    0    0  501 -0.00000000000E+00  0.00000000000E+00  0.72063978066E+03  0.72063978066E+03  0.00000000000E+00 0. -1.
          1   -1    0    0  501    0  0.00000000000E+00 -0.00000000000E+00 -0.35748166623E+04  0.35748166623E+04  0.00000000000E+00 0.  1.
         23    2    1    2    0    0 -0.83092878072E+03 -0.13688550116E+04 -0.15457219213E+04  0.22275441951E+04  0.92142290418E+02 0.  0.
         13    1    3    3    0    0 -0.60655720783E+03 -0.10411520570E+04 -0.12079218002E+04  0.17061606980E+04  0.00000000000E+00 0.  1.
        -13    1    3    3    0    0 -0.22437157289E+03 -0.32770295464E+03 -0.33780012114E+03  0.52138349710E+03  0.00000000000E+00 0. -1.
         22    1    1    2    0    0  0.83092878072E+03  0.13688550116E+04 -0.13084549603E+04  0.20679122478E+04  0.00000000000E+00 0. -1.
<mgrwt>
<rscale>  0 0.32100811E+04</rscale>
<asrwt>0</asrwt>
<pdfrwt beam="1">  1        1 0.54997180E+00 0.32100811E+04</pdfrwt>
<pdfrwt beam="2">  1       -1 0.11086766E+00 0.32100811E+04</pdfrwt>
<totfact> 0.13627766E-01</totfact>
</mgrwt>
</event>
<event>
 6    1  0.1585031E-006  0.3754547E+04  0.7818608E-02  0.8055980E-01
         -2   -1    0    0    0  501 -0.00000000000E+00  0.00000000000E+00  0.17216171481E+04  0.17216171481E+04  0.00000000000E+00 0.  1.
          2   -1    0    0  501    0  0.00000000000E+00 -0.00000000000E+00 -0.20470032085E+04  0.20470032085E+04  0.00000000000E+00 0. -1.
         23    2    1    2    0    0  0.34306548982E+03 -0.14063561117E+04  0.10351946062E+04  0.17819872265E+04  0.91209425738E+02 0.  0.
         11    1    3    3    0    0  0.15545463030E+03 -0.45610665791E+03  0.34245831077E+03  0.59116589895E+03  0.00000000000E+00 0. -1.
        -11    1    3    3    0    0  0.18761085952E+03 -0.95024945381E+03  0.69273629542E+03  0.11908213275E+04  0.00000000000E+00 0.  1.
         22    1    1    2    0    0 -0.34306548982E+03  0.14063561117E+04 -0.13605806666E+04  0.19866331301E+04  0.00000000000E+00 0. -1.
<mgrwt>
<rscale>  0 0.37545470E+04</rscale>
<asrwt>0</asrwt>
<pdfrwt beam="1">  1        2 0.31492357E+00 0.37545470E+04</pdfrwt>
<pdfrwt beam="2">  1       -2 0.26486418E+00 0.37545470E+04</pdfrwt>
<totfact> 0.26376737E-01</totfact>
</mgrwt>
</event>
<event>
 6    1  0.1585031E-006  0.1522543E+04  0.7818608E-02  0.8869599E-01
         -2   -1    0    0    0  501 -0.00000000000E+00  0.00000000000E+00  0.87703395132E+03  0.87703395132E+03  0.00000000000E+00 0.  1.
          2   -1    0    0  501    0  0.00000000000E+00 -0.00000000000E+00 -0.66078895110E+03  0.66078895110E+03  0.00000000000E+00 0. -1.
         23    2    1    2    0    0  0.49878843982E+03  0.53284320474E+03  0.31397613356E+03  0.80143770230E+03  0.10492659187E+03 0.  0.
         11    1    3    3    0    0  0.29030765379E+03  0.23808522355E+03  0.14038829442E+03  0.40083909581E+03  0.00000000000E+00 0.  1.
        -11    1    3    3    0    0  0.20848078603E+03  0.29475798120E+03  0.17358783914E+03  0.40059860649E+03  0.00000000000E+00 0. -1.
         22    1    1    2    0    0 -0.49878843982E+03 -0.53284320474E+03 -0.97731133343E+02  0.73638520012E+03  0.00000000000E+00 0. -1.
<mgrwt>
<rscale>  0 0.15225431E+04</rscale>
<asrwt>0</asrwt>
<pdfrwt beam="1">  1        2 0.10165984E+00 0.15225431E+04</pdfrwt>
<pdfrwt beam="2">  1       -2 0.13492830E+00 0.15225431E+04</pdfrwt>
<totfact> 0.16778986E+01</totfact>
</mgrwt>
</event>
<event>
 6    1  0.1585031E-006  0.5476397E+03  0.7818608E-02  0.1002042E+00
         -2   -1    0    0    0  501 -0.00000000000E+00  0.00000000000E+00  0.14530068605E+03  0.14530068605E+03  0.00000000000E+00 0. -1.
          2   -1    0    0  501    0  0.00000000000E+00 -0.00000000000E+00 -0.51601483462E+03  0.51601483462E+03  0.00000000000E+00 0.  1.
         23    2    1    2    0    0  0.19483453584E+03  0.21876407221E+02 -0.40780388000E+03  0.46177925397E+03  0.92179180436E+02 0.  0.
         13    1    3    3    0    0  0.18885050033E+03 -0.95602590021E-01 -0.38833072677E+03  0.43181625023E+03  0.00000000000E+00 0. -1.
        -13    1    3    3    0    0  0.59840355162E+01  0.21972009811E+02 -0.19473153229E+02  0.29963003736E+02  0.00000000000E+00 0.  1.
         22    1    1    2    0    0 -0.19483453584E+03 -0.21876407221E+02  0.37089731430E+02  0.19953626670E+03  0.00000000000E+00 0. -1.
<mgrwt>
<rscale>  0 0.54763970E+03</rscale>
<asrwt>0</asrwt>
<pdfrwt beam="1">  1        2 0.79386899E-01 0.54763970E+03</pdfrwt>
<pdfrwt beam="2">  1       -2 0.22353951E-01 0.54763970E+03</pdfrwt>
<totfact> 0.10429156E+03</totfact>
</mgrwt>
</event>
<event>
 6    1  0.1585031E-006  0.3357042E+04  0.7818608E-02  0.8148531E-01
         -1   -1    0    0    0  501 -0.00000000000E+00  0.00000000000E+00  0.15721106508E+04  0.15721106508E+04  0.00000000000E+00 0.  1.
          1   -1    0    0  501    0  0.00000000000E+00 -0.00000000000E+00 -0.17921343074E+04  0.17921343074E+04  0.00000000000E+00 0. -1.
         23    2    1    2    0    0  0.27590698108E+03 -0.16476050231E+04 -0.26066276428E+03  0.16932038123E+04  0.90923587462E+02 0.  0.
         11    1    3    3    0    0  0.14775295106E+03 -0.88308452452E+03 -0.18557047585E+03  0.91438810879E+03  0.00000000000E+00 0. -1.
        -11    1    3    3    0    0  0.12815403002E+03 -0.76452049860E+03 -0.75092288437E+02  0.77881570347E+03  0.00000000000E+00 0.  1.
         22    1    1    2    0    0 -0.27590698108E+03  0.16476050231E+04  0.40639107621E+02  0.16710411460E+04  0.00000000000E+00 0.  1.
<mgrwt>
<rscale>  0 0.33570424E+04</rscale>
<asrwt>0</asrwt>
<pdfrwt beam="1">  1        1 0.27571297E+00 0.33570424E+04</pdfrwt>
<pdfrwt beam="2">  1       -1 0.24186318E+00 0.33570424E+04</pdfrwt>
<totfact> 0.26843506E-01</totfact>
</mgrwt>
</event>
<event>
 6    1  0.1585031E-006  0.1202338E+04  0.7818608E-02  0.9110813E-01
         -1   -1    0    0    0  501 -0.00000000000E+00  0.00000000000E+00  0.53204381420E+03  0.53204381420E+03  0.00000000000E+00 0.  1.
          1   -1    0    0  501    0  0.00000000000E+00 -0.00000000000E+00 -0.67927520731E+03  0.67927520731E+03  0.00000000000E+00 0. -1.
         23    2    1    2    0    0 -0.47715209451E+03 -0.41401352343E+02 -0.43443311570E+03  0.65286309422E+03  0.90054952685E+02 0.  0.
         13    1    3    3    0    0 -0.82527512253E+02  0.17492988676E+02 -0.46323248840E+02  0.96242601350E+02  0.00000000000E+00 0.  1.
        -13    1    3    3    0    0 -0.39462458226E+03 -0.58894341020E+02 -0.38810986686E+03  0.55662049287E+03  0.00000000000E+00 0. -1.
         22    1    1    2    0    0  0.47715209451E+03  0.41401352343E+02  0.28720172259E+03  0.55845592729E+03  0.00000000000E+00 0.  1.
<mgrwt>
<rscale>  0 0.12023380E+04</rscale>
<asrwt>0</asrwt>
<pdfrwt beam="1">  1        1 0.10450388E+00 0.12023380E+04</pdfrwt>
<pdfrwt beam="2">  1       -1 0.81852894E-01 0.12023380E+04</pdfrwt>
<totfact> 0.41930433E+01</totfact>
</mgrwt>
</event>
<event>
 6    1  0.1585031E-006  0.1034847E+04  0.7818608E-02  0.9271130E-01
         -1   -1    0    0    0  501 -0.00000000000E+00  0.00000000000E+00  0.32602006205E+03  0.32602006205E+03  0.00000000000E+00 0.  1.
          1   -1    0    0  501    0  0.00000000000E+00 -0.00000000000E+00 -0.82119758638E+03  0.82119758638E+03  0.00000000000E+00 0. -1.
         23    2    1    2    0    0  0.99385614505E+02 -0.10462805023E+03  0.29669456633E+03  0.34230402746E+03  0.91213224180E+02 0.  0.
         13    1    3    3    0    0  0.17932445883E+02  0.16137625294E+02  0.55800264152E+02  0.60791981748E+02  0.00000000000E+00 0. -1.
        -13    1    3    3    0    0  0.81453168623E+02 -0.12076567552E+03  0.24089430218E+03  0.28151204572E+03  0.00000000000E+00 0.  1.
         22    1    1    2    0    0 -0.99385614505E+02  0.10462805023E+03 -0.79187209066E+03  0.80491362097E+03  0.00000000000E+00 0. -1.
<mgrwt>
<rscale>  0 0.10348466E+04</rscale>
<asrwt>0</asrwt>
<pdfrwt beam="1">  1        1 0.12633809E+00 0.10348466E+04</pdfrwt>
<pdfrwt beam="2">  1       -1 0.50156933E-01 0.10348466E+04</pdfrwt>
<totfact> 0.84578749E+01</totfact>
</mgrwt>
</event>
<event>
 6    1  0.1585031E-006  0.1883124E+04  0.7818608E-02  0.8663303E-01
          2   -1    0    0  501    0  0.00000000000E+00  0.00000000000E+00  0.10973871738E+04  0.10973871738E+04  0.00000000000E+00 0.  1.
         -2   -1    0    0    0  501 -0.00000000000E+00 -0.00000000000E+00 -0.80786345333E+03  0.80786345333E+03  0.00000000000E+00 0. -1.
         23    2    1    2    0    0  0.34521509138E+03 -0.57394209819E+03 -0.52104016851E+03  0.85377699002E+03  0.94176961580E+02 0.  0.
         13    1    3    3    0    0  0.13864365120E+03 -0.25885399573E+03 -0.28481614519E+03  0.40908151961E+03  0.00000000000E+00 0.  1.
        -13    1    3    3    0    0  0.20657144019E+03 -0.31508810246E+03 -0.23622402332E+03  0.44469547042E+03  0.00000000000E+00 0. -1.
         22    1    1    2    0    0 -0.34521509138E+03  0.57394209819E+03  0.81056388893E+03  0.10514736371E+04  0.00000000000E+00 0.  1.
<mgrwt>
<rscale>  0 0.18831240E+04</rscale>
<asrwt>0</asrwt>
<pdfrwt beam="1">  1        2 0.16882880E+00 0.18831240E+04</pdfrwt>
<pdfrwt beam="2">  1       -2 0.12428669E+00 0.18831240E+04</pdfrwt>
<totfact> 0.99764506E+00</totfact>
</mgrwt>
</event>
<event>
 6    1  0.1585031E-006  0.1176927E+04  0.7818608E-02  0.9133296E-01
         -2   -1    0    0    0  501 -0.00000000000E+00  0.00000000000E+00  0.10322643318E+04  0.10322643318E+04  0.00000000000E+00 0.  1.
          2   -1    0    0  501    0  0.00000000000E+00 -0.00000000000E+00 -0.33546544876E+03  0.33546544876E+03  0.00000000000E+00 0. -1.
         23    2    1    2    0    0  0.20956845832E+03  0.52469669758E+03  0.17562864226E+03  0.59906601592E+03  0.93856849930E+02 0.  0.
         13    1    3    3    0    0  0.81772716259E+02  0.24362400848E+03  0.12646934940E+03  0.28641566118E+03  0.00000000000E+00 0. -1.
        -13    1    3    3    0    0  0.12779574206E+03  0.28107268909E+03  0.49159292863E+02  0.31265035474E+03  0.00000000000E+00 0.  1.
         22    1    1    2    0    0 -0.20956845832E+03 -0.52469669758E+03  0.52117024073E+03  0.76866376459E+03  0.00000000000E+00 0.  1.
<mgrwt>
<rscale>  0 0.11769265E+04</rscale>
<asrwt>0</asrwt>
<pdfrwt beam="1">  1        2 0.51610070E-01 0.11769265E+04</pdfrwt>
<pdfrwt beam="2">  1       -2 0.15880990E+00 0.11769265E+04</pdfrwt>
<totfact> 0.24588054E+01</totfact>
</mgrwt>
</event>
<event>
 6    1  0.1585031E-006  0.1159724E+04  0.7818608E-02  0.9148860E-01
         -2   -1    0    0    0  501 -0.00000000000E+00  0.00000000000E+00  0.40374150693E+03  0.40374150693E+03  0.00000000000E+00 0.  1.
          2   -1    0    0  501    0  0.00000000000E+00 -0.00000000000E+00 -0.83280964727E+03  0.83280964727E+03  0.00000000000E+00 0. -1.
         23    2    1    2    0    0  0.35800868426E+03  0.18277027735E+03 -0.65620627364E+03  0.77485111751E+03  0.90622229381E+02 0.  0.
         13    1    3    3    0    0  0.25355337603E+03  0.12258190776E+03 -0.53086175442E+03  0.60094079651E+03  0.00000000000E+00 0.  1.
        -13    1    3    3    0    0  0.10445530823E+03  0.60188369598E+02 -0.12534451921E+03  0.17391032100E+03  0.00000000000E+00 0. -1.
         22    1    1    2    0    0 -0.35800868426E+03 -0.18277027735E+03  0.22713813329E+03  0.46170003669E+03  0.00000000000E+00 0.  1.
<mgrwt>
<rscale>  0 0.11597238E+04</rscale>
<asrwt>0</asrwt>
<pdfrwt beam="1">  1        2 0.12812456E+00 0.11597238E+04</pdfrwt>
<pdfrwt beam="2">  1       -2 0.62114078E-01 0.11597238E+04</pdfrwt>
<totfact> 0.77708902E+01</totfact>
</mgrwt>
</event>
<event>
 6    1  0.1585031E-006  0.3985634E+04  0.7818608E-02  0.8007451E-01
         -2   -1    0    0    0  501 -0.00000000000E+00  0.00000000000E+00  0.26554956247E+04  0.26554956247E+04  0.00000000000E+00 0.  1.
          2   -1    0    0  501    0  0.00000000000E+00 -0.00000000000E+00 -0.14955100807E+04  0.14955100807E+04  0.00000000000E+00 0. -1.
         23    2    1    2    0    0 -0.62322467715E+03 -0.12712878183E+04  0.20393568386E+04  0.24843096957E+04  0.90755901276E+02 0.  0.
         13    1    3    3    0    0 -0.47570296542E+03 -0.10197844005E+04  0.15663207490E+04  0.19286301417E+04  0.00000000000E+00 0.  1.
        -13    1    3    3    0    0 -0.14752171173E+03 -0.25150341785E+03  0.47303608965E+03  0.55567955400E+03  0.00000000000E+00 0. -1.
         22    1    1    2    0    0  0.62322467715E+03  0.12712878183E+04 -0.87937129453E+03  0.16666960097E+04  0.00000000000E+00 0. -1.
<mgrwt>
<rscale>  0 0.39856344E+04</rscale>
<asrwt>0</asrwt>
<pdfrwt beam="1">  1        2 0.23007847E+00 0.39856344E+04</pdfrwt>
<pdfrwt beam="2">  1       -2 0.40853779E+00 0.39856344E+04</pdfrwt>
<totfact> 0.65764545E-02</totfact>
</mgrwt>
</event>
<event>
 6    1  0.1585031E-006  0.1764415E+04  0.7818608E-02  0.8725456E-01
          1   -1    0    0  501    0  0.00000000000E+00  0.00000000000E+00  0.11682847153E+04  0.11682847153E+04  0.00000000000E+00 0. -1.
         -1   -1    0    0    0  501 -0.00000000000E+00 -0.00000000000E+00 -0.66618163421E+03  0.66618163421E+03  0.00000000000E+00 0.  1.
         23    2    1    2    0    0 -0.38106143874E+03  0.66037746389E+03 -0.20503361542E+03  0.79458725918E+03  0.89576303226E+02 0.  0.
         11    1    3    3    0    0 -0.16156425635E+03  0.21096074504E+03 -0.45367558270E+02  0.26956568814E+03  0.00000000000E+00 0. -1.
        -11    1    3    3    0    0 -0.21949718239E+03  0.44941671886E+03 -0.15966605715E+03  0.52502157105E+03  0.00000000000E+00 0.  1.
         22    1    1    2    0    0  0.38106143874E+03 -0.66037746389E+03  0.70713669646E+03  0.10398790903E+04  0.00000000000E+00 0. -1.
<mgrwt>
<rscale>  0 0.17644147E+04</rscale>
<asrwt>0</asrwt>
<pdfrwt beam="1">  1        1 0.17973611E+00 0.17644147E+04</pdfrwt>
<pdfrwt beam="2">  1       -1 0.10248948E+00 0.17644147E+04</pdfrwt>
<totfact> 0.96121389E+00</totfact>
</mgrwt>
</event>
<event>
 6    1  0.1585031E-006  0.1191629E+04  0.7818608E-02  0.9120215E-01
         -2   -1    0    0    0  501 -0.00000000000E+00  0.00000000000E+00  0.54243959452E+03  0.54243959452E+03  0.00000000000E+00 0.  1.
          2   -1    0    0  501    0  0.00000000000E+00 -0.00000000000E+00 -0.65444177204E+03  0.65444177204E+03  0.00000000000E+00 0. -1.
         23    2    1    2    0    0 -0.34478092586E+03  0.62813177782E+02  0.42325099631E+03  0.55710379409E+03  0.91672511525E+02 0.  0.
         11    1    3    3    0    0 -0.19292411061E+03  0.63458636821E+02  0.29602050414E+03  0.35899143432E+03  0.00000000000E+00 0.  1.
        -11    1    3    3    0    0 -0.15185681525E+03 -0.64545903926E+00  0.12723049217E+03  0.19811235977E+03  0.00000000000E+00 0. -1.
         22    1    1    2    0    0  0.34478092586E+03 -0.62813177782E+02 -0.53525317383E+03  0.63977757247E+03  0.00000000000E+00 0. -1.
<mgrwt>
<rscale>  0 0.11916294E+04</rscale>
<asrwt>0</asrwt>
<pdfrwt beam="1">  1        2 0.10068335E+00 0.11916294E+04</pdfrwt>
<pdfrwt beam="2">  1       -2 0.83452246E-01 0.11916294E+04</pdfrwt>
<totfact> 0.55328399E+01</totfact>
</mgrwt>
</event>
<event>
 6    1  0.1585031E-006  0.5633856E+04  0.7818608E-02  0.7737534E-01
          2   -1    0    0  501    0  0.00000000000E+00  0.00000000000E+00  0.34497065652E+04  0.34497065652E+04  0.00000000000E+00 0. -1.
         -2   -1    0    0    0  501 -0.00000000000E+00 -0.00000000000E+00 -0.23002196183E+04  0.23002196183E+04  0.00000000000E+00 0.  1.
         23    2    1    2    0    0  0.25772417660E+04 -0.46551505342E+03 -0.48185150993E+03  0.26644530356E+04  0.90827946885E+02 0.  0.
         13    1    3    3    0    0  0.21276456195E+04 -0.36237167015E+03 -0.42438177895E+03  0.21996111029E+04  0.00000000000E+00 0. -1.
        -13    1    3    3    0    0  0.44959614643E+03 -0.10314338327E+03 -0.57469730973E+02  0.46484193268E+03  0.00000000000E+00 0.  1.
         22    1    1    2    0    0 -0.25772417660E+04  0.46551505342E+03  0.16313384568E+04  0.30854731478E+04  0.00000000000E+00 0. -1.
<mgrwt>
<rscale>  0 0.56338558E+04</rscale>
<asrwt>0</asrwt>
<pdfrwt beam="1">  1        2 0.53072409E+00 0.56338558E+04</pdfrwt>
<pdfrwt beam="2">  1       -2 0.35387994E+00 0.56338558E+04</pdfrwt>
<totfact> 0.89578571E-03</totfact>
</mgrwt>
</event>
<event>
 6    1  0.1585031E-006  0.1427362E+04  0.7818608E-02  0.8934247E-01
          1   -1    0    0  501    0  0.00000000000E+00  0.00000000000E+00  0.14704490859E+04  0.14704490859E+04  0.00000000000E+00 0. -1.
         -1   -1    0    0    0  501 -0.00000000000E+00 -0.00000000000E+00 -0.34638428291E+03  0.34638428291E+03  0.00000000000E+00 0.  1.
         23    2    1    2    0    0 -0.86006498364E+02 -0.58676189797E+03  0.67106096644E+02  0.60487282918E+03  0.98393437820E+02 0.  0.
         11    1    3    3    0    0 -0.83095768103E+02 -0.58503598364E+03  0.75605134820E+02  0.59572489057E+03  0.00000000000E+00 0. -1.
        -11    1    3    3    0    0 -0.29107302612E+01 -0.17259143266E+01 -0.84990381765E+01  0.91479386116E+01  0.00000000000E+00 0.  1.
         22    1    1    2    0    0  0.86006498364E+02  0.58676189797E+03  0.10569587063E+04  0.12119605396E+04  0.00000000000E+00 0. -1.
<mgrwt>
<rscale>  0 0.14273618E+04</rscale>
<asrwt>0</asrwt>
<pdfrwt beam="1">  1        1 0.22622293E+00 0.14273618E+04</pdfrwt>
<pdfrwt beam="2">  1       -1 0.53289890E-01 0.14273618E+04</pdfrwt>
<totfact> 0.23700563E+01</totfact>
</mgrwt>
</event>
<event>
 6    1  0.1585031E-006  0.1486782E+04  0.7818608E-02  0.8893290E-01
          2   -1    0    0  501    0  0.00000000000E+00  0.00000000000E+00  0.27740256912E+04  0.27740256912E+04  0.00000000000E+00 0. -1.
         -2   -1    0    0    0  501 -0.00000000000E+00 -0.00000000000E+00 -0.19921608096E+03  0.19921608096E+03  0.00000000000E+00 0.  1.
         23    2    1    2    0    0 -0.63810171029E+03  0.10589285349E+02  0.20435332934E+04  0.21428560482E+04  0.92291909670E+02 0.  0.
         13    1    3    3    0    0 -0.20427016090E+03  0.29605647548E+01  0.80497845464E+03  0.83049706562E+03  0.00000000000E+00 0. -1.
        -13    1    3    3    0    0 -0.43383154939E+03  0.76287205943E+01  0.12385548388E+04  0.13123589826E+04  0.00000000000E+00 0.  1.
         22    1    1    2    0    0  0.63810171029E+03 -0.10589285349E+02  0.53127631680E+03  0.83038572388E+03  0.00000000000E+00 0.  1.
<mgrwt>
<rscale>  0 0.14867825E+04</rscale>
<asrwt>0</asrwt>
<pdfrwt beam="1">  1        2 0.42677316E+00 0.14867825E+04</pdfrwt>
<pdfrwt beam="2">  1       -2 0.30648630E-01 0.14867825E+04</pdfrwt>
<totfact> 0.22963292E+01</totfact>
</mgrwt>
</event>
<event>
 6    1  0.1585031E-006  0.1560016E+04  0.7818608E-02  0.8845496E-01
         -2   -1    0    0    0  501 -0.00000000000E+00  0.00000000000E+00  0.10655020065E+04  0.10655020065E+04  0.00000000000E+00 0.  1.
          2   -1    0    0  501    0  0.00000000000E+00 -0.00000000000E+00 -0.57100996084E+03  0.57100996084E+03  0.00000000000E+00 0. -1.
         23    2    1    2    0    0  0.41294024696E+01 -0.49678484519E+03 -0.37905827162E+03  0.63157296860E+03  0.91580603910E+02 0.  0.
         11    1    3    3    0    0  0.10960549319E+02 -0.38794526814E+03 -0.33927496775E+03  0.51548925154E+03  0.00000000000E+00 0. -1.
        -11    1    3    3    0    0 -0.68311468496E+01 -0.10883957705E+03 -0.39783303865E+02  0.11608371706E+03  0.00000000000E+00 0.  1.
         22    1    1    2    0    0 -0.41294024696E+01  0.49678484519E+03  0.87355031733E+03  0.10049389988E+04  0.00000000000E+00 0.  1.
<mgrwt>
<rscale>  0 0.15600157E+04</rscale>
<asrwt>0</asrwt>
<pdfrwt beam="1">  1        2 0.87847686E-01 0.15600157E+04</pdfrwt>
<pdfrwt beam="2">  1       -2 0.16392339E+00 0.15600157E+04</pdfrwt>
<totfact> 0.11925629E+01</totfact>
</mgrwt>
</event>
<event>
 6    1  0.1585031E-006  0.5529129E+04  0.7818608E-02  0.7751694E-01
          2   -1    0    0  501    0  0.00000000000E+00  0.00000000000E+00  0.21575045364E+04  0.21575045364E+04  0.00000000000E+00 0. -1.
         -2   -1    0    0    0  501 -0.00000000000E+00 -0.00000000000E+00 -0.35424342232E+04  0.35424342232E+04  0.00000000000E+00 0.  1.
         23    2    1    2    0    0  0.81292182367E+03 -0.22939093438E+03  0.20202016050E+04  0.21916085005E+04  0.92039134659E+02 0.  0.
         13    1    3    3    0    0  0.58489182176E+03 -0.20310656659E+03  0.14261484261E+04  0.15547508012E+04  0.00000000000E+00 0. -1.
        -13    1    3    3    0    0  0.22803000191E+03 -0.26284367790E+02  0.59405317892E+03  0.63685769929E+03  0.00000000000E+00 0.  1.
         22    1    1    2    0    0 -0.81292182367E+03  0.22939093438E+03 -0.34051312918E+04  0.35083302591E+04  0.00000000000E+00 0.  1.
<mgrwt>
<rscale>  0 0.55291294E+04</rscale>
<asrwt>0</asrwt>
<pdfrwt beam="1">  1        2 0.33192378E+00 0.55291294E+04</pdfrwt>
<pdfrwt beam="2">  1       -2 0.54498987E+00 0.55291294E+04</pdfrwt>
<totfact> 0.35029802E-03</totfact>
</mgrwt>
</event>
<event>
 6    1  0.1585031E-006  0.2048098E+04  0.7818608E-02  0.8584458E-01
         -1   -1    0    0    0  501 -0.00000000000E+00  0.00000000000E+00  0.50760656487E+03  0.50760656487E+03  0.00000000000E+00 0.  1.
          1   -1    0    0  501    0  0.00000000000E+00 -0.00000000000E+00 -0.20659242050E+04  0.20659242050E+04  0.00000000000E+00 0. -1.
         23    2    1    2    0    0 -0.13274121427E+03 -0.67591300620E+03 -0.17294261676E+04  0.18637725364E+04  0.90854697929E+02 0.  0.
         13    1    3    3    0    0 -0.93359562921E+02 -0.35572806565E+03 -0.10252744901E+04  0.10892411325E+04  0.00000000000E+00 0. -1.
        -13    1    3    3    0    0 -0.39381651349E+02 -0.32018494055E+03 -0.70415167757E+03  0.77453140391E+03  0.00000000000E+00 0.  1.
         22    1    1    2    0    0  0.13274121427E+03  0.67591300620E+03  0.17110852745E+03  0.70975823354E+03  0.00000000000E+00 0.  1.
<mgrwt>
<rscale>  0 0.20480983E+04</rscale>
<asrwt>0</asrwt>
<pdfrwt beam="1">  1        1 0.31783449E+00 0.20480983E+04</pdfrwt>
<pdfrwt beam="2">  1       -1 0.78093318E-01 0.20480983E+04</pdfrwt>
<totfact> 0.40771774E+00</totfact>
</mgrwt>
</event>
<event>
 6    1  0.1585031E-006  0.2398102E+04  0.7818608E-02  0.8440214E-01
          2   -1    0    0  501    0  0.00000000000E+00  0.00000000000E+00  0.22017700187E+04  0.22017700187E+04  0.00000000000E+00 0.  1.
         -2   -1    0    0    0  501 -0.00000000000E+00 -0.00000000000E+00 -0.65298541661E+03  0.65298541661E+03  0.00000000000E+00 0. -1.
         23    2    1    2    0    0  0.51460800897E+03  0.12173604473E+03 -0.50327165492E+03  0.73565752596E+03  0.90931674193E+02 0.  0.
         13    1    3    3    0    0  0.14933359985E+03  0.13273283478E+02 -0.19227060708E+03  0.24381281846E+03  0.00000000000E+00 0. -1.
        -13    1    3    3    0    0  0.36527440912E+03  0.10846276125E+03 -0.31100104783E+03  0.49184470750E+03  0.00000000000E+00 0.  1.
         22    1    1    2    0    0 -0.51460800897E+03 -0.12173604473E+03  0.20520562570E+04  0.21190979093E+04  0.00000000000E+00 0.  1.
<mgrwt>
<rscale>  0 0.23981023E+04</rscale>
<asrwt>0</asrwt>
<pdfrwt beam="1">  1        2 0.33873385E+00 0.23981023E+04</pdfrwt>
<pdfrwt beam="2">  1       -2 0.10045930E+00 0.23981023E+04</pdfrwt>
<totfact> 0.37854134E+00</totfact>
</mgrwt>
</event>
<event>
 6    1  0.2080362E-006  0.3531724E+04  0.7818608E-02  0.8106313E-01
         -2   -1    0    0    0  501 -0.00000000000E+00  0.00000000000E+00  0.15799825413E+04  0.15799825413E+04  0.00000000000E+00 0.  1.
          2   -1    0    0  501    0  0.00000000000E+00 -0.00000000000E+00 -0.19736092601E+04  0.19736092601E+04  0.00000000000E+00 0. -1.
         23    2    1    2    0    0 -0.32628704814E+03  0.66226230409E+03  0.14156765320E+04  0.15994595514E+04  0.95269176341E+02 0.  0.
         13    1    3    3    0    0 -0.14004297718E+03  0.36845601458E+03  0.81529112799E+03  0.90557798864E+03  0.00000000000E+00 0. -1.
        -13    1    3    3    0    0 -0.18624407095E+03  0.29380628951E+03  0.60038540406E+03  0.69388156276E+03  0.00000000000E+00 0.  1.
         22    1    1    2    0    0  0.32628704814E+03 -0.66226230409E+03 -0.18093032508E+04  0.19541322500E+04  0.00000000000E+00 0. -1.
<mgrwt>
<rscale>  0 0.35317238E+04</rscale>
<asrwt>0</asrwt>
<pdfrwt beam="1">  1        2 0.30363219E+00 0.35317238E+04</pdfrwt>
<pdfrwt beam="2">  1       -2 0.24307424E+00 0.35317238E+04</pdfrwt>
<totfact> 0.40162144E-01</totfact>
</mgrwt>
</event>
<event>
 6    1  0.1585031E-006  0.5116732E+03  0.7818608E-02  0.1010776E+00
          1   -1    0    0  501    0  0.00000000000E+00  0.00000000000E+00  0.16396209664E+03  0.16396209664E+03  0.00000000000E+00 0. -1.
         -1   -1    0    0    0  501 -0.00000000000E+00 -0.00000000000E+00 -0.39919204403E+03  0.39919204403E+03  0.00000000000E+00 0.  1.
         23    2    1    2    0    0  0.85095808648E+02  0.11687113893E+03 -0.34330152036E+03  0.38265587296E+03  0.87575244591E+02 0.  0.
         13    1    3    3    0    0  0.29852275904E+02 -0.52232600938E+01 -0.10468225818E+03  0.10898080565E+03  0.00000000000E+00 0.  1.
        -13    1    3    3    0    0  0.55243532744E+02  0.12209439903E+03 -0.23861926218E+03  0.27367506731E+03  0.00000000000E+00 0. -1.
         22    1    1    2    0    0 -0.85095808648E+02 -0.11687113893E+03  0.10807157297E+03  0.18049826772E+03  0.00000000000E+00 0. -1.
<mgrwt>
<rscale>  0 0.51167319E+03</rscale>
<asrwt>0</asrwt>
<pdfrwt beam="1">  1        1 0.25224938E-01 0.51167319E+03</pdfrwt>
<pdfrwt beam="2">  1       -1 0.61414160E-01 0.51167319E+03</pdfrwt>
<totfact> 0.52481815E+02</totfact>
</mgrwt>
</event>
<event>
 6    1  0.1585031E-006  0.1511633E+04  0.7818608E-02  0.8876754E-01
          2   -1    0    0  501    0  0.00000000000E+00  0.00000000000E+00  0.22420205301E+04  0.22420205301E+04  0.00000000000E+00 0. -1.
         -2   -1    0    0    0  501 -0.00000000000E+00 -0.00000000000E+00 -0.25479626009E+03  0.25479626009E+03  0.00000000000E+00 0.  1.
         23    2    1    2    0    0  0.38543578155E+03  0.41239953445E+03  0.17298687635E+03  0.59679272765E+03  0.87195084021E+02 0.  0.
         13    1    3    3    0    0  0.43530693127E+02  0.32182116842E+02 -0.72564786312E+01  0.54619285702E+02  0.00000000000E+00 0. -1.
        -13    1    3    3    0    0  0.34190508842E+03  0.38021741761E+03  0.18024335499E+03  0.54217344195E+03  0.00000000000E+00 0.  1.
         22    1    1    2    0    0 -0.38543578155E+03 -0.41239953445E+03  0.18142373937E+04  0.19000240626E+04  0.00000000000E+00 0. -1.
<mgrwt>
<rscale>  0 0.15116328E+04</rscale>
<asrwt>0</asrwt>
<pdfrwt beam="1">  1        2 0.34492622E+00 0.15116328E+04</pdfrwt>
<pdfrwt beam="2">  1       -2 0.39199426E-01 0.15116328E+04</pdfrwt>
<totfact> 0.29078923E+01</totfact>
</mgrwt>
</event>
<event>
 6    1  0.1585031E-006  0.3003827E+04  0.7818608E-02  0.8242639E-01
         -2   -1    0    0    0  501 -0.00000000000E+00  0.00000000000E+00  0.75074983560E+03  0.75074983560E+03  0.00000000000E+00 0.  1.
          2   -1    0    0  501    0  0.00000000000E+00 -0.00000000000E+00 -0.30046554190E+04  0.30046554190E+04  0.00000000000E+00 0. -1.
         23    2    1    2    0    0 -0.10602979503E+04  0.19736196260E+02  0.19893960940E+03  0.10831270504E+04  0.94688849054E+02 0.  0.
         13    1    3    3    0    0 -0.96838065763E+03  0.34837160312E+02  0.15982820827E+03  0.98209968027E+03  0.00000000000E+00 0.  1.
        -13    1    3    3    0    0 -0.91917292696E+02 -0.15100964052E+02  0.39111401125E+02  0.10102737010E+03  0.00000000000E+00 0. -1.
         22    1    1    2    0    0  0.10602979503E+04 -0.19736196260E+02 -0.24528451928E+04  0.26722782042E+04  0.00000000000E+00 0. -1.
<mgrwt>
<rscale>  0 0.30038273E+04</rscale>
<asrwt>0</asrwt>
<pdfrwt beam="1">  1        2 0.46225467E+00 0.30038273E+04</pdfrwt>
<pdfrwt beam="2">  1       -2 0.11549998E+00 0.30038273E+04</pdfrwt>
<totfact> 0.86294925E-01</totfact>
</mgrwt>
</event>
<event>
 6    1  0.1585031E-006  0.6303783E+03  0.7818608E-02  0.9844311E-01
          2   -1    0    0  501    0  0.00000000000E+00  0.00000000000E+00  0.38428287194E+03  0.38428287194E+03  0.00000000000E+00 0. -1.
         -2   -1    0    0    0  501 -0.00000000000E+00 -0.00000000000E+00 -0.25851839395E+03  0.25851839395E+03  0.00000000000E+00 0.  1.
         23    2    1    2    0    0  0.17782290441E+03  0.55038615745E+02  0.31528171919E+03  0.37715673033E+03  0.90522937569E+02 0.  0.
         11    1    3    3    0    0  0.12124167100E+03  0.20844023740E+02  0.27091510242E+03  0.29753824768E+03  0.00000000000E+00 0. -1.
        -11    1    3    3    0    0  0.56581233410E+02  0.34194592005E+02  0.44366616762E+02  0.79618482650E+02  0.00000000000E+00 0.  1.
         22    1    1    2    0    0 -0.17782290441E+03 -0.55038615745E+02 -0.18951724120E+03  0.26564453556E+03  0.00000000000E+00 0.  1.
<mgrwt>
<rscale>  0 0.63037827E+03</rscale>
<asrwt>0</asrwt>
<pdfrwt beam="1">  1        2 0.59120442E-01 0.63037827E+03</pdfrwt>
<pdfrwt beam="2">  1       -2 0.39772060E-01 0.63037827E+03</pdfrwt>
<totfact> 0.50155171E+02</totfact>
</mgrwt>
</event>
<event>
 6    1  0.1585031E-006  0.2172673E+04  0.7818608E-02  0.8529889E-01
         -2   -1    0    0    0  501 -0.00000000000E+00  0.00000000000E+00  0.14168114711E+04  0.14168114711E+04  0.00000000000E+00 0.  1.
          2   -1    0    0  501    0  0.00000000000E+00 -0.00000000000E+00 -0.83294531379E+03  0.83294531379E+03  0.00000000000E+00 0. -1.
         23    2    1    2    0    0  0.37227190768E+03  0.74821357621E+03 -0.42299461880E+03  0.94125437705E+03  0.92873171057E+02 0.  0.
         13    1    3    3    0    0  0.11709801945E+03  0.28962345061E+03 -0.20069053726E+03  0.37130901019E+03  0.00000000000E+00 0. -1.
        -13    1    3    3    0    0  0.25517388823E+03  0.45859012561E+03 -0.22230408154E+03  0.56994536686E+03  0.00000000000E+00 0.  1.
         22    1    1    2    0    0 -0.37227190768E+03 -0.74821357621E+03  0.10068607761E+04  0.13085024079E+04  0.00000000000E+00 0.  1.
<mgrwt>
<rscale>  0 0.21726725E+04</rscale>
<asrwt>0</asrwt>
<pdfrwt beam="1">  1        2 0.12814543E+00 0.21726725E+04</pdfrwt>
<pdfrwt beam="2">  1       -2 0.21797100E+00 0.21726725E+04</pdfrwt>
<totfact> 0.30419036E+00</totfact>
</mgrwt>
</event>
<event>
 6    1  0.1585031E-006  0.5075089E+04  0.7818608E-02  0.7817027E-01
         -1   -1    0    0    0  501 -0.00000000000E+00  0.00000000000E+00  0.29068500216E+04  0.29068500216E+04  0.00000000000E+00 0.  1.
          1   -1    0    0  501    0  0.00000000000E+00 -0.00000000000E+00 -0.22151583318E+04  0.22151583318E+04  0.00000000000E+00 0. -1.
         23    2    1    2    0    0 -0.16431515796E+03 -0.82275845486E+03 -0.20701788928E+04  0.22355121969E+04  0.89124565039E+02 0.  0.
         13    1    3    3    0    0 -0.47612460810E+02 -0.93232368759E+02 -0.23984444969E+03  0.26169558853E+03  0.00000000000E+00 0. -1.
        -13    1    3    3    0    0 -0.11670269715E+03 -0.72952608610E+03 -0.18303344432E+04  0.19738166084E+04  0.00000000000E+00 0.  1.
         22    1    1    2    0    0  0.16431515796E+03  0.82275845486E+03  0.27618705826E+04  0.28864961565E+04  0.00000000000E+00 0.  1.
<mgrwt>
<rscale>  0 0.50750894E+04</rscale>
<asrwt>0</asrwt>
<pdfrwt beam="1">  1        1 0.34079359E+00 0.50750894E+04</pdfrwt>
<pdfrwt beam="2">  1       -1 0.44720770E+00 0.50750894E+04</pdfrwt>
<totfact> 0.51759822E-03</totfact>
</mgrwt>
</event>
<event>
 6    1  0.1585031E-006  0.2042631E+04  0.7818608E-02  0.8586945E-01
         -1   -1    0    0    0  501 -0.00000000000E+00  0.00000000000E+00  0.23100522751E+04  0.23100522751E+04  0.00000000000E+00 0.  1.
          1   -1    0    0  501    0  0.00000000000E+00 -0.00000000000E+00 -0.45154191624E+03  0.45154191624E+03  0.00000000000E+00 0. -1.
         23    2    1    2    0    0  0.59858730351E+03  0.82352477709E+03  0.86440467367E+03  0.13386585176E+04  0.91166706550E+02 0.  0.
         11    1    3    3    0    0  0.14011162092E+03  0.18316434027E+03  0.14811382371E+03  0.27407689913E+03  0.00000000000E+00 0. -1.
        -11    1    3    3    0    0  0.45847568259E+03  0.64036043682E+03  0.71629084996E+03  0.10645816184E+04  0.00000000000E+00 0.  1.
         22    1    1    2    0    0 -0.59858730351E+03 -0.82352477709E+03  0.99410568523E+03  0.14229356738E+04  0.00000000000E+00 0.  1.
<mgrwt>
<rscale>  0 0.20426311E+04</rscale>
<asrwt>0</asrwt>
<pdfrwt beam="1">  1        1 0.69467988E-01 0.20426311E+04</pdfrwt>
<pdfrwt beam="2">  1       -1 0.35539265E+00 0.20426311E+04</pdfrwt>
<totfact> 0.67496863E-01</totfact>
</mgrwt>
</event>
<event>
 6    1  0.1585031E-006  0.1141547E+04  0.7818608E-02  0.9165617E-01
          4   -1    0    0  501    0  0.00000000000E+00  0.00000000000E+00  0.45006674885E+03  0.45006674885E+03  0.00000000000E+00 0. -1.
         -4   -1    0    0    0  501 -0.00000000000E+00 -0.00000000000E+00 -0.72385371602E+03  0.72385371602E+03  0.00000000000E+00 0.  1.
         23    2    1    2    0    0  0.29632899175E+03 -0.34213750888E+03 -0.48930329548E+03  0.67260595869E+03  0.90067276828E+02 0.  0.
         13    1    3    3    0    0  0.18388862327E+03 -0.26274212279E+03 -0.30500682510E+03  0.44258062793E+03  0.00000000000E+00 0. -1.
        -13    1    3    3    0    0  0.11244036848E+03 -0.79395386089E+02 -0.18429647038E+03  0.23002533076E+03  0.00000000000E+00 0.  1.
         22    1    1    2    0    0 -0.29632899175E+03  0.34213750888E+03  0.21551632832E+03  0.50131450618E+03  0.00000000000E+00 0. -1.
<mgrwt>
<rscale>  0 0.11415472E+04</rscale>
<asrwt>0</asrwt>
<pdfrwt beam="1">  1        4 0.69241039E-01 0.11415472E+04</pdfrwt>
<pdfrwt beam="2">  1       -4 0.11136211E+00 0.11415472E+04</pdfrwt>
<totfact> 0.24085711E+00</totfact>
</mgrwt>
</event>
<event>
 6    1  0.1585031E-006  0.1306226E+04  0.7818608E-02  0.9024643E-01
          1   -1    0    0  501    0  0.00000000000E+00  0.00000000000E+00  0.40054696158E+03  0.40054696158E+03  0.00000000000E+00 0. -1.
         -1   -1    0    0    0  501 -0.00000000000E+00 -0.00000000000E+00 -0.10649349710E+04  0.10649349710E+04  0.00000000000E+00 0.  1.
         23    2    1    2    0    0  0.38752748973E+03  0.26205670449E+03  0.17245855636E+03  0.50675181085E+03  0.90576887046E+02 0.  0.
         13    1    3    3    0    0  0.14113551615E+03  0.10768045218E+03  0.11161219505E+03  0.20969405281E+03  0.00000000000E+00 0. -1.
        -13    1    3    3    0    0  0.24639197359E+03  0.15437625231E+03  0.60846361308E+02  0.29705775804E+03  0.00000000000E+00 0.  1.
         22    1    1    2    0    0 -0.38752748973E+03 -0.26205670449E+03 -0.83684656573E+03  0.95873012169E+03  0.00000000000E+00 0.  1.
<mgrwt>
<rscale>  0 0.13062258E+04</rscale>
<asrwt>0</asrwt>
<pdfrwt beam="1">  1        1 0.61622610E-01 0.13062258E+04</pdfrwt>
<pdfrwt beam="2">  1       -1 0.16383615E+00 0.13062258E+04</pdfrwt>
<totfact> 0.16079797E+01</totfact>
</mgrwt>
</event>
<event>
 6    1  0.1585031E-006  0.1385975E+04  0.7818608E-02  0.8964034E-01
          1   -1    0    0  501    0  0.00000000000E+00  0.00000000000E+00  0.66995521847E+03  0.66995521847E+03  0.00000000000E+00 0. -1.
         -1   -1    0    0    0  501 -0.00000000000E+00 -0.00000000000E+00 -0.71681131105E+03  0.71681131105E+03  0.00000000000E+00 0.  1.
         23    2    1    2    0    0 -0.10887013596E+02 -0.62123186212E+03  0.27665209969E+03  0.68626306482E+03  0.91504405868E+02 0.  0.
         11    1    3    3    0    0 -0.44069926993E+02 -0.19056436567E+03  0.73736581662E+02  0.20903114457E+03  0.00000000000E+00 0. -1.
        -11    1    3    3    0    0  0.33182913397E+02 -0.43066749646E+03  0.20291551803E+03  0.47723192025E+03  0.00000000000E+00 0.  1.
         22    1    1    2    0    0  0.10887013596E+02  0.62123186212E+03 -0.32350819227E+03  0.70050346470E+03  0.00000000000E+00 0.  1.
<mgrwt>
<rscale>  0 0.13859747E+04</rscale>
<asrwt>0</asrwt>
<pdfrwt beam="1">  1        1 0.10307003E+00 0.13859747E+04</pdfrwt>
<pdfrwt beam="2">  1       -1 0.11027866E+00 0.13859747E+04</pdfrwt>
<totfact> 0.21567085E+01</totfact>
</mgrwt>
</event>
<event>
 6    1  0.2262246E-006  0.2649196E+04  0.7818608E-02  0.8351680E-01
         -2   -1    0    0    0  501 -0.00000000000E+00  0.00000000000E+00  0.13973896876E+04  0.13973896876E+04  0.00000000000E+00 0.  1.
          2   -1    0    0  501    0  0.00000000000E+00 -0.00000000000E+00 -0.12555985745E+04  0.12555985745E+04  0.00000000000E+00 0. -1.
         23    2    1    2    0    0 -0.10182966374E+04  0.75902730995E+03 -0.30021246575E+03  0.13082140570E+04  0.90807462737E+02 0.  0.
         13    1    3    3    0    0 -0.72648794024E+03  0.57282983584E+03 -0.18570137536E+03  0.94361207546E+03  0.00000000000E+00 0.  1.
        -13    1    3    3    0    0 -0.29180869721E+03  0.18619747411E+03 -0.11451109039E+03  0.36460198156E+03  0.00000000000E+00 0. -1.
         22    1    1    2    0    0  0.10182966374E+04 -0.75902730995E+03  0.44200357888E+03  0.13447742051E+04  0.00000000000E+00 0.  1.
<mgrwt>
<rscale>  0 0.26491965E+04</rscale>
<asrwt>0</asrwt>
<pdfrwt beam="1">  1        2 0.19316901E+00 0.26491965E+04</pdfrwt>
<pdfrwt beam="2">  1       -2 0.21498303E+00 0.26491965E+04</pdfrwt>
<totfact> 0.16450570E+00</totfact>
</mgrwt>
</event>
<event>
 6    1  0.1585031E-006  0.1707235E+04  0.7818608E-02  0.8757249E-01
          2   -1    0    0  501    0  0.00000000000E+00  0.00000000000E+00  0.18715591080E+04  0.18715591080E+04  0.00000000000E+00 0. -1.
         -2   -1    0    0    0  501 -0.00000000000E+00 -0.00000000000E+00 -0.38933464147E+03  0.38933464147E+03  0.00000000000E+00 0.  1.
         23    2    1    2    0    0 -0.45538002062E+03 -0.64973437920E+03  0.11511772275E+04  0.14011740271E+04  0.92487395033E+02 0.  0.
         11    1    3    3    0    0 -0.35276882815E+03 -0.43821432984E+03  0.84534423109E+03  0.10154233177E+04  0.00000000000E+00 0.  1.
        -11    1    3    3    0    0 -0.10261119247E+03 -0.21152004936E+03  0.30583299644E+03  0.38575070941E+03  0.00000000000E+00 0. -1.
         22    1    1    2    0    0  0.45538002062E+03  0.64973437920E+03  0.33104723904E+03  0.85971972245E+03  0.00000000000E+00 0.  1.
<mgrwt>
<rscale>  0 0.17072350E+04</rscale>
<asrwt>0</asrwt>
<pdfrwt beam="1">  1        2 0.28793217E+00 0.17072350E+04</pdfrwt>
<pdfrwt beam="2">  1       -2 0.59897638E-01 0.17072350E+04</pdfrwt>
<totfact> 0.19464985E+01</totfact>
</mgrwt>
</event>
<event>
 6    1  0.1585031E-006  0.9145650E+03  0.7818608E-02  0.9407555E-01
          2   -1    0    0  501    0  0.00000000000E+00  0.00000000000E+00  0.11016030940E+04  0.11016030940E+04  0.00000000000E+00 0.  1.
         -2   -1    0    0    0  501 -0.00000000000E+00 -0.00000000000E+00 -0.18982087517E+03  0.18982087517E+03  0.00000000000E+00 0. -1.
         23    2    1    2    0    0  0.70582332488E+02  0.23997285139E+03  0.99327793178E+03  0.10283452998E+04  0.91236893760E+02 0.  0.
         11    1    3    3    0    0  0.87285256423E+02  0.14329572276E+03  0.65227228317E+03  0.67350687564E+03  0.00000000000E+00 0. -1.
        -11    1    3    3    0    0 -0.16702923935E+02  0.96677128625E+02  0.34100564861E+03  0.35483842415E+03  0.00000000000E+00 0.  1.
         22    1    1    2    0    0 -0.70582332488E+02 -0.23997285139E+03 -0.81495712928E+02  0.26307866939E+03  0.00000000000E+00 0. -1.
<mgrwt>
<rscale>  0 0.91456495E+03</rscale>
<asrwt>0</asrwt>
<pdfrwt beam="1">  1        2 0.16947740E+00 0.91456495E+03</pdfrwt>
<pdfrwt beam="2">  1       -2 0.29203212E-01 0.91456495E+03</pdfrwt>
<totfact> 0.23449065E+02</totfact>
</mgrwt>
</event>
<event>
 6    1  0.1585031E-006  0.1841415E+04  0.7818608E-02  0.8684580E-01
          1   -1    0    0  501    0  0.00000000000E+00  0.00000000000E+00  0.17287701795E+04  0.17287701795E+04  0.00000000000E+00 0. -1.
         -1   -1    0    0    0  501 -0.00000000000E+00 -0.00000000000E+00 -0.49034974060E+03  0.49034974060E+03  0.00000000000E+00 0.  1.
         23    2    1    2    0    0 -0.45782114260E+03 -0.78106138333E+03  0.43509809520E+03  0.10087547393E+04  0.92836891231E+02 0.  0.
         11    1    3    3    0    0 -0.37511240712E+03 -0.64410896071E+03  0.39607776888E+03  0.84407539369E+03  0.00000000000E+00 0.  1.
        -11    1    3    3    0    0 -0.82708735478E+02 -0.13695242263E+03  0.39020326320E+02  0.16467934556E+03  0.00000000000E+00 0. -1.
         22    1    1    2    0    0  0.45782114260E+03  0.78106138333E+03  0.80332234374E+03  0.12103651809E+04  0.00000000000E+00 0. -1.
<mgrwt>
<rscale>  0 0.18414147E+04</rscale>
<asrwt>0</asrwt>
<pdfrwt beam="1">  1        1 0.26596464E+00 0.18414147E+04</pdfrwt>
<pdfrwt beam="2">  1       -1 0.75438423E-01 0.18414147E+04</pdfrwt>
<totfact> 0.75644904E+00</totfact>
</mgrwt>
</event>
<event>
 6    1  0.1585031E-006  0.1010448E+04  0.7818608E-02  0.9297160E-01
          1   -1    0    0  501    0  0.00000000000E+00  0.00000000000E+00  0.77175275346E+03  0.77175275346E+03  0.00000000000E+00 0.  1.
         -1   -1    0    0    0  501 -0.00000000000E+00 -0.00000000000E+00 -0.33074199583E+03  0.33074199583E+03  0.00000000000E+00 0. -1.
         23    2    1    2    0    0 -0.20621226723E+03 -0.21458860997E+03 -0.21620637762E+03  0.38103363907E+03  0.99346191149E+02 0.  0.
         11    1    3    3    0    0 -0.16513845270E+03 -0.12561476250E+03 -0.10410433868E+03  0.23213679254E+03  0.00000000000E+00 0. -1.
        -11    1    3    3    0    0 -0.41073814533E+02 -0.88973847472E+02 -0.11210203894E+03  0.14889684654E+03  0.00000000000E+00 0.  1.
         22    1    1    2    0    0  0.20621226723E+03  0.21458860997E+03  0.65721713525E+03  0.72146111022E+03  0.00000000000E+00 0.  1.
<mgrwt>
<rscale>  0 0.10104475E+04</rscale>
<asrwt>0</asrwt>
<pdfrwt beam="1">  1        1 0.11873119E+00 0.10104475E+04</pdfrwt>
<pdfrwt beam="2">  1       -1 0.50883384E-01 0.10104475E+04</pdfrwt>
<totfact> 0.91049876E+01</totfact>
</mgrwt>
</event>
<event>
 6    1  0.1585031E-006  0.1694338E+04  0.7818608E-02  0.8764600E-01
         -3   -1    0    0    0  501 -0.00000000000E+00  0.00000000000E+00  0.14493224227E+04  0.14493224227E+04  0.00000000000E+00 0.  1.
          3   -1    0    0  501    0  0.00000000000E+00 -0.00000000000E+00 -0.49519375426E+03  0.49519375426E+03  0.00000000000E+00 0. -1.
         23    2    1    2    0    0  0.17995474282E+03 -0.51524599826E+03 -0.26136031908E+03  0.61212148057E+03  0.92311117385E+02 0.  0.
         11    1    3    3    0    0  0.53173437078E+02 -0.60760791551E+02 -0.25886994328E+02  0.84790475149E+02  0.00000000000E+00 0. -1.
        -11    1    3    3    0    0  0.12678130574E+03 -0.45448520671E+03 -0.23547332476E+03  0.52733100542E+03  0.00000000000E+00 0.  1.
         22    1    1    2    0    0 -0.17995474282E+03  0.51524599826E+03  0.12154889875E+04  0.13323946964E+04  0.00000000000E+00 0.  1.
<mgrwt>
<rscale>  0 0.16943381E+04</rscale>
<asrwt>0</asrwt>
<pdfrwt beam="1">  1        3 0.76183655E-01 0.16943381E+04</pdfrwt>
<pdfrwt beam="2">  1       -3 0.22297268E+00 0.16943381E+04</pdfrwt>
<totfact> 0.42687198E-01</totfact>
</mgrwt>
</event>
<event>
 6    1  0.1585031E-006  0.3290968E+04  0.7818608E-02  0.8165197E-01
         -1   -1    0    0    0  501 -0.00000000000E+00  0.00000000000E+00  0.15085742834E+04  0.15085742834E+04  0.00000000000E+00 0.  1.
          1   -1    0    0  501    0  0.00000000000E+00 -0.00000000000E+00 -0.17948190791E+04  0.17948190791E+04  0.00000000000E+00 0. -1.
         23    2    1    2    0    0 -0.10014653061E+04 -0.64357759775E+03  0.99529228810E+03  0.15542615262E+04  0.89427453553E+02 0.  0.
         13    1    3    3    0    0 -0.41247669967E+03 -0.29141086967E+03  0.47205049024E+03  0.69129515264E+03  0.00000000000E+00 0. -1.
        -13    1    3    3    0    0 -0.58898860648E+03 -0.35216672809E+03  0.52324179786E+03  0.86296637360E+03  0.00000000000E+00 0.  1.
         22    1    1    2    0    0  0.10014653061E+04  0.64357759775E+03 -0.12815370837E+04  0.17491318363E+04  0.00000000000E+00 0. -1.
<mgrwt>
<rscale>  0 0.32909682E+04</rscale>
<asrwt>0</asrwt>
<pdfrwt beam="1">  1        1 0.27612601E+00 0.32909682E+04</pdfrwt>
<pdfrwt beam="2">  1       -1 0.23208835E+00 0.32909682E+04</pdfrwt>
<totfact> 0.31179713E-01</totfact>
</mgrwt>
</event>
<event>
 6    1  0.1585031E-006  0.9332233E+03  0.7818608E-02  0.9384978E-01
          1   -1    0    0  501    0  0.00000000000E+00  0.00000000000E+00  0.16479801148E+04  0.16479801148E+04  0.00000000000E+00 0. -1.
         -1   -1    0    0    0  501 -0.00000000000E+00 -0.00000000000E+00 -0.13211715916E+03  0.13211715916E+03  0.00000000000E+00 0.  1.
         23    2    1    2    0    0 -0.24228973612E+03  0.37995974318E+01  0.15162001739E+04  0.15377775124E+04  0.84722824414E+02 0.  0.
         11    1    3    3    0    0 -0.13794745067E+03 -0.32369876276E+01  0.60180676800E+03  0.61742316384E+03  0.00000000000E+00 0.  1.
        -11    1    3    3    0    0 -0.10434228544E+03  0.70365850594E+01  0.91439340591E+03  0.92035434852E+03  0.00000000000E+00 0. -1.
         22    1    1    2    0    0  0.24228973612E+03 -0.37995974318E+01 -0.33721822485E+00  0.24231976165E+03  0.00000000000E+00 0.  1.
<mgrwt>
<rscale>  0 0.93322334E+03</rscale>
<asrwt>0</asrwt>
<pdfrwt beam="1">  1        1 0.25353539E+00 0.93322334E+03</pdfrwt>
<pdfrwt beam="2">  1       -1 0.20325718E-01 0.93322334E+03</pdfrwt>
<totfact> 0.10382195E+02</totfact>
</mgrwt>
</event>
<event>
 6    1  0.1585031E-006  0.1262074E+04  0.7818608E-02  0.9060194E-01
         -2   -1    0    0    0  501 -0.00000000000E+00  0.00000000000E+00  0.20590255394E+03  0.20590255394E+03  0.00000000000E+00 0.  1.
          2   -1    0    0  501    0  0.00000000000E+00 -0.00000000000E+00 -0.19339618448E+04  0.19339618448E+04  0.00000000000E+00 0. -1.
         23    2    1    2    0    0  0.15766618011E+03 -0.50046392449E+03 -0.28357847951E+03  0.60303403126E+03  0.88941130816E+02 0.  0.
         13    1    3    3    0    0  0.76740282921E+02 -0.15258185208E+03 -0.12807794821E+03  0.21348127183E+03  0.00000000000E+00 0. -1.
        -13    1    3    3    0    0  0.80925897190E+02 -0.34788207241E+03 -0.15550053130E+03  0.38955275943E+03  0.00000000000E+00 0.  1.
         22    1    1    2    0    0 -0.15766618011E+03  0.50046392449E+03 -0.14444808113E+04  0.15368303675E+04  0.00000000000E+00 0. -1.
<mgrwt>
<rscale>  0 0.12620740E+04</rscale>
<asrwt>0</asrwt>
<pdfrwt beam="1">  1        2 0.29753260E+00 0.12620740E+04</pdfrwt>
<pdfrwt beam="2">  1       -2 0.31677315E-01 0.12620740E+04</pdfrwt>
<totfact> 0.66202460E+01</totfact>
</mgrwt>
</event>
<event>
 6    1  0.1585031E-006  0.1774242E+04  0.7818608E-02  0.8720118E-01
         -1   -1    0    0    0  501 -0.00000000000E+00  0.00000000000E+00  0.40421031081E+03  0.40421031081E+03  0.00000000000E+00 0.  1.
          1   -1    0    0  501    0  0.00000000000E+00 -0.00000000000E+00 -0.19469666174E+04  0.19469666174E+04  0.00000000000E+00 0. -1.
         23    2    1    2    0    0 -0.46040856841E+03  0.34289549133E+02  0.22702291258E+03  0.52216891629E+03  0.89270102794E+02 0.  0.
         11    1    3    3    0    0 -0.42217263346E+03  0.59045891040E+01  0.19734385417E+03  0.46605707096E+03  0.00000000000E+00 0. -1.
        -11    1    3    3    0    0 -0.38235934951E+02  0.28384960029E+02  0.29679058419E+02  0.56111845328E+02  0.00000000000E+00 0.  1.
         22    1    1    2    0    0  0.46040856841E+03 -0.34289549133E+02 -0.17697792191E+04  0.18290080119E+04  0.00000000000E+00 0. -1.
<mgrwt>
<rscale>  0 0.17742424E+04</rscale>
<asrwt>0</asrwt>
<pdfrwt beam="1">  1        1 0.29953333E+00 0.17742424E+04</pdfrwt>
<pdfrwt beam="2">  1       -1 0.62186201E-01 0.17742424E+04</pdfrwt>
<totfact> 0.80309852E+00</totfact>
</mgrwt>
</event>
<event>
 6    1  0.1585031E-006  0.2701901E+04  0.7818608E-02  0.8334388E-01
          2   -1    0    0  501    0  0.00000000000E+00  0.00000000000E+00  0.14745184286E+04  0.14745184286E+04  0.00000000000E+00 0. -1.
         -2   -1    0    0    0  501 -0.00000000000E+00 -0.00000000000E+00 -0.12377376985E+04  0.12377376985E+04  0.00000000000E+00 0.  1.
         23    2    1    2    0    0  0.12936125196E+04  0.30137148189E+03 -0.11676783131E+03  0.13377545061E+04  0.10814005264E+03 0.  0.
         13    1    3    3    0    0  0.98839210678E+03  0.26373430197E+03 -0.57687645316E+02  0.10245987523E+04  0.00000000000E+00 0. -1.
        -13    1    3    3    0    0  0.30522041286E+03  0.37637179921E+02 -0.59080185991E+02  0.31315575376E+03  0.00000000000E+00 0.  1.
         22    1    1    2    0    0 -0.12936125196E+04 -0.30137148189E+03  0.35354856143E+03  0.13745016211E+04  0.00000000000E+00 0.  1.
<mgrwt>
<rscale>  0 0.27019008E+04</rscale>
<asrwt>0</asrwt>
<pdfrwt beam="1">  1        2 0.22684899E+00 0.27019008E+04</pdfrwt>
<pdfrwt beam="2">  1       -2 0.19042118E+00 0.27019008E+04</pdfrwt>
<totfact> 0.17727868E+00</totfact>
</mgrwt>
</event>
<event>
 6    1  0.1585031E-006  0.6900184E+04  0.7818608E-02  0.7587818E-01
          2   -1    0    0  501    0  0.00000000000E+00  0.00000000000E+00  0.54182426016E+04  0.54182426016E+04  0.00000000000E+00 0. -1.
         -2   -1    0    0    0  501 -0.00000000000E+00 -0.00000000000E+00 -0.21968625937E+04  0.21968625937E+04  0.00000000000E+00 0.  1.
         23    2    1    2    0    0  0.48390415707E+03  0.32811420607E+04  0.26572450986E+04  0.42508363815E+04  0.92746821670E+02 0.  0.
         11    1    3    3    0    0  0.33950652059E+03  0.21557044846E+04  0.17972908730E+04  0.28271153115E+04  0.00000000000E+00 0. -1.
        -11    1    3    3    0    0  0.14439763647E+03  0.11254375761E+04  0.85995422560E+03  0.14237210700E+04  0.00000000000E+00 0.  1.
         22    1    1    2    0    0 -0.48390415707E+03 -0.32811420607E+04  0.56413490923E+03  0.33642688138E+04  0.00000000000E+00 0. -1.
<mgrwt>
<rscale>  0 0.69001839E+04</rscale>
<asrwt>0</asrwt>
<pdfrwt beam="1">  1        2 0.83357578E+00 0.69001839E+04</pdfrwt>
<pdfrwt beam="2">  1       -2 0.33797886E+00 0.69001839E+04</pdfrwt>
<totfact> 0.93579174E-05</totfact>
</mgrwt>
</event>
<event>
 6    1  0.1585031E-006  0.7436996E+03  0.7818608E-02  0.9645287E-01
         -2   -1    0    0    0  501 -0.00000000000E+00  0.00000000000E+00  0.61095801605E+02  0.61095801605E+02  0.00000000000E+00 0. -1.
          2   -1    0    0  501    0  0.00000000000E+00 -0.00000000000E+00 -0.22632044048E+04  0.22632044048E+04  0.00000000000E+00 0.  1.
         23    2    1    2    0    0 -0.67040725843E+02 -0.15848434429E+03 -0.21279630264E+04  0.21369254139E+04  0.92799981301E+02 0.  0.
         11    1    3    3    0    0  0.21947780429E+02 -0.42096226901E+02 -0.64403821531E+03  0.64578558374E+03  0.00000000000E+00 0. -1.
        -11    1    3    3    0    0 -0.88988506272E+02 -0.11638811739E+03 -0.14839248111E+04  0.14911398302E+04  0.00000000000E+00 0.  1.
         22    1    1    2    0    0  0.67040725843E+02  0.15848434429E+03 -0.74145576780E+02  0.18737479249E+03  0.00000000000E+00 0. -1.
<mgrwt>
<rscale>  0 0.74369964E+03</rscale>
<asrwt>0</asrwt>
<pdfrwt beam="1">  1        2 0.34818532E+00 0.74369964E+03</pdfrwt>
<pdfrwt beam="2">  1       -2 0.93993533E-02 0.74369964E+03</pdfrwt>
<totfact> 0.37234256E+02</totfact>
</mgrwt>
</event>
<event>
 6    1  0.1585031E-006  0.8517909E+03  0.7818608E-02  0.9487936E-01
          2   -1    0    0  501    0  0.00000000000E+00  0.00000000000E+00  0.15998387802E+04  0.15998387802E+04  0.00000000000E+00 0. -1.
         -2   -1    0    0    0  501 -0.00000000000E+00 -0.00000000000E+00 -0.11337825197E+03  0.11337825197E+03  0.00000000000E+00 0.  1.
         23    2    1    2    0    0  0.40776598070E+03  0.18645394912E+02  0.95987227832E+03  0.10469468687E+04  0.90123301340E+02 0.  0.
         13    1    3    3    0    0  0.95816391262E+02  0.17464794636E+02  0.14765913959E+03  0.17688703003E+03  0.00000000000E+00 0.  1.
        -13    1    3    3    0    0  0.31194958944E+03  0.11806002767E+01  0.81221313873E+03  0.87005983868E+03  0.00000000000E+00 0. -1.
         22    1    1    2    0    0 -0.40776598070E+03 -0.18645394912E+02  0.52658824990E+03  0.66627016345E+03  0.00000000000E+00 0.  1.
<mgrwt>
<rscale>  0 0.85179088E+03</rscale>
<asrwt>0</asrwt>
<pdfrwt beam="1">  1        2 0.24612903E+00 0.85179088E+03</pdfrwt>
<pdfrwt beam="2">  1       -2 0.17442809E-01 0.85179088E+03</pdfrwt>
<totfact> 0.30448947E+02</totfact>
</mgrwt>
</event>
<event>
 6    1  0.1585031E-006  0.5973410E+04  0.7818608E-02  0.7693707E-01
         -2   -1    0    0    0  501 -0.00000000000E+00  0.00000000000E+00  0.22719219158E+04  0.22719219158E+04  0.00000000000E+00 0.  1.
          2   -1    0    0  501    0  0.00000000000E+00 -0.00000000000E+00 -0.39263704449E+04  0.39263704449E+04  0.00000000000E+00 0. -1.
         23    2    1    2    0    0  0.18470292667E+04  0.23369079426E+04 -0.10439906386E+04  0.31576814549E+04  0.91541648227E+02 0.  0.
         11    1    3    3    0    0  0.11342263344E+04  0.14655667029E+04 -0.69190889592E+03  0.19781539521E+04  0.00000000000E+00 0. -1.
        -11    1    3    3    0    0  0.71280293233E+03  0.87134123971E+03 -0.35208174265E+03  0.11795275028E+04  0.00000000000E+00 0.  1.
         22    1    1    2    0    0 -0.18470292667E+04 -0.23369079426E+04 -0.61045789052E+03  0.30406109058E+04  0.00000000000E+00 0.  1.
<mgrwt>
<rscale>  0 0.59734101E+04</rscale>
<asrwt>0</asrwt>
<pdfrwt beam="1">  1        2 0.60405698E+00 0.59734101E+04</pdfrwt>
<pdfrwt beam="2">  1       -2 0.34952645E+00 0.59734101E+04</pdfrwt>
<totfact> 0.41212377E-03</totfact>
</mgrwt>
</event>
<event>
 6    1  0.1585031E-006  0.2407083E+04  0.7818608E-02  0.8436857E-01
          2   -1    0    0  501    0  0.00000000000E+00  0.00000000000E+00  0.81333112771E+03  0.81333112771E+03  0.00000000000E+00 0. -1.
         -2   -1    0    0    0  501 -0.00000000000E+00 -0.00000000000E+00 -0.17809623724E+04  0.17809623724E+04  0.00000000000E+00 0.  1.
         23    2    1    2    0    0 -0.64539760125E+02  0.89426832923E+03 -0.13470681717E+04  0.16207157647E+04  0.90805867249E+02 0.  0.
         11    1    3    3    0    0 -0.66980165920E+02  0.64418408348E+03 -0.10329065887E+04  0.12191618010E+04  0.00000000000E+00 0.  1.
        -11    1    3    3    0    0  0.24404057952E+01  0.25008424575E+03 -0.31416158299E+03  0.40155396372E+03  0.00000000000E+00 0. -1.
         22    1    1    2    0    0  0.64539760125E+02 -0.89426832923E+03  0.37943692698E+03  0.97357773540E+03  0.00000000000E+00 0. -1.
<mgrwt>
<rscale>  0 0.24070830E+04</rscale>
<asrwt>0</asrwt>
<pdfrwt beam="1">  1        2 0.12512787E+00 0.24070830E+04</pdfrwt>
<pdfrwt beam="2">  1       -2 0.27399421E+00 0.24070830E+04</pdfrwt>
<totfact> 0.13874563E+00</totfact>
</mgrwt>
</event>
<event>
 6    1  0.1585031E-006  0.2770449E+04  0.7818608E-02  0.8312502E-01
         -1   -1    0    0    0  501 -0.00000000000E+00  0.00000000000E+00  0.22282124862E+04  0.22282124862E+04  0.00000000000E+00 0.  1.
          1   -1    0    0  501    0  0.00000000000E+00 -0.00000000000E+00 -0.86115958590E+03  0.86115958590E+03  0.00000000000E+00 0. -1.
         23    2    1    2    0    0  0.94110591570E+03  0.31544010534E+03  0.17596490692E+04  0.20219852835E+04  0.82926685042E+02 0.  0.
         13    1    3    3    0    0  0.33543328389E+03  0.15017333563E+03  0.68639366645E+03  0.77859089644E+03  0.00000000000E+00 0.  1.
        -13    1    3    3    0    0  0.60567263181E+03  0.16526676971E+03  0.10732554028E+04  0.12433943870E+04  0.00000000000E+00 0. -1.
         22    1    1    2    0    0 -0.94110591570E+03 -0.31544010534E+03 -0.39259616896E+03  0.10673867886E+04  0.00000000000E+00 0. -1.
<mgrwt>
<rscale>  0 0.27704487E+04</rscale>
<asrwt>0</asrwt>
<pdfrwt beam="1">  1        1 0.13248609E+00 0.27704487E+04</pdfrwt>
<pdfrwt beam="2">  1       -1 0.34280192E+00 0.27704487E+04</pdfrwt>
<totfact> 0.29492458E-01</totfact>
</mgrwt>
</event>
<event>
 6    1  0.1585031E-006  0.1076655E+04  0.7818608E-02  0.9228249E-01
         -4   -1    0    0    0  501 -0.00000000000E+00  0.00000000000E+00  0.59718246468E+03  0.59718246468E+03  0.00000000000E+00 0.  1.
          4   -1    0    0  501    0  0.00000000000E+00 -0.00000000000E+00 -0.48527291098E+03  0.48527291098E+03  0.00000000000E+00 0. -1.
         23    2    1    2    0    0 -0.46873422476E+03  0.25672277682E+03  0.65588920753E+02  0.54601902470E+03  0.90644973422E+02 0.  0.
         13    1    3    3    0    0 -0.77796334066E+02  0.42270270444E+02  0.45805400686E+02  0.99685405599E+02  0.00000000000E+00 0.  1.
        -13    1    3    3    0    0 -0.39093789069E+03  0.21445250638E+03  0.19783520067E+02  0.44633361910E+03  0.00000000000E+00 0. -1.
         22    1    1    2    0    0  0.46873422476E+03 -0.25672277682E+03  0.46320632940E+02  0.53643635096E+03  0.00000000000E+00 0. -1.
<mgrwt>
<rscale>  0 0.10766550E+04</rscale>
<asrwt>0</asrwt>
<pdfrwt beam="1">  1        4 0.74657371E-01 0.10766550E+04</pdfrwt>
<pdfrwt beam="2">  1       -4 0.91874225E-01 0.10766550E+04</pdfrwt>
<totfact> 0.32370913E+00</totfact>
</mgrwt>
</event>
<event>
 6    1  0.1585031E-006  0.2270773E+04  0.7818608E-02  0.8489535E-01
          2   -1    0    0  501    0  0.00000000000E+00  0.00000000000E+00  0.23039825018E+04  0.23039825018E+04  0.00000000000E+00 0. -1.
         -2   -1    0    0    0  501 -0.00000000000E+00 -0.00000000000E+00 -0.55951063471E+03  0.55951063471E+03  0.00000000000E+00 0.  1.
         23    2    1    2    0    0  0.49255679900E+03  0.94615459312E+03  0.39020126543E+03  0.11395820086E+04  0.92571121263E+02 0.  0.
         13    1    3    3    0    0  0.39214275759E+03  0.74770157008E+03  0.26798888621E+03  0.88580563521E+03  0.00000000000E+00 0.  1.
        -13    1    3    3    0    0  0.10041404142E+03  0.19845302303E+03  0.12221237922E+03  0.25377637341E+03  0.00000000000E+00 0. -1.
         22    1    1    2    0    0 -0.49255679900E+03 -0.94615459312E+03  0.13542706016E+04  0.17239111279E+04  0.00000000000E+00 0. -1.
<mgrwt>
<rscale>  0 0.22707732E+04</rscale>
<asrwt>0</asrwt>
<pdfrwt beam="1">  1        2 0.35445884E+00 0.22707732E+04</pdfrwt>
<pdfrwt beam="2">  1       -2 0.86078560E-01 0.22707732E+04</pdfrwt>
<totfact> 0.47977979E+00</totfact>
</mgrwt>
</event>
<event>
 6    1  0.1585031E-006  0.2627445E+04  0.7818608E-02  0.8358938E-01
          2   -1    0    0  501    0  0.00000000000E+00  0.00000000000E+00  0.22784437223E+04  0.22784437223E+04  0.00000000000E+00 0. -1.
         -2   -1    0    0    0  501 -0.00000000000E+00 -0.00000000000E+00 -0.75747603338E+03  0.75747603338E+03  0.00000000000E+00 0.  1.
         23    2    1    2    0    0  0.11311026543E+04  0.65950370463E+03  0.66167487545E+03  0.14698027453E+04  0.90377642937E+02 0.  0.
         11    1    3    3    0    0  0.37480066519E+03  0.24591457660E+03  0.18666286422E+03  0.48558474285E+03  0.00000000000E+00 0. -1.
        -11    1    3    3    0    0  0.75630198910E+03  0.41358912802E+03  0.47501201123E+03  0.98421800245E+03  0.00000000000E+00 0.  1.
         22    1    1    2    0    0 -0.11311026543E+04 -0.65950370463E+03  0.85929281350E+03  0.15661170104E+04  0.00000000000E+00 0. -1.
<mgrwt>
<rscale>  0 0.26274448E+04</rscale>
<asrwt>0</asrwt>
<pdfrwt beam="1">  1        2 0.35052980E+00 0.26274448E+04</pdfrwt>
<pdfrwt beam="2">  1       -2 0.11653478E+00 0.26274448E+04</pdfrwt>
<totfact> 0.23488741E+00</totfact>
</mgrwt>
</event>
<event>
 6    1  0.1585031E-006  0.2446513E+04  0.7818608E-02  0.8422292E-01
         -1   -1    0    0    0  501 -0.00000000000E+00  0.00000000000E+00  0.15244670505E+04  0.15244670505E+04  0.00000000000E+00 0.  1.
          1   -1    0    0  501    0  0.00000000000E+00 -0.00000000000E+00 -0.98156034660E+03  0.98156034660E+03  0.00000000000E+00 0. -1.
         23    2    1    2    0    0 -0.17786554944E+03  0.88936211089E+03 -0.56654613670E+03  0.10730281914E+04  0.88396021689E+02 0.  0.
         13    1    3    3    0    0 -0.14596522123E+03  0.53208324304E+03 -0.32085724278E+03  0.63825370628E+03  0.00000000000E+00 0. -1.
        -13    1    3    3    0    0 -0.31900328206E+02  0.35727886785E+03 -0.24568889392E+03  0.43477448516E+03  0.00000000000E+00 0.  1.
         22    1    1    2    0    0  0.17786554944E+03 -0.88936211089E+03  0.11094528406E+04  0.14329992057E+04  0.00000000000E+00 0.  1.
<mgrwt>
<rscale>  0 0.24465130E+04</rscale>
<asrwt>0</asrwt>
<pdfrwt beam="1">  1        1 0.15100929E+00 0.24465130E+04</pdfrwt>
<pdfrwt beam="2">  1       -1 0.23453339E+00 0.24465130E+04</pdfrwt>
<totfact> 0.12299084E+00</totfact>
</mgrwt>
</event>
<event>
 6    1  0.1585031E-006  0.1085474E+04  0.7818608E-02  0.9219467E-01
         -1   -1    0    0    0  501 -0.00000000000E+00  0.00000000000E+00  0.43771564022E+03  0.43771564022E+03  0.00000000000E+00 0.  1.
          1   -1    0    0  501    0  0.00000000000E+00 -0.00000000000E+00 -0.67295575227E+03  0.67295575227E+03  0.00000000000E+00 0. -1.
         23    2    1    2    0    0 -0.96840356168E+01  0.97538296920E+02 -0.66089544617E+03  0.67387628792E+03  0.87857616313E+02 0.  0.
         11    1    3    3    0    0 -0.35916653165E+02  0.72150179180E+02 -0.28392882217E+03  0.29514611702E+03  0.00000000000E+00 0.  1.
        -11    1    3    3    0    0  0.26232617548E+02  0.25388117741E+02 -0.37696662400E+03  0.37873017091E+03  0.00000000000E+00 0. -1.
         22    1    1    2    0    0  0.96840356168E+01 -0.97538296920E+02  0.42565533412E+03  0.43679510457E+03  0.00000000000E+00 0.  1.
<mgrwt>
<rscale>  0 0.10854736E+04</rscale>
<asrwt>0</asrwt>
<pdfrwt beam="1">  1        1 0.10353165E+00 0.10854736E+04</pdfrwt>
<pdfrwt beam="2">  1       -1 0.67340868E-01 0.10854736E+04</pdfrwt>
<totfact> 0.64441827E+01</totfact>
</mgrwt>
</event>
<event>
 6    1  0.1585031E-006  0.3500155E+04  0.7818608E-02  0.8113753E-01
         -1   -1    0    0    0  501 -0.00000000000E+00  0.00000000000E+00  0.22976136235E+04  0.22976136235E+04  0.00000000000E+00 0.  1.
          1   -1    0    0  501    0  0.00000000000E+00 -0.00000000000E+00 -0.13330229392E+04  0.13330229392E+04  0.00000000000E+00 0. -1.
         23    2    1    2    0    0  0.15006650435E+04 -0.65612346834E+03  0.11189563580E+04  0.19855461883E+04  0.88525454910E+02 0.  0.
         13    1    3    3    0    0  0.28634259382E+03 -0.15703040650E+03  0.19903837257E+03  0.38244856302E+03  0.00000000000E+00 0. -1.
        -13    1    3    3    0    0  0.12143224497E+04 -0.49909306184E+03  0.91991798539E+03  0.16030976253E+04  0.00000000000E+00 0.  1.
         22    1    1    2    0    0 -0.15006650435E+04  0.65612346834E+03 -0.15436567365E+03  0.16450903744E+04  0.00000000000E+00 0. -1.
<mgrwt>
<rscale>  0 0.35001552E+04</rscale>
<asrwt>0</asrwt>
<pdfrwt beam="1">  1        1 0.20508045E+00 0.35001552E+04</pdfrwt>
<pdfrwt beam="2">  1       -1 0.35347902E+00 0.35001552E+04</pdfrwt>
<totfact> 0.10293441E-01</totfact>
</mgrwt>
</event>
<event>
 6    1  0.1585031E-006  0.2153258E+04  0.7818608E-02  0.8538139E-01
          2   -1    0    0  501    0  0.00000000000E+00  0.00000000000E+00  0.14233828354E+04  0.14233828354E+04  0.00000000000E+00 0. -1.
         -2   -1    0    0    0  501 -0.00000000000E+00 -0.00000000000E+00 -0.81434910227E+03  0.81434910227E+03  0.00000000000E+00 0.  1.
         23    2    1    2    0    0 -0.69737600192E+03  0.64848514122E+03 -0.21238023950E+03  0.98012024052E+03  0.93080896610E+02 0.  0.
         11    1    3    3    0    0 -0.49864448341E+03  0.45758037669E+03 -0.19354375848E+03  0.70390717315E+03  0.00000000000E+00 0.  1.
        -11    1    3    3    0    0 -0.19873151850E+03  0.19090476453E+03 -0.18836481023E+02  0.27621306737E+03  0.00000000000E+00 0. -1.
         22    1    1    2    0    0  0.69737600192E+03 -0.64848514122E+03  0.82141397268E+03  0.12576116972E+04  0.00000000000E+00 0. -1.
<mgrwt>
<rscale>  0 0.21532585E+04</rscale>
<asrwt>0</asrwt>
<pdfrwt beam="1">  1        2 0.21898197E+00 0.21532585E+04</pdfrwt>
<pdfrwt beam="2">  1       -2 0.12528448E+00 0.21532585E+04</pdfrwt>
<totfact> 0.61391880E+00</totfact>
</mgrwt>
</event>
<event>
 6    1  0.1585031E-006  0.2385475E+04  0.7818608E-02  0.8444962E-01
         -1   -1    0    0    0  501 -0.00000000000E+00  0.00000000000E+00  0.92176554989E+03  0.92176554989E+03  0.00000000000E+00 0.  1.
          1   -1    0    0  501    0  0.00000000000E+00 -0.00000000000E+00 -0.15433674452E+04  0.15433674452E+04  0.00000000000E+00 0. -1.
         23    2    1    2    0    0  0.11799747981E+04  0.35336078867E+02 -0.47468767664E+03  0.12755225756E+04  0.89667651360E+02 0.  0.
         11    1    3    3    0    0  0.51090292489E+03  0.30449785041E+02 -0.25090220652E+03  0.57000079413E+03  0.00000000000E+00 0. -1.
        -11    1    3    3    0    0  0.66907187324E+03  0.48862938253E+01 -0.22378547012E+03  0.70552178143E+03  0.00000000000E+00 0.  1.
         22    1    1    2    0    0 -0.11799747981E+04 -0.35336078867E+02 -0.14691421870E+03  0.11896104196E+04  0.00000000000E+00 0.  1.
<mgrwt>
<rscale>  0 0.23854752E+04</rscale>
<asrwt>0</asrwt>
<pdfrwt beam="1">  1        1 0.23744114E+00 0.23854752E+04</pdfrwt>
<pdfrwt beam="2">  1       -1 0.14181009E+00 0.23854752E+04</pdfrwt>
<totfact> 0.22197733E+00</totfact>
</mgrwt>
</event>
<event>
 6    1  0.1585031E-006  0.2207137E+04  0.7818608E-02  0.8515464E-01
          2   -1    0    0  501    0  0.00000000000E+00  0.00000000000E+00  0.12830555325E+04  0.12830555325E+04  0.00000000000E+00 0. -1.
         -2   -1    0    0    0  501 -0.00000000000E+00 -0.00000000000E+00 -0.94918969438E+03  0.94918969438E+03  0.00000000000E+00 0.  1.
         23    2    1    2    0    0 -0.56189978839E+03  0.80500779915E+03 -0.33831590208E+03  0.10424564974E+04  0.92135609382E+02 0.  0.
         13    1    3    3    0    0 -0.50747811654E+03  0.73625172536E+03 -0.33438759621E+03  0.95468094480E+03  0.00000000000E+00 0.  1.
        -13    1    3    3    0    0 -0.54421671853E+02  0.68756073790E+02 -0.39283058704E+01  0.87775552618E+02  0.00000000000E+00 0. -1.
         22    1    1    2    0    0  0.56189978839E+03 -0.80500779915E+03  0.67218174018E+03  0.11897887294E+04  0.00000000000E+00 0. -1.
<mgrwt>
<rscale>  0 0.22071367E+04</rscale>
<asrwt>0</asrwt>
<pdfrwt beam="1">  1        2 0.19739316E+00 0.22071367E+04</pdfrwt>
<pdfrwt beam="2">  1       -2 0.14602918E+00 0.22071367E+04</pdfrwt>
<totfact> 0.49700494E+00</totfact>
</mgrwt>
</event>
<event>
 6    1  0.1585031E-006  0.1005321E+04  0.7818608E-02  0.9302728E-01
          1   -1    0    0  501    0  0.00000000000E+00  0.00000000000E+00  0.10289189240E+04  0.10289189240E+04  0.00000000000E+00 0. -1.
         -1   -1    0    0    0  501 -0.00000000000E+00 -0.00000000000E+00 -0.24556616889E+03  0.24556616889E+03  0.00000000000E+00 0.  1.
         23    2    1    2    0    0  0.30143143167E+03  0.35270357504E+02 -0.10637431306E+03  0.33442171100E+03  0.91746826596E+02 0.  0.
         11    1    3    3    0    0  0.35459738363E+02 -0.52039409643E+01 -0.46668770495E+02  0.58842571203E+02  0.00000000000E+00 0.  1.
        -11    1    3    3    0    0  0.26597169331E+03  0.40474298468E+02 -0.59705542570E+02  0.27557913979E+03  0.00000000000E+00 0. -1.
         22    1    1    2    0    0 -0.30143143167E+03 -0.35270357504E+02  0.88972706816E+03  0.94006338187E+03  0.00000000000E+00 0. -1.
<mgrwt>
<rscale>  0 0.10053212E+04</rscale>
<asrwt>0</asrwt>
<pdfrwt beam="1">  1        1 0.15829522E+00 0.10053212E+04</pdfrwt>
<pdfrwt beam="2">  1       -1 0.37779411E-01 0.10053212E+04</pdfrwt>
<totfact> 0.97239633E+01</totfact>
</mgrwt>
</event>
<event>
 6    1  0.1585031E-006  0.3329850E+04  0.7818608E-02  0.8155341E-01
          2   -1    0    0  501    0  0.00000000000E+00  0.00000000000E+00  0.39263168164E+04  0.39263168164E+04  0.00000000000E+00 0. -1.
         -2   -1    0    0    0  501 -0.00000000000E+00 -0.00000000000E+00 -0.70599888956E+03  0.70599888956E+03  0.00000000000E+00 0.  1.
         23    2    1    2    0    0  0.35646897690E+03 -0.16121782244E+04  0.13278182858E+04  0.21207935281E+04  0.92059925536E+02 0.  0.
         13    1    3    3    0    0  0.21192186178E+03 -0.96144037285E+03  0.73342317855E+03  0.12276758631E+04  0.00000000000E+00 0.  1.
        -13    1    3    3    0    0  0.14454711512E+03 -0.65073785154E+03  0.59439510730E+03  0.89311766498E+03  0.00000000000E+00 0. -1.
         22    1    1    2    0    0 -0.35646897690E+03  0.16121782244E+04  0.18924996409E+04  0.25115221778E+04  0.00000000000E+00 0.  1.
<mgrwt>
<rscale>  0 0.33298500E+04</rscale>
<asrwt>0</asrwt>
<pdfrwt beam="1">  1        2 0.60404873E+00 0.33298500E+04</pdfrwt>
<pdfrwt beam="2">  1       -2 0.10861522E+00 0.33298500E+04</pdfrwt>
<totfact> 0.22075889E-01</totfact>
</mgrwt>
</event>
<event>
 6    1  0.1585031E-006  0.2666498E+04  0.7818608E-02  0.8345958E-01
         -2   -1    0    0    0  501 -0.00000000000E+00  0.00000000000E+00  0.40990223595E+03  0.40990223595E+03  0.00000000000E+00 0. -1.
          2   -1    0    0  501    0  0.00000000000E+00 -0.00000000000E+00 -0.43365275990E+04  0.43365275990E+04  0.00000000000E+00 0.  1.
         23    2    1    2    0    0  0.63022534766E+03  0.45138781936E+03 -0.41061630889E+02  0.78429146420E+03  0.11176802315E+03 0.  0.
         11    1    3    3    0    0  0.34987180071E+03  0.31104034782E+03 -0.37698981960E+00  0.46814155661E+03  0.00000000000E+00 0.  1.
        -11    1    3    3    0    0  0.28035354695E+03  0.14034747153E+03 -0.40684641069E+02  0.31614990759E+03  0.00000000000E+00 0. -1.
         22    1    1    2    0    0 -0.63022534766E+03 -0.45138781936E+03 -0.38855637322E+04  0.39621383708E+04  0.00000000000E+00 0.  1.
<mgrwt>
<rscale>  0 0.26664976E+04</rscale>
<asrwt>0</asrwt>
<pdfrwt beam="1">  1        2 0.66715805E+00 0.26664976E+04</pdfrwt>
<pdfrwt beam="2">  1       -2 0.63061887E-01 0.26664976E+04</pdfrwt>
<totfact> 0.36113400E-01</totfact>
</mgrwt>
</event>
<event>
 6    1  0.1585031E-006  0.1820082E+04  0.7818608E-02  0.8695692E-01
          2   -1    0    0  501    0  0.00000000000E+00  0.00000000000E+00  0.39072272624E+03  0.39072272624E+03  0.00000000000E+00 0.  1.
         -2   -1    0    0    0  501 -0.00000000000E+00 -0.00000000000E+00 -0.21195969158E+04  0.21195969158E+04  0.00000000000E+00 0. -1.
         23    2    1    2    0    0 -0.60323329274E+03  0.67408199985E+03 -0.96862485998E+03  0.13286868771E+04  0.94327885947E+02 0.  0.
         11    1    3    3    0    0 -0.41602380822E+03  0.41649186951E+03 -0.58198138241E+03  0.82779442850E+03  0.00000000000E+00 0. -1.
        -11    1    3    3    0    0 -0.18720948452E+03  0.25759013034E+03 -0.38664347757E+03  0.50089244862E+03  0.00000000000E+00 0.  1.
         22    1    1    2    0    0  0.60323329274E+03 -0.67408199985E+03 -0.76024932959E+03  0.11816327649E+04  0.00000000000E+00 0.  1.
<mgrwt>
<rscale>  0 0.18200821E+04</rscale>
<asrwt>0</asrwt>
<pdfrwt beam="1">  1        2 0.60111191E-01 0.18200821E+04</pdfrwt>
<pdfrwt beam="2">  1       -2 0.32609182E+00 0.18200821E+04</pdfrwt>
<totfact> 0.16940215E+00</totfact>
</mgrwt>
</event>
<event>
 6    1  0.1933379E-006  0.3789838E+04  0.7818608E-02  0.8048339E-01
          1   -1    0    0  501    0  0.00000000000E+00  0.00000000000E+00  0.18287753935E+04  0.18287753935E+04  0.00000000000E+00 0. -1.
         -1   -1    0    0    0  501 -0.00000000000E+00 -0.00000000000E+00 -0.19634554007E+04  0.19634554007E+04  0.00000000000E+00 0.  1.
         23    2    1    2    0    0 -0.14049844356E+04 -0.11191659249E+04  0.53309603971E+03  0.18758700556E+04  0.90462402922E+02 0.  0.
         11    1    3    3    0    0 -0.40218651687E+03 -0.37344850727E+03  0.16609423116E+03  0.57341527322E+03  0.00000000000E+00 0.  1.
        -11    1    3    3    0    0 -0.10027979187E+04 -0.74571741761E+03  0.36700180855E+03  0.13024547824E+04  0.00000000000E+00 0. -1.
         22    1    1    2    0    0  0.14049844356E+04  0.11191659249E+04 -0.66777604683E+03  0.19163607386E+04  0.00000000000E+00 0.  1.
<mgrwt>
<rscale>  0 0.37898385E+04</rscale>
<asrwt>0</asrwt>
<pdfrwt beam="1">  1        1 0.28135006E+00 0.37898385E+04</pdfrwt>
<pdfrwt beam="2">  1       -1 0.30207006E+00 0.37898385E+04</pdfrwt>
<totfact> 0.99299361E-02</totfact>
</mgrwt>
</event>
<event>
 6    1  0.1585031E-006  0.3560746E+04  0.7818608E-02  0.8099543E-01
          2   -1    0    0  501    0  0.00000000000E+00  0.00000000000E+00  0.19143249505E+04  0.19143249505E+04  0.00000000000E+00 0.  1.
         -2   -1    0    0    0  501 -0.00000000000E+00 -0.00000000000E+00 -0.16557945306E+04  0.16557945306E+04  0.00000000000E+00 0. -1.
         23    2    1    2    0    0 -0.29854635545E+03 -0.15763220627E+04  0.90053081484E+03  0.18420900604E+04  0.91754403579E+02 0.  0.
         13    1    3    3    0    0 -0.14147656518E+03 -0.88800826802E+03  0.46166881546E+03  0.10107979015E+04  0.00000000000E+00 0.  1.
        -13    1    3    3    0    0 -0.15706979027E+03 -0.68831379469E+03  0.43886199938E+03  0.83129215891E+03  0.00000000000E+00 0. -1.
         22    1    1    2    0    0  0.29854635545E+03  0.15763220627E+04 -0.64200039495E+03  0.17280294207E+04  0.00000000000E+00 0. -1.
<mgrwt>
<rscale>  0 0.35607464E+04</rscale>
<asrwt>0</asrwt>
<pdfrwt beam="1">  1        2 0.29451153E+00 0.35607464E+04</pdfrwt>
<pdfrwt beam="2">  1       -2 0.25473762E+00 0.35607464E+04</pdfrwt>
<totfact> 0.36636045E-01</totfact>
</mgrwt>
</event>
<event>
 6    1  0.1585031E-006  0.1975143E+04  0.7818608E-02  0.8618331E-01
          1   -1    0    0  501    0  0.00000000000E+00  0.00000000000E+00  0.15576091967E+04  0.15576091967E+04  0.00000000000E+00 0. -1.
         -1   -1    0    0    0  501 -0.00000000000E+00 -0.00000000000E+00 -0.62615016327E+03  0.62615016327E+03  0.00000000000E+00 0.  1.
         23    2    1    2    0    0  0.57345449883E+03 -0.78421354069E+03  0.28406760282E+03  0.10163020357E+04  0.91293401332E+02 0.  0.
         11    1    3    3    0    0  0.52240551543E+03 -0.67399543193E+03  0.26745248164E+03  0.89370475815E+03  0.00000000000E+00 0. -1.
        -11    1    3    3    0    0  0.51048983402E+02 -0.11021810877E+03  0.16615121185E+02  0.12259727753E+03  0.00000000000E+00 0.  1.
         22    1    1    2    0    0 -0.57345449883E+03  0.78421354069E+03  0.64739143064E+03  0.11674573243E+04  0.00000000000E+00 0. -1.
<mgrwt>
<rscale>  0 0.19751428E+04</rscale>
<asrwt>0</asrwt>
<pdfrwt beam="1">  1        1 0.23963218E+00 0.19751428E+04</pdfrwt>
<pdfrwt beam="2">  1       -1 0.96330795E-01 0.19751428E+04</pdfrwt>
<totfact> 0.57568940E+00</totfact>
</mgrwt>
</event>
<event>
 6    1  0.1585031E-006  0.1002140E+04  0.7818608E-02  0.9306201E-01
          1   -1    0    0  501    0  0.00000000000E+00  0.00000000000E+00  0.13646514514E+04  0.13646514514E+04  0.00000000000E+00 0. -1.
         -1   -1    0    0    0  501 -0.00000000000E+00 -0.00000000000E+00 -0.18398176483E+03  0.18398176483E+03  0.00000000000E+00 0.  1.
         23    2    1    2    0    0 -0.92191858862E+02 -0.10356549310E+03  0.13326768059E+04  0.13428874642E+04  0.89967340639E+02 0.  0.
         11    1    3    3    0    0 -0.32874598134E+01  0.27636891828E+01  0.39493601758E+03  0.39495936924E+03  0.00000000000E+00 0. -1.
        -11    1    3    3    0    0 -0.88904399049E+02 -0.10632918228E+03  0.93774078828E+03  0.94792809494E+03  0.00000000000E+00 0.  1.
         22    1    1    2    0    0  0.92191858862E+02  0.10356549310E+03 -0.15200711925E+03  0.20574575209E+03  0.00000000000E+00 0.  1.
<mgrwt>
<rscale>  0 0.10021397E+04</rscale>
<asrwt>0</asrwt>
<pdfrwt beam="1">  1        1 0.20994637E+00 0.10021397E+04</pdfrwt>
<pdfrwt beam="2">  1       -1 0.28304888E-01 0.10021397E+04</pdfrwt>
<totfact> 0.92097215E+01</totfact>
</mgrwt>
</event>
<event>
 6    1  0.1585031E-006  0.1192635E+04  0.7818608E-02  0.9119328E-01
         -2   -1    0    0    0  501 -0.00000000000E+00  0.00000000000E+00  0.85498080132E+03  0.85498080132E+03  0.00000000000E+00 0.  1.
          2   -1    0    0  501    0  0.00000000000E+00 -0.00000000000E+00 -0.41590923145E+03  0.41590923145E+03  0.00000000000E+00 0. -1.
         23    2    1    2    0    0  0.51145591717E+02 -0.31290605541E+03  0.75471771766E+03  0.82349919505E+03  0.89588056318E+02 0.  0.
         13    1    3    3    0    0  0.64551101994E+02 -0.14739280500E+03  0.42221928513E+03  0.45184135321E+03  0.00000000000E+00 0.  1.
        -13    1    3    3    0    0 -0.13405510277E+02 -0.16551325041E+03  0.33249843252E+03  0.37165784184E+03  0.00000000000E+00 0. -1.
         22    1    1    2    0    0 -0.51145591717E+02  0.31290605541E+03 -0.31564614778E+03  0.44739083772E+03  0.00000000000E+00 0. -1.
<mgrwt>
<rscale>  0 0.11926347E+04</rscale>
<asrwt>0</asrwt>
<pdfrwt beam="1">  1        2 0.63986036E-01 0.11926347E+04</pdfrwt>
<pdfrwt beam="2">  1       -2 0.13153551E+00 0.11926347E+04</pdfrwt>
<totfact> 0.31641341E+01</totfact>
</mgrwt>
</event>
<event>
 6    1  0.1585031E-006  0.5207302E+04  0.7818608E-02  0.7797301E-01
          2   -1    0    0  501    0  0.00000000000E+00  0.00000000000E+00  0.41008599804E+04  0.41008599804E+04  0.00000000000E+00 0. -1.
         -2   -1    0    0    0  501 -0.00000000000E+00 -0.00000000000E+00 -0.16530674883E+04  0.16530674883E+04  0.00000000000E+00 0.  1.
         23    2    1    2    0    0 -0.18190244691E+04  0.84491308958E+03 -0.60883996531E+03  0.20980103296E+04  0.90736385334E+02 0.  0.
         11    1    3    3    0    0 -0.10742501886E+04  0.51301135998E+03 -0.31660411117E+03  0.12318410151E+04  0.00000000000E+00 0. -1.
        -11    1    3    3    0    0 -0.74477428047E+03  0.33190172961E+03 -0.29223585414E+03  0.86616931452E+03  0.00000000000E+00 0.  1.
         22    1    1    2    0    0  0.18190244691E+04 -0.84491308958E+03  0.30566324574E+04  0.36559171391E+04  0.00000000000E+00 0. -1.
<mgrwt>
<rscale>  0 0.52073019E+04</rscale>
<asrwt>0</asrwt>
<pdfrwt beam="1">  1        2 0.63090153E+00 0.52073019E+04</pdfrwt>
<pdfrwt beam="2">  1       -2 0.25431808E+00 0.52073019E+04</pdfrwt>
<totfact> 0.12162689E-02</totfact>
</mgrwt>
</event>
<event>
 6    1  0.1585031E-006  0.1665788E+04  0.7818608E-02  0.8781121E-01
          1   -1    0    0  501    0  0.00000000000E+00  0.00000000000E+00  0.10130872659E+04  0.10130872659E+04  0.00000000000E+00 0. -1.
         -1   -1    0    0    0  501 -0.00000000000E+00 -0.00000000000E+00 -0.68475102034E+03  0.68475102034E+03  0.00000000000E+00 0.  1.
         23    2    1    2    0    0  0.58899153130E+02  0.15816205559E+03 -0.66406761471E+03  0.69118553183E+03  0.90924674516E+02 0.  0.
         11    1    3    3    0    0  0.64821058925E+02  0.11076001381E+03 -0.58413290298E+03  0.59806420950E+03  0.00000000000E+00 0. -1.
        -11    1    3    3    0    0 -0.59219057943E+01  0.47402041784E+02 -0.79934711734E+02  0.93121322335E+02  0.00000000000E+00 0.  1.
         22    1    1    2    0    0 -0.58899153130E+02 -0.15816205559E+03  0.99240386026E+03  0.10066527544E+04  0.00000000000E+00 0. -1.
<mgrwt>
<rscale>  0 0.16657881E+04</rscale>
<asrwt>0</asrwt>
<pdfrwt beam="1">  1        1 0.15585958E+00 0.16657881E+04</pdfrwt>
<pdfrwt beam="2">  1       -1 0.10534631E+00 0.16657881E+04</pdfrwt>
<totfact> 0.11918400E+01</totfact>
</mgrwt>
</event>
<event>
 6    1  0.1585031E-006  0.2544697E+04  0.7818608E-02  0.8387233E-01
         -1   -1    0    0    0  501 -0.00000000000E+00  0.00000000000E+00  0.82869342350E+03  0.82869342350E+03  0.00000000000E+00 0.  1.
          1   -1    0    0  501    0  0.00000000000E+00 -0.00000000000E+00 -0.19535219730E+04  0.19535219730E+04  0.00000000000E+00 0. -1.
         23    2    1    2    0    0 -0.44981549838E+03 -0.38678972355E+03 -0.17917705066E+04  0.18896058250E+04  0.90710267429E+02 0.  0.
         13    1    3    3    0    0 -0.39836334386E+03 -0.33248425396E+03 -0.14587542974E+04  0.15482904227E+04  0.00000000000E+00 0. -1.
        -13    1    3    3    0    0 -0.51452154523E+02 -0.54305469589E+02 -0.33301620925E+03  0.34131540232E+03  0.00000000000E+00 0.  1.
         22    1    1    2    0    0  0.44981549838E+03  0.38678972355E+03  0.66694195717E+03  0.89260957146E+03  0.00000000000E+00 0.  1.
<mgrwt>
<rscale>  0 0.25446971E+04</rscale>
<asrwt>0</asrwt>
<pdfrwt beam="1">  1        1 0.30054184E+00 0.25446971E+04</pdfrwt>
<pdfrwt beam="2">  1       -1 0.12749130E+00 0.25446971E+04</pdfrwt>
<totfact> 0.15103941E+00</totfact>
</mgrwt>
</event>
<event>
 6    1  0.1585031E-006  0.1647640E+04  0.7818608E-02  0.8791804E-01
          2   -1    0    0  501    0  0.00000000000E+00  0.00000000000E+00  0.30004966173E+03  0.30004966173E+03  0.00000000000E+00 0. -1.
         -2   -1    0    0    0  501 -0.00000000000E+00 -0.00000000000E+00 -0.22618891049E+04  0.22618891049E+04  0.00000000000E+00 0.  1.
         23    2    1    2    0    0  0.61034190433E+03  0.50984115445E+03 -0.13017769306E+04  0.15284312613E+04  0.94993161010E+02 0.  0.
         11    1    3    3    0    0  0.20610094163E+03  0.18403167078E+03 -0.53943834402E+03  0.60608496186E+03  0.00000000000E+00 0. -1.
        -11    1    3    3    0    0  0.40424096271E+03  0.32580948367E+03 -0.76233858658E+03  0.92234629948E+03  0.00000000000E+00 0.  1.
         22    1    1    2    0    0 -0.61034190433E+03 -0.50984115445E+03 -0.66006251254E+03  0.10335075053E+04  0.00000000000E+00 0.  1.
<mgrwt>
<rscale>  0 0.16476396E+04</rscale>
<asrwt>0</asrwt>
<pdfrwt beam="1">  1        2 0.46161488E-01 0.16476396E+04</pdfrwt>
<pdfrwt beam="2">  1       -2 0.34798293E+00 0.16476396E+04</pdfrwt>
<totfact> 0.16887975E+00</totfact>
</mgrwt>
</event>
<event>
 6    1  0.1585031E-006  0.1089176E+04  0.7818608E-02  0.9215807E-01
          1   -1    0    0  501    0  0.00000000000E+00  0.00000000000E+00  0.14977849558E+03  0.14977849558E+03  0.00000000000E+00 0. -1.
         -1   -1    0    0    0  501 -0.00000000000E+00 -0.00000000000E+00 -0.19800962391E+04  0.19800962391E+04  0.00000000000E+00 0.  1.
         23    2    1    2    0    0 -0.38821874827E+03  0.37647110023E+03 -0.93012539176E+03  0.10797363838E+04  0.90846729708E+02 0.  0.
         13    1    3    3    0    0 -0.51668127721E+02  0.83380416533E+02 -0.12172001054E+03  0.15632546258E+03  0.00000000000E+00 0. -1.
        -13    1    3    3    0    0 -0.33655062055E+03  0.29309068370E+03 -0.80840538122E+03  0.92341092123E+03  0.00000000000E+00 0.  1.
         22    1    1    2    0    0  0.38821874827E+03 -0.37647110023E+03 -0.90019235175E+03  0.10501383509E+04  0.00000000000E+00 0.  1.
<mgrwt>
<rscale>  0 0.10891755E+04</rscale>
<asrwt>0</asrwt>
<pdfrwt beam="1">  1        1 0.23042846E-01 0.10891755E+04</pdfrwt>
<pdfrwt beam="2">  1       -1 0.30463019E+00 0.10891755E+04</pdfrwt>
<totfact> 0.67502658E+00</totfact>
</mgrwt>
</event>
<event>
 6    1  0.1585031E-006  0.1577344E+04  0.7818608E-02  0.8834589E-01
         -1   -1    0    0    0  501 -0.00000000000E+00  0.00000000000E+00  0.13515032543E+04  0.13515032543E+04  0.00000000000E+00 0.  1.
          1   -1    0    0  501    0  0.00000000000E+00 -0.00000000000E+00 -0.46023088567E+03  0.46023088567E+03  0.00000000000E+00 0. -1.
         23    2    1    2    0    0 -0.50230795115E+03  0.57485088555E+03  0.23212946582E+03  0.80315286673E+03  0.91671260626E+02 0.  0.
         11    1    3    3    0    0 -0.14618886226E+03  0.22333116928E+03  0.56485774773E+02  0.27283445049E+03  0.00000000000E+00 0. -1.
        -11    1    3    3    0    0 -0.35611908889E+03  0.35151971626E+03  0.17564369104E+03  0.53031841623E+03  0.00000000000E+00 0.  1.
         22    1    1    2    0    0  0.50230795115E+03 -0.57485088555E+03  0.65914290279E+03  0.10085812732E+04  0.00000000000E+00 0. -1.
<mgrwt>
<rscale>  0 0.15773440E+04</rscale>
<asrwt>0</asrwt>
<pdfrwt beam="1">  1        1 0.70804752E-01 0.15773440E+04</pdfrwt>
<pdfrwt beam="2">  1       -1 0.20792358E+00 0.15773440E+04</pdfrwt>
<totfact> 0.63393802E+00</totfact>
</mgrwt>
</event>
<event>
 6    1  0.1585031E-006  0.2040777E+04  0.7818608E-02  0.8587790E-01
          2   -1    0    0  501    0  0.00000000000E+00  0.00000000000E+00  0.19840130679E+04  0.19840130679E+04  0.00000000000E+00 0.  1.
         -2   -1    0    0    0  501 -0.00000000000E+00 -0.00000000000E+00 -0.52479133791E+03  0.52479133791E+03  0.00000000000E+00 0. -1.
         23    2    1    2    0    0 -0.37049244384E+02 -0.10172074617E+04  0.69282083084E+03  0.12346560609E+04  0.91056127540E+02 0.  0.
         13    1    3    3    0    0  0.30554792499E+02 -0.29285871386E+03  0.19862885214E+03  0.35518057736E+03  0.00000000000E+00 0.  1.
        -13    1    3    3    0    0 -0.67604036884E+02 -0.72434874784E+03  0.49419197870E+03  0.87947548352E+03  0.00000000000E+00 0. -1.
         22    1    1    2    0    0  0.37049244384E+02  0.10172074617E+04  0.76640089911E+03  0.12741483449E+04  0.00000000000E+00 0.  1.
<mgrwt>
<rscale>  0 0.20407772E+04</rscale>
<asrwt>0</asrwt>
<pdfrwt beam="1">  1        2 0.30523278E+00 0.20407772E+04</pdfrwt>
<pdfrwt beam="2">  1       -2 0.80737130E-01 0.20407772E+04</pdfrwt>
<totfact> 0.85496672E+00</totfact>
</mgrwt>
</event>
<event>
 6    1  0.1585031E-006  0.1494633E+04  0.7818608E-02  0.8888030E-01
          2   -1    0    0  501    0  0.00000000000E+00  0.00000000000E+00  0.45819891432E+03  0.45819891432E+03  0.00000000000E+00 0. -1.
         -2   -1    0    0    0  501 -0.00000000000E+00 -0.00000000000E+00 -0.12188631150E+04  0.12188631150E+04  0.00000000000E+00 0.  1.
         23    2    1    2    0    0 -0.61719662011E+03  0.64816452211E+02  0.79600338200E+02  0.63246768909E+03  0.92446327977E+02 0.  0.
         13    1    3    3    0    0 -0.39134922110E+03  0.81616796481E+02  0.32000483038E+02  0.40104805852E+03  0.00000000000E+00 0. -1.
        -13    1    3    3    0    0 -0.22584739900E+03 -0.16800344269E+02  0.47599855162E+02  0.23141963057E+03  0.00000000000E+00 0.  1.
         22    1    1    2    0    0  0.61719662011E+03 -0.64816452211E+02 -0.84026453888E+03  0.10445943402E+04  0.00000000000E+00 0.  1.
<mgrwt>
<rscale>  0 0.14946327E+04</rscale>
<asrwt>0</asrwt>
<pdfrwt beam="1">  1        2 0.70492140E-01 0.14946327E+04</pdfrwt>
<pdfrwt beam="2">  1       -2 0.18751740E+00 0.14946327E+04</pdfrwt>
<totfact> 0.10595190E+01</totfact>
</mgrwt>
</event>
<event>
 6    1  0.1585031E-006  0.2773316E+04  0.7818608E-02  0.8311601E-01
          2   -1    0    0  501    0  0.00000000000E+00  0.00000000000E+00  0.92289543326E+03  0.92289543326E+03  0.00000000000E+00 0. -1.
         -2   -1    0    0    0  501 -0.00000000000E+00 -0.00000000000E+00 -0.20834656696E+04  0.20834656696E+04  0.00000000000E+00 0.  1.
         23    2    1    2    0    0  0.36809883592E+03 -0.13375691418E+03 -0.20212160421E+04  0.20607930894E+04  0.90367046299E+02 0.  0.
         13    1    3    3    0    0  0.13674807233E+03 -0.15510581694E+02 -0.56041633041E+03  0.57706765359E+03  0.00000000000E+00 0.  1.
        -13    1    3    3    0    0  0.23135076358E+03 -0.11824633249E+03 -0.14607997117E+04  0.14837254358E+04  0.00000000000E+00 0. -1.
         22    1    1    2    0    0 -0.36809883592E+03  0.13375691418E+03  0.86064580580E+03  0.94556801349E+03  0.00000000000E+00 0. -1.
<mgrwt>
<rscale>  0 0.27733164E+04</rscale>
<asrwt>0</asrwt>
<pdfrwt beam="1">  1        2 0.14198391E+00 0.27733164E+04</pdfrwt>
<pdfrwt beam="2">  1       -2 0.32053318E+00 0.27733164E+04</pdfrwt>
<totfact> 0.58644575E-01</totfact>
</mgrwt>
</event>
<event>
 6    1  0.1585031E-006  0.1826226E+04  0.7818608E-02  0.8692476E-01
         -2   -1    0    0    0  501 -0.00000000000E+00  0.00000000000E+00  0.80920791014E+03  0.80920791014E+03  0.00000000000E+00 0.  1.
          2   -1    0    0  501    0  0.00000000000E+00 -0.00000000000E+00 -0.10303600597E+04  0.10303600597E+04  0.00000000000E+00 0. -1.
         23    2    1    2    0    0 -0.56373121958E+03  0.42343729074E+03  0.47006942890E+03  0.85220820883E+03  0.90562332689E+02 0.  0.
         13    1    3    3    0    0 -0.24992841964E+03  0.21155415435E+03  0.26731402297E+03  0.42270103151E+03  0.00000000000E+00 0. -1.
        -13    1    3    3    0    0 -0.31380279994E+03  0.21188313639E+03  0.20275540593E+03  0.42950717732E+03  0.00000000000E+00 0.  1.
         22    1    1    2    0    0  0.56373121958E+03 -0.42343729074E+03 -0.69122157845E+03  0.98735976099E+03  0.00000000000E+00 0. -1.
<mgrwt>
<rscale>  0 0.18262262E+04</rscale>
<asrwt>0</asrwt>
<pdfrwt beam="1">  1        2 0.15851693E+00 0.18262262E+04</pdfrwt>
<pdfrwt beam="2">  1       -2 0.12449353E+00 0.18262262E+04</pdfrwt>
<totfact> 0.10992921E+01</totfact>
</mgrwt>
</event>
<event>
 6    1  0.1585031E-006  0.3455336E+04  0.7818608E-02  0.8124457E-01
          1   -1    0    0  501    0  0.00000000000E+00  0.00000000000E+00  0.19156638152E+04  0.19156638152E+04  0.00000000000E+00 0. -1.
         -1   -1    0    0    0  501 -0.00000000000E+00 -0.00000000000E+00 -0.15581213804E+04  0.15581213804E+04  0.00000000000E+00 0.  1.
         23    2    1    2    0    0  0.15808499985E+04  0.30807104541E+03  0.80402044269E+03  0.18024572510E+04  0.91699414374E+02 0.  0.
         11    1    3    3    0    0  0.91577690278E+03  0.20513270797E+03  0.50930111315E+03  0.10677613907E+04  0.00000000000E+00 0.  1.
        -11    1    3    3    0    0  0.66507309575E+03  0.10293833743E+03  0.29471932954E+03  0.73469586034E+03  0.00000000000E+00 0. -1.
         22    1    1    2    0    0 -0.15808499985E+04 -0.30807104541E+03 -0.44647800791E+03  0.16713279446E+04  0.00000000000E+00 0.  1.
<mgrwt>
<rscale>  0 0.34553360E+04</rscale>
<asrwt>0</asrwt>
<pdfrwt beam="1">  1        1 0.29471751E+00 0.34553360E+04</pdfrwt>
<pdfrwt beam="2">  1       -1 0.23971098E+00 0.34553360E+04</pdfrwt>
<totfact> 0.22672504E-01</totfact>
</mgrwt>
</event>
<event>
 6    1  0.1585031E-006  0.2201964E+04  0.7818608E-02  0.8517611E-01
         -1   -1    0    0    0  501 -0.00000000000E+00  0.00000000000E+00  0.11456494360E+04  0.11456494360E+04  0.00000000000E+00 0.  1.
          1   -1    0    0  501    0  0.00000000000E+00 -0.00000000000E+00 -0.10580562087E+04  0.10580562087E+04  0.00000000000E+00 0. -1.
         23    2    1    2    0    0 -0.44962064430E+03 -0.22796331344E+03  0.10211464657E+04  0.11427402141E+04  0.94810845302E+02 0.  0.
         13    1    3    3    0    0 -0.51094330187E+02 -0.25694038785E+02  0.19799734203E+03  0.20609163413E+03  0.00000000000E+00 0. -1.
        -13    1    3    3    0    0 -0.39852631411E+03 -0.20226927466E+03  0.82314912365E+03  0.93664857993E+03  0.00000000000E+00 0.  1.
         22    1    1    2    0    0  0.44962064430E+03  0.22796331344E+03 -0.93355323840E+03  0.10609654306E+04  0.00000000000E+00 0. -1.
<mgrwt>
<rscale>  0 0.22019641E+04</rscale>
<asrwt>0</asrwt>
<pdfrwt beam="1">  1        1 0.16277788E+00 0.22019641E+04</pdfrwt>
<pdfrwt beam="2">  1       -1 0.17625376E+00 0.22019641E+04</pdfrwt>
<totfact> 0.27548365E+00</totfact>
</mgrwt>
</event>
<event>
 6    1  0.1585031E-006  0.1885206E+04  0.7818608E-02  0.8662256E-01
         -1   -1    0    0    0  501 -0.00000000000E+00  0.00000000000E+00  0.17692619774E+04  0.17692619774E+04  0.00000000000E+00 0.  1.
          1   -1    0    0  501    0  0.00000000000E+00 -0.00000000000E+00 -0.50218695350E+03  0.50218695350E+03  0.00000000000E+00 0. -1.
         23    2    1    2    0    0 -0.13917086641E+03  0.84312030894E+03  0.11080634452E+04  0.14022509860E+04  0.91010129434E+02 0.  0.
         13    1    3    3    0    0 -0.61633178237E+02  0.45252628812E+03  0.52051278224E+03  0.69246822784E+03  0.00000000000E+00 0.  1.
        -13    1    3    3    0    0 -0.77537688176E+02  0.39059402082E+03  0.58755066294E+03  0.70978275811E+03  0.00000000000E+00 0. -1.
         22    1    1    2    0    0  0.13917086641E+03 -0.84312030894E+03  0.15901157876E+03  0.86919794500E+03  0.00000000000E+00 0.  1.
<mgrwt>
<rscale>  0 0.18852059E+04</rscale>
<asrwt>0</asrwt>
<pdfrwt beam="1">  1        1 0.77259532E-01 0.18852059E+04</pdfrwt>
<pdfrwt beam="2">  1       -1 0.27219415E+00 0.18852059E+04</pdfrwt>
<totfact> 0.20644274E+00</totfact>
</mgrwt>
</event>
<event>
 6    1  0.1585031E-006  0.1092083E+04  0.7818608E-02  0.9212943E-01
         -1   -1    0    0    0  501 -0.00000000000E+00  0.00000000000E+00  0.19352317664E+03  0.19352317664E+03  0.00000000000E+00 0.  1.
          1   -1    0    0  501    0  0.00000000000E+00 -0.00000000000E+00 -0.15407017298E+04  0.15407017298E+04  0.00000000000E+00 0. -1.
         23    2    1    2    0    0  0.10285750414E+03 -0.29762683559E+03 -0.13792011887E+04  0.14177018448E+04  0.92310358271E+02 0.  0.
         11    1    3    3    0    0  0.16228390127E+02 -0.18646651293E+03 -0.79889640347E+03  0.82052945381E+03  0.00000000000E+00 0. -1.
        -11    1    3    3    0    0  0.86629114015E+02 -0.11116032266E+03 -0.58030478525E+03  0.59717239095E+03  0.00000000000E+00 0.  1.
         22    1    1    2    0    0 -0.10285750414E+03  0.29762683559E+03  0.32022635519E+02  0.31652306173E+03  0.00000000000E+00 0.  1.
<mgrwt>
<rscale>  0 0.10920833E+04</rscale>
<asrwt>0</asrwt>
<pdfrwt beam="1">  1        1 0.23703104E+00 0.10920833E+04</pdfrwt>
<pdfrwt beam="2">  1       -1 0.29772796E-01 0.10920833E+04</pdfrwt>
<totfact> 0.63200994E+01</totfact>
</mgrwt>
</event>
<event>
 6    1  0.1585031E-006  0.1682270E+04  0.7818608E-02  0.8771541E-01
          3   -1    0    0  501    0  0.00000000000E+00  0.00000000000E+00  0.70255206645E+03  0.70255206645E+03  0.00000000000E+00 0. -1.
         -3   -1    0    0    0  501 -0.00000000000E+00 -0.00000000000E+00 -0.10070544685E+04  0.10070544685E+04  0.00000000000E+00 0.  1.
         23    2    1    2    0    0  0.19572630496E+03  0.36281078881E+03  0.58953378113E+03  0.72510607697E+03  0.91040039700E+02 0.  0.
         13    1    3    3    0    0  0.10166327312E+03  0.17636786912E+03  0.36873580977E+03  0.42119727417E+03  0.00000000000E+00 0.  1.
        -13    1    3    3    0    0  0.94063031837E+02  0.18644291969E+03  0.22079797136E+03  0.30390880280E+03  0.00000000000E+00 0. -1.
         22    1    1    2    0    0 -0.19572630496E+03 -0.36281078881E+03 -0.89403618315E+03  0.98450045795E+03  0.00000000000E+00 0.  1.
<mgrwt>
<rscale>  0 0.16822701E+04</rscale>
<asrwt>0</asrwt>
<pdfrwt beam="1">  1        3 0.10808493E+00 0.16822701E+04</pdfrwt>
<pdfrwt beam="2">  1       -3 0.15493146E+00 0.16822701E+04</pdfrwt>
<totfact> 0.53827596E-01</totfact>
</mgrwt>
</event>
<event>
 6    1  0.1585031E-006  0.7581779E+03  0.7818608E-02  0.9622607E-01
         -1   -1    0    0    0  501 -0.00000000000E+00  0.00000000000E+00  0.88164119916E+02  0.88164119916E+02  0.00000000000E+00 0.  1.
          1   -1    0    0  501    0  0.00000000000E+00 -0.00000000000E+00 -0.16300105364E+04  0.16300105364E+04  0.00000000000E+00 0. -1.
         23    2    1    2    0    0 -0.74900801211E+02  0.16514362363E+03 -0.15222662680E+04  0.15357851592E+04  0.91972377039E+02 0.  0.
         11    1    3    3    0    0 -0.75537338115E+01  0.12436727667E+03 -0.93315871697E+03  0.94144010402E+03  0.00000000000E+00 0. -1.
        -11    1    3    3    0    0 -0.67347067400E+02  0.40776346969E+02 -0.58910755104E+03  0.59434505521E+03  0.00000000000E+00 0.  1.
         22    1    1    2    0    0  0.74900801211E+02 -0.16514362363E+03 -0.19580148523E+02  0.18238949713E+03  0.00000000000E+00 0.  1.
<mgrwt>
<rscale>  0 0.75817793E+03</rscale>
<asrwt>0</asrwt>
<pdfrwt beam="1">  1        1 0.25077086E+00 0.75817793E+03</pdfrwt>
<pdfrwt beam="2">  1       -1 0.13563710E-01 0.75817793E+03</pdfrwt>
<totfact> 0.21035848E+02</totfact>
</mgrwt>
</event>
<event>
 6    1  0.1585031E-006  0.2690971E+04  0.7818608E-02  0.8337940E-01
          1   -1    0    0  501    0  0.00000000000E+00  0.00000000000E+00  0.98911050722E+03  0.98911050722E+03  0.00000000000E+00 0. -1.
         -1   -1    0    0    0  501 -0.00000000000E+00 -0.00000000000E+00 -0.18302621681E+04  0.18302621681E+04  0.00000000000E+00 0.  1.
         23    2    1    2    0    0 -0.78426264649E+03 -0.69453414578E+03 -0.13030931825E+04  0.16744554086E+04  0.91123514190E+02 0.  0.
         11    1    3    3    0    0 -0.57859181460E+03 -0.48798984197E+03 -0.88088190953E+03  0.11614023904E+04  0.00000000000E+00 0. -1.
        -11    1    3    3    0    0 -0.20567083189E+03 -0.20654430381E+03 -0.42221127292E+03  0.51305301822E+03  0.00000000000E+00 0.  1.
         22    1    1    2    0    0  0.78426264649E+03  0.69453414578E+03  0.46194152156E+03  0.11449172667E+04  0.00000000000E+00 0. -1.
<mgrwt>
<rscale>  0 0.26909712E+04</rscale>
<asrwt>0</asrwt>
<pdfrwt beam="1">  1        1 0.15217085E+00 0.26909712E+04</pdfrwt>
<pdfrwt beam="2">  1       -1 0.28157879E+00 0.26909712E+04</pdfrwt>
<totfact> 0.58617084E-01</totfact>
</mgrwt>
</event>
<event>
 6    1  0.1585031E-006  0.1353108E+04  0.7818608E-02  0.8988479E-01
          1   -1    0    0  501    0  0.00000000000E+00  0.00000000000E+00  0.69861467619E+03  0.69861467619E+03  0.00000000000E+00 0. -1.
         -1   -1    0    0    0  501 -0.00000000000E+00 -0.00000000000E+00 -0.65518983896E+03  0.65518983896E+03  0.00000000000E+00 0.  1.
         23    2    1    2    0    0 -0.81411674931E+02 -0.64957368530E+03 -0.13652450033E+03  0.67486740648E+03  0.90737223283E+02 0.  0.
         13    1    3    3    0    0 -0.64148786288E+02 -0.40786725919E+03 -0.12848916596E+03  0.43241211092E+03  0.00000000000E+00 0. -1.
        -13    1    3    3    0    0 -0.17262888644E+02 -0.24170642611E+03 -0.80353343765E+01  0.24245529556E+03  0.00000000000E+00 0.  1.
         22    1    1    2    0    0  0.81411674931E+02  0.64957368530E+03  0.17994933756E+03  0.67893710868E+03  0.00000000000E+00 0. -1.
<mgrwt>
<rscale>  0 0.13531079E+04</rscale>
<asrwt>0</asrwt>
<pdfrwt beam="1">  1        1 0.10747918E+00 0.13531079E+04</pdfrwt>
<pdfrwt beam="2">  1       -1 0.10079844E+00 0.13531079E+04</pdfrwt>
<totfact> 0.25038212E+01</totfact>
</mgrwt>
</event>
<event>
 6    1  0.1585031E-006  0.2356492E+04  0.7818608E-02  0.8455974E-01
         -2   -1    0    0    0  501 -0.00000000000E+00  0.00000000000E+00  0.10767903855E+04  0.10767903855E+04  0.00000000000E+00 0.  1.
          2   -1    0    0  501    0  0.00000000000E+00 -0.00000000000E+00 -0.12892606698E+04  0.12892606698E+04  0.00000000000E+00 0. -1.
         23    2    1    2    0    0 -0.39431250366E+03 -0.29963924023E+03 -0.11778833012E+04  0.12810218769E+04  0.91334292352E+02 0.  0.
         11    1    3    3    0    0 -0.31126662187E+03 -0.24040691875E+03 -0.82956027624E+03  0.91807006726E+03  0.00000000000E+00 0.  1.
        -11    1    3    3    0    0 -0.83045881791E+02 -0.59232321476E+02 -0.34832302494E+03  0.36295180961E+03  0.00000000000E+00 0. -1.
         22    1    1    2    0    0  0.39431250366E+03  0.29963924023E+03  0.96541301693E+03  0.10850291784E+04  0.00000000000E+00 0.  1.
<mgrwt>
<rscale>  0 0.23564919E+04</rscale>
<asrwt>0</asrwt>
<pdfrwt beam="1">  1        2 0.19834779E+00 0.23564919E+04</pdfrwt>
<pdfrwt beam="2">  1       -2 0.16566006E+00 0.23564919E+04</pdfrwt>
<totfact> 0.34661565E+00</totfact>
</mgrwt>
</event>
<event>
 6    1  0.1585031E-006  0.6668403E+03  0.7818608E-02  0.9775683E-01
         -2   -1    0    0    0  501 -0.00000000000E+00  0.00000000000E+00  0.12433227205E+03  0.12433227205E+03  0.00000000000E+00 0.  1.
          2   -1    0    0  501    0  0.00000000000E+00 -0.00000000000E+00 -0.89412828208E+03  0.89412828208E+03  0.00000000000E+00 0. -1.
         23    2    1    2    0    0 -0.11208457783E+03 -0.25014874082E+03 -0.11946091184E+03  0.31271762284E+03  0.91564496702E+02 0.  0.
         13    1    3    3    0    0 -0.11165714583E+03 -0.14383814419E+03 -0.85072360557E+02  0.20098267704E+03  0.00000000000E+00 0. -1.
        -13    1    3    3    0    0 -0.42743199901E+00 -0.10631059663E+03 -0.34388551286E+02  0.11173494581E+03  0.00000000000E+00 0.  1.
         22    1    1    2    0    0  0.11208457783E+03  0.25014874082E+03 -0.65033509819E+03  0.70574293128E+03  0.00000000000E+00 0. -1.
<mgrwt>
<rscale>  0 0.66684031E+03</rscale>
<asrwt>0</asrwt>
<pdfrwt beam="1">  1        2 0.13755820E+00 0.66684031E+03</pdfrwt>
<pdfrwt beam="2">  1       -2 0.19128042E-01 0.66684031E+03</pdfrwt>
<totfact> 0.68717145E+02</totfact>
</mgrwt>
</event>
<event>
 6    1  0.1585031E-006  0.1772908E+04  0.7818608E-02  0.8720841E-01
         -4   -1    0    0    0  501 -0.00000000000E+00  0.00000000000E+00  0.37143184873E+04  0.37143184873E+04  0.00000000000E+00 0.  1.
          4   -1    0    0  501    0  0.00000000000E+00 -0.00000000000E+00 -0.21155996208E+03  0.21155996208E+03  0.00000000000E+00 0. -1.
         23    2    1    2    0    0  0.58419774685E+03 -0.32457943436E+02  0.28834218845E+03  0.65864522972E+03  0.91278669388E+02 0.  0.
         13    1    3    3    0    0  0.11346214569E+03  0.26597865389E+02  0.40437544092E+02  0.12335436725E+03  0.00000000000E+00 0.  1.
        -13    1    3    3    0    0  0.47073560116E+03 -0.59055808825E+02  0.24790464436E+03  0.53529086248E+03  0.00000000000E+00 0. -1.
         22    1    1    2    0    0 -0.58419774685E+03  0.32457943436E+02  0.32144163368E+04  0.32672332196E+04  0.00000000000E+00 0.  1.
<mgrwt>
<rscale>  0 0.17729084E+04</rscale>
<asrwt>0</asrwt>
<pdfrwt beam="1">  1        4 0.32547689E-01 0.17729084E+04</pdfrwt>
<pdfrwt beam="2">  1       -4 0.57143356E+00 0.17729084E+04</pdfrwt>
<totfact> 0.53506262E-03</totfact>
</mgrwt>
</event>
<event>
 6    1  0.1585031E-006  0.2186913E+04  0.7818608E-02  0.8523895E-01
          1   -1    0    0  501    0  0.00000000000E+00  0.00000000000E+00  0.82600281686E+03  0.82600281686E+03  0.00000000000E+00 0. -1.
         -1   -1    0    0    0  501 -0.00000000000E+00 -0.00000000000E+00 -0.14475091081E+04  0.14475091081E+04  0.00000000000E+00 0.  1.
         23    2    1    2    0    0 -0.55154097833E+03  0.35528568986E+03 -0.12182163420E+04  0.13866701934E+04  0.91530306856E+02 0.  0.
         13    1    3    3    0    0 -0.40561621434E+03  0.28443196203E+03 -0.98527221820E+03  0.11028088675E+04  0.00000000000E+00 0. -1.
        -13    1    3    3    0    0 -0.14592476399E+03  0.70853727832E+02 -0.23294412383E+03  0.28386132586E+03  0.00000000000E+00 0.  1.
         22    1    1    2    0    0  0.55154097833E+03 -0.35528568986E+03  0.59671005077E+03  0.88684173159E+03  0.00000000000E+00 0. -1.
<mgrwt>
<rscale>  0 0.21869125E+04</rscale>
<asrwt>0</asrwt>
<pdfrwt beam="1">  1        1 0.12707736E+00 0.21869125E+04</pdfrwt>
<pdfrwt beam="2">  1       -1 0.22269371E+00 0.21869125E+04</pdfrwt>
<totfact> 0.20227721E+00</totfact>
</mgrwt>
</event>
<event>
 6    1  0.1585031E-006  0.2334235E+04  0.7818608E-02  0.8464544E-01
          1   -1    0    0  501    0  0.00000000000E+00  0.00000000000E+00  0.52065552255E+03  0.52065552255E+03  0.00000000000E+00 0. -1.
         -1   -1    0    0    0  501 -0.00000000000E+00 -0.00000000000E+00 -0.26162462312E+04  0.26162462312E+04  0.00000000000E+00 0.  1.
         23    2    1    2    0    0  0.46525858598E+03  0.21100985587E+02 -0.24849858259E+04  0.25298273261E+04  0.89224106759E+02 0.  0.
         11    1    3    3    0    0  0.38136910517E+03  0.26616696691E+02 -0.18328934511E+04  0.18723379091E+04  0.00000000000E+00 0.  1.
        -11    1    3    3    0    0  0.83889480807E+02 -0.55157111047E+01 -0.65209237483E+03  0.65748941693E+03  0.00000000000E+00 0. -1.
         22    1    1    2    0    0 -0.46525858598E+03 -0.21100985587E+02  0.38939511727E+03  0.60707442770E+03  0.00000000000E+00 0. -1.
<mgrwt>
<rscale>  0 0.23342348E+04</rscale>
<asrwt>0</asrwt>
<pdfrwt beam="1">  1        1 0.80100848E-01 0.23342348E+04</pdfrwt>
<pdfrwt beam="2">  1       -1 0.40249943E+00 0.23342348E+04</pdfrwt>
<totfact> 0.25980776E-01</totfact>
</mgrwt>
</event>
<event>
 6    1  0.1585031E-006  0.4119982E+04  0.7818608E-02  0.7980770E-01
         -2   -1    0    0    0  501 -0.00000000000E+00  0.00000000000E+00  0.12049020995E+04  0.12049020995E+04  0.00000000000E+00 0.  1.
          2   -1    0    0  501    0  0.00000000000E+00 -0.00000000000E+00 -0.35219154987E+04  0.35219154987E+04  0.00000000000E+00 0. -1.
         23    2    1    2    0    0 -0.16460067666E+04 -0.93121321353E+03 -0.20932141044E+04  0.28224587956E+04  0.90730597140E+02 0.  0.
         13    1    3    3    0    0 -0.20636015555E+03 -0.84792327264E+02 -0.23351395490E+03  0.32295978031E+03  0.00000000000E+00 0.  1.
        -13    1    3    3    0    0 -0.14396466111E+04 -0.84642088627E+03 -0.18597001495E+04  0.24994990153E+04  0.00000000000E+00 0. -1.
         22    1    1    2    0    0  0.16460067666E+04  0.93121321353E+03 -0.22379929487E+03  0.19043588026E+04  0.00000000000E+00 0.  1.
<mgrwt>
<rscale>  0 0.41199822E+04</rscale>
<asrwt>0</asrwt>
<pdfrwt beam="1">  1        2 0.54183316E+00 0.41199822E+04</pdfrwt>
<pdfrwt beam="2">  1       -2 0.18536955E+00 0.41199822E+04</pdfrwt>
<totfact> 0.10192846E-01</totfact>
</mgrwt>
</event>
<event>
 6    1  0.1585031E-006  0.1672358E+04  0.7818608E-02  0.8777288E-01
         -1   -1    0    0    0  501 -0.00000000000E+00  0.00000000000E+00  0.11138472773E+04  0.11138472773E+04  0.00000000000E+00 0.  1.
          1   -1    0    0  501    0  0.00000000000E+00 -0.00000000000E+00 -0.62773028792E+03  0.62773028792E+03  0.00000000000E+00 0. -1.
         23    2    1    2    0    0  0.33163524124E+03  0.37221233172E+03 -0.45222718161E+03  0.67902698461E+03  0.89689848479E+02 0.  0.
         11    1    3    3    0    0  0.22173602859E+03  0.27043213197E+03 -0.26236449621E+03  0.43719049995E+03  0.00000000000E+00 0.  1.
        -11    1    3    3    0    0  0.10989921264E+03  0.10178019975E+03 -0.18986268541E+03  0.24183648466E+03  0.00000000000E+00 0. -1.
         22    1    1    2    0    0 -0.33163524124E+03 -0.37221233172E+03  0.93834417102E+03  0.10625505806E+04  0.00000000000E+00 0.  1.
<mgrwt>
<rscale>  0 0.16723584E+04</rscale>
<asrwt>0</asrwt>
<pdfrwt beam="1">  1        1 0.96573891E-01 0.16723584E+04</pdfrwt>
<pdfrwt beam="2">  1       -1 0.17136112E+00 0.16723584E+04</pdfrwt>
<totfact> 0.73537246E+00</totfact>
</mgrwt>
</event>
<event>
 6    1  0.1585031E-006  0.2285951E+04  0.7818608E-02  0.8483481E-01
         -1   -1    0    0    0  501 -0.00000000000E+00  0.00000000000E+00  0.11226560914E+04  0.11226560914E+04  0.00000000000E+00 0.  1.
          1   -1    0    0  501    0  0.00000000000E+00 -0.00000000000E+00 -0.11636630489E+04  0.11636630489E+04  0.00000000000E+00 0. -1.
         23    2    1    2    0    0 -0.23733653535E+03  0.57310229331E+03  0.93737803283E+03  0.11278666990E+04  0.92902339053E+02 0.  0.
         11    1    3    3    0    0 -0.72828355732E+02  0.25601693307E+03  0.33953089777E+03  0.43142771116E+03  0.00000000000E+00 0. -1.
        -11    1    3    3    0    0 -0.16450817961E+03  0.31708536024E+03  0.59784713506E+03  0.69643898780E+03  0.00000000000E+00 0.  1.
         22    1    1    2    0    0  0.23733653535E+03 -0.57310229331E+03 -0.97838499033E+03  0.11584524414E+04  0.00000000000E+00 0. -1.
<mgrwt>
<rscale>  0 0.22859514E+04</rscale>
<asrwt>0</asrwt>
<pdfrwt beam="1">  1        1 0.17902508E+00 0.22859514E+04</pdfrwt>
<pdfrwt beam="2">  1       -1 0.17271632E+00 0.22859514E+04</pdfrwt>
<totfact> 0.24173351E+00</totfact>
</mgrwt>
</event>
<event>
 6    1  0.1585031E-006  0.1803782E+04  0.7818608E-02  0.8704291E-01
          1   -1    0    0  501    0  0.00000000000E+00  0.00000000000E+00  0.41683715508E+03  0.41683715508E+03  0.00000000000E+00 0.  1.
         -1   -1    0    0    0  501 -0.00000000000E+00 -0.00000000000E+00 -0.19513783736E+04  0.19513783736E+04  0.00000000000E+00 0. -1.
         23    2    1    2    0    0  0.34351716161E+01 -0.59663445451E+03 -0.16530966105E+04  0.17599065170E+04  0.92509850048E+02 0.  0.
         13    1    3    3    0    0 -0.35224200136E+02 -0.28301447757E+03 -0.70338677706E+03  0.75900651969E+03  0.00000000000E+00 0. -1.
        -13    1    3    3    0    0  0.38659371752E+02 -0.31361997694E+03 -0.94970983340E+03  0.10008999973E+04  0.00000000000E+00 0.  1.
         22    1    1    2    0    0 -0.34351716161E+01  0.59663445451E+03  0.11855539195E+03  0.60830901167E+03  0.00000000000E+00 0.  1.
<mgrwt>
<rscale>  0 0.18037816E+04</rscale>
<asrwt>0</asrwt>
<pdfrwt beam="1">  1        1 0.64128792E-01 0.18037816E+04</pdfrwt>
<pdfrwt beam="2">  1       -1 0.30021206E+00 0.18037816E+04</pdfrwt>
<totfact> 0.17651473E+00</totfact>
</mgrwt>
</event>
<event>
 6    1  0.1585031E-006  0.1172390E+04  0.7818608E-02  0.9137372E-01
          2   -1    0    0  501    0  0.00000000000E+00  0.00000000000E+00  0.13531285204E+04  0.13531285204E+04  0.00000000000E+00 0.  1.
         -2   -1    0    0    0  501 -0.00000000000E+00 -0.00000000000E+00 -0.25394835540E+03  0.25394835540E+03  0.00000000000E+00 0. -1.
         23    2    1    2    0    0  0.57659523891E+03 -0.52624680275E+02  0.64473848265E+03  0.87104109597E+03  0.88280537784E+02 0.  0.
         11    1    3    3    0    0  0.57461585377E+03 -0.52026691195E+02  0.62270977184E+03  0.84891555289E+03  0.00000000000E+00 0. -1.
        -11    1    3    3    0    0  0.19793851405E+01 -0.59798907949E+00  0.22028710810E+02  0.22125543077E+02  0.00000000000E+00 0.  1.
         22    1    1    2    0    0 -0.57659523891E+03  0.52624680275E+02  0.45444168231E+03  0.73603577979E+03  0.00000000000E+00 0. -1.
<mgrwt>
<rscale>  0 0.11723903E+04</rscale>
<asrwt>0</asrwt>
<pdfrwt beam="1">  1        2 0.20817362E+00 0.11723903E+04</pdfrwt>
<pdfrwt beam="2">  1       -2 0.39068978E-01 0.11723903E+04</pdfrwt>
<totfact> 0.94197110E+01</totfact>
</mgrwt>
</event>
<event>
 6    1  0.1585031E-006  0.2848407E+04  0.7818608E-02  0.8288396E-01
          2   -1    0    0  501    0  0.00000000000E+00  0.00000000000E+00  0.14751435070E+04  0.14751435070E+04  0.00000000000E+00 0. -1.
         -2   -1    0    0    0  501 -0.00000000000E+00 -0.00000000000E+00 -0.13750223880E+04  0.13750223880E+04  0.00000000000E+00 0.  1.
         23    2    1    2    0    0  0.12624829211E+04  0.78035356058E+02 -0.60170230456E+03  0.14036152528E+04  0.90207936014E+02 0.  0.
         13    1    3    3    0    0  0.30328764752E+03  0.36997531231E+02 -0.18356874300E+03  0.35644031459E+03  0.00000000000E+00 0. -1.
        -13    1    3    3    0    0  0.95919527353E+03  0.41037824828E+02 -0.41813356155E+03  0.10471749382E+04  0.00000000000E+00 0.  1.
         22    1    1    2    0    0 -0.12624829211E+04 -0.78035356058E+02  0.70182342358E+03  0.14465506423E+04  0.00000000000E+00 0. -1.
<mgrwt>
<rscale>  0 0.28484068E+04</rscale>
<asrwt>0</asrwt>
<pdfrwt beam="1">  1        2 0.22694516E+00 0.28484068E+04</pdfrwt>
<pdfrwt beam="2">  1       -2 0.21154191E+00 0.28484068E+04</pdfrwt>
<totfact> 0.12720090E+00</totfact>
</mgrwt>
</event>
<event>
 6    1  0.1585031E-006  0.2542645E+04  0.7818608E-02  0.8387949E-01
          1   -1    0    0  501    0  0.00000000000E+00  0.00000000000E+00  0.97382853515E+03  0.97382853515E+03  0.00000000000E+00 0. -1.
         -1   -1    0    0    0  501 -0.00000000000E+00 -0.00000000000E+00 -0.16596979115E+04  0.16596979115E+04  0.00000000000E+00 0.  1.
         23    2    1    2    0    0 -0.20702070268E+03  0.12127168917E+04 -0.17608443938E+02  0.12334862670E+04  0.87398414517E+02 0.  0.
         13    1    3    3    0    0 -0.10512309043E+03  0.44866064900E+03  0.24994035045E+02  0.46148883398E+03  0.00000000000E+00 0. -1.
        -13    1    3    3    0    0 -0.10189761226E+03  0.76405624270E+03 -0.42602478983E+02  0.77199743303E+03  0.00000000000E+00 0.  1.
         22    1    1    2    0    0  0.20702070268E+03 -0.12127168917E+04 -0.66826093236E+03  0.14000401796E+04  0.00000000000E+00 0.  1.
<mgrwt>
<rscale>  0 0.25426452E+04</rscale>
<asrwt>0</asrwt>
<pdfrwt beam="1">  1        1 0.14981978E+00 0.25426452E+04</pdfrwt>
<pdfrwt beam="2">  1       -1 0.25533814E+00 0.25426452E+04</pdfrwt>
<totfact> 0.90358313E-01</totfact>
</mgrwt>
</event>
<event>
 6    1  0.1585031E-006  0.2880753E+04  0.7818608E-02  0.8278627E-01
         -2   -1    0    0    0  501 -0.00000000000E+00  0.00000000000E+00  0.13340784687E+04  0.13340784687E+04  0.00000000000E+00 0.  1.
          2   -1    0    0  501    0  0.00000000000E+00 -0.00000000000E+00 -0.15551444557E+04  0.15551444557E+04  0.00000000000E+00 0. -1.
         23    2    1    2    0    0 -0.56558654961E+03  0.13096003056E+04 -0.30022816119E+03  0.14605145022E+04  0.89579890772E+02 0.  0.
         11    1    3    3    0    0 -0.52192930409E+03  0.11867230483E+04 -0.24741973184E+03  0.13198251079E+04  0.00000000000E+00 0.  1.
        -11    1    3    3    0    0 -0.43657245521E+02  0.12287725739E+03 -0.52808429349E+02  0.14068939434E+03  0.00000000000E+00 0. -1.
         22    1    1    2    0    0  0.56558654961E+03 -0.13096003056E+04  0.79162174200E+02  0.14287084221E+04  0.00000000000E+00 0. -1.
<mgrwt>
<rscale>  0 0.28807532E+04</rscale>
<asrwt>0</asrwt>
<pdfrwt beam="1">  1        2 0.23925299E+00 0.28807532E+04</pdfrwt>
<pdfrwt beam="2">  1       -2 0.20524284E+00 0.28807532E+04</pdfrwt>
<totfact> 0.12556845E+00</totfact>
</mgrwt>
</event>
<event>
 6    1  0.1585031E-006  0.1119134E+04  0.7818608E-02  0.9186741E-01
          2   -1    0    0  501    0  0.00000000000E+00  0.00000000000E+00  0.48397707733E+03  0.48397707733E+03  0.00000000000E+00 0. -1.
         -2   -1    0    0    0  501 -0.00000000000E+00 -0.00000000000E+00 -0.64696246113E+03  0.64696246113E+03  0.00000000000E+00 0.  1.
         23    2    1    2    0    0 -0.23371793559E+03 -0.34251223607E+03 -0.45622313279E+03  0.62307431746E+03  0.90240528093E+02 0.  0.
         11    1    3    3    0    0 -0.48172086434E+01 -0.60684279374E+02 -0.56191317173E+02  0.82844742669E+02  0.00000000000E+00 0.  1.
        -11    1    3    3    0    0 -0.22890072695E+03 -0.28182795669E+03 -0.40003181562E+03  0.54022957479E+03  0.00000000000E+00 0. -1.
         22    1    1    2    0    0  0.23371793559E+03  0.34251223607E+03  0.29323774899E+03  0.50786522100E+03  0.00000000000E+00 0. -1.
<mgrwt>
<rscale>  0 0.11191336E+04</rscale>
<asrwt>0</asrwt>
<pdfrwt beam="1">  1        2 0.74458012E-01 0.11191336E+04</pdfrwt>
<pdfrwt beam="2">  1       -2 0.99532686E-01 0.11191336E+04</pdfrwt>
<totfact> 0.52988505E+01</totfact>
</mgrwt>
</event>
<event>
 6    1  0.1585031E-006  0.8473447E+03  0.7818608E-02  0.9493908E-01
          2   -1    0    0  501    0  0.00000000000E+00  0.00000000000E+00  0.16532634572E+04  0.16532634572E+04  0.00000000000E+00 0. -1.
         -2   -1    0    0    0  501 -0.00000000000E+00 -0.00000000000E+00 -0.10857208594E+03  0.10857208594E+03  0.00000000000E+00 0.  1.
         23    2    1    2    0    0 -0.16220320386E+03 -0.20399589600E+03  0.99630603904E+02  0.29346065018E+03  0.90932343223E+02 0.  0.
         13    1    3    3    0    0 -0.66565277048E+02 -0.62842606612E+02  0.80474133831E+02  0.12188607603E+03  0.00000000000E+00 0. -1.
        -13    1    3    3    0    0 -0.95637926816E+02 -0.14115328938E+03  0.19156470073E+02  0.17157457415E+03  0.00000000000E+00 0.  1.
         22    1    1    2    0    0  0.16220320386E+03  0.20399589600E+03  0.14450607674E+04  0.14683748930E+04  0.00000000000E+00 0. -1.
<mgrwt>
<rscale>  0 0.84734470E+03</rscale>
<asrwt>0</asrwt>
<pdfrwt beam="1">  1        2 0.25434821E+00 0.84734470E+03</pdfrwt>
<pdfrwt beam="2">  1       -2 0.16703399E-01 0.84734470E+03</pdfrwt>
<totfact> 0.30657511E+02</totfact>
</mgrwt>
</event>
<event>
 6    1  0.1585031E-006  0.2362197E+04  0.7818608E-02  0.8453794E-01
          2   -1    0    0  501    0  0.00000000000E+00  0.00000000000E+00  0.17087245385E+04  0.17087245385E+04  0.00000000000E+00 0. -1.
         -2   -1    0    0    0  501 -0.00000000000E+00 -0.00000000000E+00 -0.81639454501E+03  0.81639454501E+03  0.00000000000E+00 0.  1.
         23    2    1    2    0    0  0.53965934562E+03 -0.24791936095E+03 -0.64233681048E+03  0.87954975405E+03  0.91186473277E+02 0.  0.
         13    1    3    3    0    0  0.48960641192E+03 -0.22439605102E+03 -0.53685152662E+03  0.76044565088E+03  0.00000000000E+00 0. -1.
        -13    1    3    3    0    0  0.50052933698E+02 -0.23523309936E+02 -0.10548528386E+03  0.11910410317E+03  0.00000000000E+00 0.  1.
         22    1    1    2    0    0 -0.53965934562E+03  0.24791936095E+03  0.15346668039E+04  0.16455693294E+04  0.00000000000E+00 0. -1.
<mgrwt>
<rscale>  0 0.23621968E+04</rscale>
<asrwt>0</asrwt>
<pdfrwt beam="1">  1        2 0.26288070E+00 0.23621968E+04</pdfrwt>
<pdfrwt beam="2">  1       -2 0.12559916E+00 0.23621968E+04</pdfrwt>
<totfact> 0.41447388E+00</totfact>
</mgrwt>
</event>
<event>
 6    1  0.1585031E-006  0.1543684E+04  0.7818608E-02  0.8855912E-01
         -2   -1    0    0    0  501 -0.00000000000E+00  0.00000000000E+00  0.11031308277E+04  0.11031308277E+04  0.00000000000E+00 0.  1.
          2   -1    0    0  501    0  0.00000000000E+00 -0.00000000000E+00 -0.54004465495E+03  0.54004465495E+03  0.00000000000E+00 0. -1.
         23    2    1    2    0    0  0.74785665949E+03 -0.16805550496E+03  0.21447233458E+03  0.80111619494E+03  0.90865502886E+02 0.  0.
         11    1    3    3    0    0  0.10075133643E+03 -0.41916145066E+02  0.57740401516E+02  0.12345747841E+03  0.00000000000E+00 0.  1.
        -11    1    3    3    0    0  0.64710532306E+03 -0.12613935989E+03  0.15673193306E+03  0.67765871653E+03  0.00000000000E+00 0. -1.
         22    1    1    2    0    0 -0.74785665949E+03  0.16805550496E+03  0.34861383820E+03  0.84205928774E+03  0.00000000000E+00 0. -1.
<mgrwt>
<rscale>  0 0.15436838E+04</rscale>
<asrwt>0</asrwt>
<pdfrwt beam="1">  1        2 0.83083794E-01 0.15436838E+04</pdfrwt>
<pdfrwt beam="2">  1       -2 0.16971243E+00 0.15436838E+04</pdfrwt>
<totfact> 0.11589827E+01</totfact>
</mgrwt>
</event>
<event>
 6    1  0.1585031E-006  0.3592296E+04  0.7818608E-02  0.8092259E-01
          1   -1    0    0  501    0  0.00000000000E+00  0.00000000000E+00  0.21609287885E+04  0.21609287885E+04  0.00000000000E+00 0.  1.
         -1   -1    0    0    0  501 -0.00000000000E+00 -0.00000000000E+00 -0.14929447013E+04  0.14929447013E+04  0.00000000000E+00 0. -1.
         23    2    1    2    0    0 -0.13646989410E+04  0.92724952279E+03 -0.38472387721E+03  0.16967355449E+04  0.93296143525E+02 0.  0.
         11    1    3    3    0    0 -0.76336663548E+03  0.55507049144E+03 -0.18394804325E+03  0.96159698068E+03  0.00000000000E+00 0.  1.
        -11    1    3    3    0    0 -0.60133230551E+03  0.37217903135E+03 -0.20077583396E+03  0.73513856417E+03  0.00000000000E+00 0. -1.
         22    1    1    2    0    0  0.13646989410E+04 -0.92724952279E+03  0.10527079645E+04  0.19571379450E+04  0.00000000000E+00 0.  1.
<mgrwt>
<rscale>  0 0.35922957E+04</rscale>
<asrwt>0</asrwt>
<pdfrwt beam="1">  1        1 0.33245058E+00 0.35922957E+04</pdfrwt>
<pdfrwt beam="2">  1       -1 0.22968380E+00 0.35922957E+04</pdfrwt>
<totfact> 0.17787978E-01</totfact>
</mgrwt>
</event>
<event>
 6    1  0.1585031E-006  0.1709102E+04  0.7818608E-02  0.8756190E-01
          2   -1    0    0  501    0  0.00000000000E+00  0.00000000000E+00  0.17114728142E+04  0.17114728142E+04  0.00000000000E+00 0. -1.
         -2   -1    0    0    0  501 -0.00000000000E+00 -0.00000000000E+00 -0.42668376876E+03  0.42668376876E+03  0.00000000000E+00 0.  1.
         23    2    1    2    0    0 -0.54793267120E+03 -0.64723940826E+03  0.53869746439E+03  0.10086426561E+04  0.89532037189E+02 0.  0.
         13    1    3    3    0    0 -0.52344394369E+03 -0.63246697265E+03  0.50267438511E+03  0.96264716855E+03  0.00000000000E+00 0. -1.
        -13    1    3    3    0    0 -0.24488727516E+02 -0.14772435615E+02  0.36023079285E+02  0.45995487502E+02  0.00000000000E+00 0.  1.
         22    1    1    2    0    0  0.54793267120E+03  0.64723940826E+03  0.74609158105E+03  0.11295139269E+04  0.00000000000E+00 0.  1.
<mgrwt>
<rscale>  0 0.17091023E+04</rscale>
<asrwt>0</asrwt>
<pdfrwt beam="1">  1        2 0.26330351E+00 0.17091023E+04</pdfrwt>
<pdfrwt beam="2">  1       -2 0.65643658E-01 0.17091023E+04</pdfrwt>
<totfact> 0.19637399E+01</totfact>
</mgrwt>
</event>
<event>
 6    1  0.1585031E-006  0.4042179E+04  0.7818608E-02  0.7996091E-01
         -2   -1    0    0    0  501 -0.00000000000E+00  0.00000000000E+00  0.13865277063E+04  0.13865277063E+04  0.00000000000E+00 0.  1.
          2   -1    0    0  501    0  0.00000000000E+00 -0.00000000000E+00 -0.29460669242E+04  0.29460669242E+04  0.00000000000E+00 0. -1.
         23    2    1    2    0    0  0.13797824248E+04  0.80929733433E+03  0.54197764272E+03  0.16915465752E+04  0.93959224170E+02 0.  0.
         13    1    3    3    0    0  0.10615204032E+04  0.65132703557E+03  0.45324799424E+03  0.13253249481E+04  0.00000000000E+00 0.  1.
        -13    1    3    3    0    0  0.31826202158E+03  0.15797029876E+03  0.88729648482E+02  0.36622162715E+03  0.00000000000E+00 0. -1.
         22    1    1    2    0    0 -0.13797824248E+04 -0.80929733433E+03 -0.21015168606E+04  0.26410480553E+04  0.00000000000E+00 0. -1.
<mgrwt>
<rscale>  0 0.40421793E+04</rscale>
<asrwt>0</asrwt>
<pdfrwt beam="1">  1        2 0.45324106E+00 0.40421793E+04</pdfrwt>
<pdfrwt beam="2">  1       -2 0.21331196E+00 0.40421793E+04</pdfrwt>
<totfact> 0.16120145E-01</totfact>
</mgrwt>
</event>
<event>
 6    1  0.1585031E-006  0.1603803E+04  0.7818608E-02  0.8818215E-01
          1   -1    0    0  501    0  0.00000000000E+00  0.00000000000E+00  0.17248383894E+04  0.17248383894E+04  0.00000000000E+00 0. -1.
         -1   -1    0    0    0  501 -0.00000000000E+00 -0.00000000000E+00 -0.37281515483E+03  0.37281515483E+03  0.00000000000E+00 0.  1.
         23    2    1    2    0    0  0.46801565770E+03 -0.55794769985E+03  0.24766573479E+03  0.77479687061E+03  0.92884782898E+02 0.  0.
         11    1    3    3    0    0  0.12030849037E+03 -0.21041200239E+03  0.89351583171E+02  0.25832353555E+03  0.00000000000E+00 0.  1.
        -11    1    3    3    0    0  0.34770716733E+03 -0.34753569746E+03  0.15831415162E+03  0.51647333506E+03  0.00000000000E+00 0. -1.
         22    1    1    2    0    0 -0.46801565770E+03  0.55794769985E+03  0.11043574998E+04  0.13228566737E+04  0.00000000000E+00 0. -1.
<mgrwt>
<rscale>  0 0.16038028E+04</rscale>
<asrwt>0</asrwt>
<pdfrwt beam="1">  1        1 0.26535975E+00 0.16038028E+04</pdfrwt>
<pdfrwt beam="2">  1       -1 0.57356179E-01 0.16038028E+04</pdfrwt>
<totfact> 0.13535192E+01</totfact>
</mgrwt>
</event>
<event>
 6    1  0.1585031E-006  0.6394673E+03  0.7818608E-02  0.9826746E-01
          1   -1    0    0  501    0  0.00000000000E+00  0.00000000000E+00  0.61053306380E+03  0.61053306380E+03  0.00000000000E+00 0. -1.
         -1   -1    0    0    0  501 -0.00000000000E+00 -0.00000000000E+00 -0.16744321936E+03  0.16744321936E+03  0.00000000000E+00 0.  1.
         23    2    1    2    0    0 -0.11657704860E+03 -0.12523461013E+02  0.57929323935E+03  0.59825869883E+03  0.92659420623E+02 0.  0.
         13    1    3    3    0    0 -0.76351584742E+02 -0.52555005461E+02  0.35864637724E+03  0.37043058324E+03  0.00000000000E+00 0.  1.
        -13    1    3    3    0    0 -0.40225463856E+02  0.40031544448E+02  0.22064686211E+03  0.22782811559E+03  0.00000000000E+00 0. -1.
         22    1    1    2    0    0  0.11657704860E+03  0.12523461013E+02 -0.13620339491E+03  0.17971758434E+03  0.00000000000E+00 0.  1.
<mgrwt>
<rscale>  0 0.63946735E+03</rscale>
<asrwt>0</asrwt>
<pdfrwt beam="1">  1        1 0.93928162E-01 0.63946735E+03</pdfrwt>
<pdfrwt beam="2">  1       -1 0.25760496E-01 0.63946735E+03</pdfrwt>
<totfact> 0.44899402E+02</totfact>
</mgrwt>
</event>
<event>
 6    1  0.1585031E-006  0.5114707E+04  0.7818608E-02  0.7811052E-01
         -2   -1    0    0    0  501 -0.00000000000E+00  0.00000000000E+00  0.22201352518E+04  0.22201352518E+04  0.00000000000E+00 0.  1.
          2   -1    0    0  501    0  0.00000000000E+00 -0.00000000000E+00 -0.29457921106E+04  0.29457921106E+04  0.00000000000E+00 0. -1.
         23    2    1    2    0    0  0.25810571588E+03 -0.13188341686E+04  0.18331964192E+04  0.22756553642E+04  0.10980027517E+03 0.  0.
         13    1    3    3    0    0  0.20734988663E+03 -0.11299877306E+04  0.16241527378E+04  0.19894065352E+04  0.00000000000E+00 0. -1.
        -13    1    3    3    0    0  0.50755829241E+02 -0.18884643798E+03  0.20904368144E+03  0.28624882897E+03  0.00000000000E+00 0.  1.
         22    1    1    2    0    0 -0.25810571588E+03  0.13188341686E+04 -0.25588532780E+04  0.28902719982E+04  0.00000000000E+00 0. -1.
<mgrwt>
<rscale>  0 0.51147070E+04</rscale>
<asrwt>0</asrwt>
<pdfrwt beam="1">  1        2 0.45319878E+00 0.51147070E+04</pdfrwt>
<pdfrwt beam="2">  1       -2 0.34155927E+00 0.51147070E+04</pdfrwt>
<totfact> 0.23865457E-02</totfact>
</mgrwt>
</event>
<event>
 6    1  0.1585031E-006  0.8862005E+03  0.7818608E-02  0.9442998E-01
          2   -1    0    0  501    0  0.00000000000E+00  0.00000000000E+00  0.44656504515E+03  0.44656504515E+03  0.00000000000E+00 0. -1.
         -2   -1    0    0    0  501 -0.00000000000E+00 -0.00000000000E+00 -0.43966235557E+03  0.43966235557E+03  0.00000000000E+00 0.  1.
         23    2    1    2    0    0 -0.29346519225E+03 -0.24915198324E+02  0.32779067354E+03  0.45066835259E+03  0.94406844000E+02 0.  0.
         11    1    3    3    0    0 -0.22429281249E+03  0.18453460313E+02  0.21348236263E+03  0.31019754204E+03  0.00000000000E+00 0. -1.
        -11    1    3    3    0    0 -0.69172379762E+02 -0.43368658637E+02  0.11430831091E+03  0.14047081055E+03  0.00000000000E+00 0.  1.
         22    1    1    2    0    0  0.29346519225E+03  0.24915198324E+02 -0.32088798395E+03  0.43555904814E+03  0.00000000000E+00 0.  1.
<mgrwt>
<rscale>  0 0.88620052E+03</rscale>
<asrwt>0</asrwt>
<pdfrwt beam="1">  1        2 0.68702315E-01 0.88620052E+03</pdfrwt>
<pdfrwt beam="2">  1       -2 0.67640362E-01 0.88620052E+03</pdfrwt>
<totfact> 0.14119108E+02</totfact>
</mgrwt>
</event>
<event>
 6    1  0.1585031E-006  0.1137037E+04  0.7818608E-02  0.9169826E-01
          2   -1    0    0  501    0  0.00000000000E+00  0.00000000000E+00  0.32091232463E+03  0.32091232463E+03  0.00000000000E+00 0. -1.
         -2   -1    0    0    0  501 -0.00000000000E+00 -0.00000000000E+00 -0.10071705705E+04  0.10071705705E+04  0.00000000000E+00 0.  1.
         23    2    1    2    0    0  0.40837779494E+02 -0.40169013844E+03  0.11778703190E+03  0.42835432481E+03  0.81184673057E+02 0.  0.
         13    1    3    3    0    0  0.59305276668E+02 -0.21408069521E+03  0.47525711382E+02  0.22717031748E+03  0.00000000000E+00 0. -1.
        -13    1    3    3    0    0 -0.18467497174E+02 -0.18760944324E+03  0.70261320516E+02  0.20118400733E+03  0.00000000000E+00 0.  1.
         22    1    1    2    0    0 -0.40837779494E+02  0.40169013844E+03 -0.80404527776E+03  0.89972857031E+03  0.00000000000E+00 0.  1.
<mgrwt>
<rscale>  0 0.11370373E+04</rscale>
<asrwt>0</asrwt>
<pdfrwt beam="1">  1        2 0.49371127E-01 0.11370373E+04</pdfrwt>
<pdfrwt beam="2">  1       -2 0.15494932E+00 0.11370373E+04</pdfrwt>
<totfact> 0.27687019E+01</totfact>
</mgrwt>
</event>
<event>
 6    1  0.1585031E-006  0.2221553E+04  0.7818608E-02  0.8509511E-01
          1   -1    0    0  501    0  0.00000000000E+00  0.00000000000E+00  0.19079843011E+04  0.19079843011E+04  0.00000000000E+00 0. -1.
         -1   -1    0    0    0  501 -0.00000000000E+00 -0.00000000000E+00 -0.64666375450E+03  0.64666375450E+03  0.00000000000E+00 0.  1.
         23    2    1    2    0    0 -0.67419003245E+03 -0.66424620605E+03 -0.32411155718E+02  0.95168300930E+03  0.94312486287E+02 0.  0.
         11    1    3    3    0    0 -0.39628531348E+03 -0.34006731176E+03  0.12421155105E+02  0.52234290586E+03  0.00000000000E+00 0.  1.
        -11    1    3    3    0    0 -0.27790471897E+03 -0.32417889429E+03 -0.44832310823E+02  0.42934010344E+03  0.00000000000E+00 0. -1.
         22    1    1    2    0    0  0.67419003245E+03  0.66424620605E+03  0.12937317024E+04  0.16029650463E+04  0.00000000000E+00 0. -1.
<mgrwt>
<rscale>  0 0.22215529E+04</rscale>
<asrwt>0</asrwt>
<pdfrwt beam="1">  1        1 0.29353604E+00 0.22215529E+04</pdfrwt>
<pdfrwt beam="2">  1       -1 0.99486732E-01 0.22215529E+04</pdfrwt>
<totfact> 0.30193218E+00</totfact>
</mgrwt>
</event>
<event>
 6    1  0.1585031E-006  0.2779204E+04  0.7818608E-02  0.8309754E-01
          2   -1    0    0  501    0  0.00000000000E+00  0.00000000000E+00  0.73422753418E+03  0.73422753418E+03  0.00000000000E+00 0. -1.
         -2   -1    0    0    0  501 -0.00000000000E+00 -0.00000000000E+00 -0.26299671723E+04  0.26299671723E+04  0.00000000000E+00 0.  1.
         23    2    1    2    0    0  0.13067799122E+04 -0.46568682034E+03 -0.10067775491E+04  0.17165322565E+04  0.91345500683E+02 0.  0.
         11    1    3    3    0    0  0.44447758260E+03 -0.15757463296E+03 -0.28950550009E+03  0.55335659476E+03  0.00000000000E+00 0.  1.
        -11    1    3    3    0    0  0.86230232958E+03 -0.30811218738E+03 -0.71727204903E+03  0.11631756617E+04  0.00000000000E+00 0. -1.
         22    1    1    2    0    0 -0.13067799122E+04  0.46568682034E+03 -0.88896208899E+03  0.16476624500E+04  0.00000000000E+00 0.  1.
<mgrwt>
<rscale>  0 0.27792044E+04</rscale>
<asrwt>0</asrwt>
<pdfrwt beam="1">  1        2 0.11295808E+00 0.27792044E+04</pdfrwt>
<pdfrwt beam="2">  1       -2 0.40461033E+00 0.27792044E+04</pdfrwt>
<totfact> 0.23251957E-01</totfact>
</mgrwt>
</event>
<event>
 6    1  0.1585031E-006  0.2767795E+04  0.7818608E-02  0.8313337E-01
         -2   -1    0    0    0  501 -0.00000000000E+00  0.00000000000E+00  0.12354581866E+04  0.12354581866E+04  0.00000000000E+00 0.  1.
          2   -1    0    0  501    0  0.00000000000E+00 -0.00000000000E+00 -0.15501711576E+04  0.15501711576E+04  0.00000000000E+00 0. -1.
         23    2    1    2    0    0  0.10271514992E+04  0.85035464978E+03  0.20911238653E+03  0.13529618190E+04  0.92921799016E+02 0.  0.
         11    1    3    3    0    0  0.45787519627E+03  0.43825441186E+03  0.10787395510E+03  0.64292566838E+03  0.00000000000E+00 0. -1.
        -11    1    3    3    0    0  0.56927630294E+03  0.41210023791E+03  0.10123843143E+03  0.71003615061E+03  0.00000000000E+00 0.  1.
         22    1    1    2    0    0 -0.10271514992E+04 -0.85035464978E+03 -0.52382535753E+03  0.14326675252E+04  0.00000000000E+00 0. -1.
<mgrwt>
<rscale>  0 0.27677945E+04</rscale>
<asrwt>0</asrwt>
<pdfrwt beam="1">  1        2 0.23848787E+00 0.27677945E+04</pdfrwt>
<pdfrwt beam="2">  1       -2 0.19007049E+00 0.27677945E+04</pdfrwt>
<totfact> 0.16068194E+00</totfact>
</mgrwt>
</event>
<event>
 6    1  0.1943051E-006  0.3374350E+04  0.7818608E-02  0.8144231E-01
         -2   -1    0    0    0  501 -0.00000000000E+00  0.00000000000E+00  0.13322962522E+04  0.13322962522E+04  0.00000000000E+00 0.  1.
          2   -1    0    0  501    0  0.00000000000E+00 -0.00000000000E+00 -0.21365812019E+04  0.21365812019E+04  0.00000000000E+00 0. -1.
         23    2    1    2    0    0 -0.59656222431E+03  0.86267249996E+03  0.95410176697E+03  0.14214365698E+04  0.10040622769E+03 0.  0.
         11    1    3    3    0    0 -0.13558983806E+03  0.25933503898E+03  0.30252797392E+03  0.42090668993E+03  0.00000000000E+00 0. -1.
        -11    1    3    3    0    0 -0.46097238625E+03  0.60333746098E+03  0.65157379305E+03  0.10005298799E+04  0.00000000000E+00 0.  1.
         22    1    1    2    0    0  0.59656222431E+03 -0.86267249996E+03 -0.17583867166E+04  0.20474408843E+04  0.00000000000E+00 0. -1.
<mgrwt>
<rscale>  0 0.33743498E+04</rscale>
<asrwt>0</asrwt>
<pdfrwt beam="1">  1        2 0.32870480E+00 0.33743498E+04</pdfrwt>
<pdfrwt beam="2">  1       -2 0.20496866E+00 0.33743498E+04</pdfrwt>
<totfact> 0.57432126E-01</totfact>
</mgrwt>
</event>
<event>
 6    1  0.1585031E-006  0.2443674E+04  0.7818608E-02  0.8423331E-01
          2   -1    0    0  501    0  0.00000000000E+00  0.00000000000E+00  0.27358003930E+04  0.27358003930E+04  0.00000000000E+00 0. -1.
         -2   -1    0    0    0  501 -0.00000000000E+00 -0.00000000000E+00 -0.54568524084E+03  0.54568524084E+03  0.00000000000E+00 0.  1.
         23    2    1    2    0    0 -0.46334731442E+03 -0.10678920076E+04  0.15875040238E+04  0.19706751038E+04  0.91144201416E+02 0.  0.
         13    1    3    3    0    0 -0.20332126868E+03 -0.51074527882E+03  0.82099170028E+03  0.98804233212E+03  0.00000000000E+00 0.  1.
        -13    1    3    3    0    0 -0.26002604574E+03 -0.55714672879E+03  0.76651232349E+03  0.98263277165E+03  0.00000000000E+00 0. -1.
         22    1    1    2    0    0  0.46334731442E+03  0.10678920076E+04  0.60261112842E+03  0.13108105301E+04  0.00000000000E+00 0.  1.
<mgrwt>
<rscale>  0 0.24436742E+04</rscale>
<asrwt>0</asrwt>
<pdfrwt beam="1">  1        2 0.42089236E+00 0.24436742E+04</pdfrwt>
<pdfrwt beam="2">  1       -2 0.83951577E-01 0.24436742E+04</pdfrwt>
<totfact> 0.28072569E+00</totfact>
</mgrwt>
</event>
<event>
 6    1  0.1585031E-006  0.1722731E+04  0.7818608E-02  0.8748505E-01
          2   -1    0    0  501    0  0.00000000000E+00  0.00000000000E+00  0.13243998228E+04  0.13243998228E+04  0.00000000000E+00 0. -1.
         -2   -1    0    0    0  501 -0.00000000000E+00 -0.00000000000E+00 -0.56021647688E+03  0.56021647688E+03  0.00000000000E+00 0.  1.
         23    2    1    2    0    0  0.43159614432E+03  0.35007063022E+03 -0.33285745329E+03  0.65485079639E+03  0.95972930509E+02 0.  0.
         11    1    3    3    0    0  0.10312375077E+03  0.13245462881E+03 -0.74303654850E+02  0.18357497049E+03  0.00000000000E+00 0. -1.
        -11    1    3    3    0    0  0.32847239355E+03  0.21761600141E+03 -0.25855379843E+03  0.47127582590E+03  0.00000000000E+00 0.  1.
         22    1    1    2    0    0 -0.43159614432E+03 -0.35007063022E+03  0.10970407992E+04  0.12297655032E+04  0.00000000000E+00 0. -1.
<mgrwt>
<rscale>  0 0.17227311E+04</rscale>
<asrwt>0</asrwt>
<pdfrwt beam="1">  1        2 0.20375382E+00 0.17227311E+04</pdfrwt>
<pdfrwt beam="2">  1       -2 0.86187151E-01 0.17227311E+04</pdfrwt>
<totfact> 0.17741917E+01</totfact>
</mgrwt>
</event>
<event>
 6    1  0.1585031E-006  0.2551132E+04  0.7818608E-02  0.8384993E-01
         -1   -1    0    0    0  501 -0.00000000000E+00  0.00000000000E+00  0.88914492074E+03  0.88914492074E+03  0.00000000000E+00 0.  1.
          1   -1    0    0  501    0  0.00000000000E+00 -0.00000000000E+00 -0.18299246717E+04  0.18299246717E+04  0.00000000000E+00 0. -1.
         23    2    1    2    0    0 -0.65714019325E+03  0.73240325251E+03 -0.13334758362E+04  0.16596084212E+04  0.88851270024E+02 0.  0.
         13    1    3    3    0    0 -0.25947267185E+03  0.26197643982E+03 -0.56591021228E+03  0.67543474209E+03  0.00000000000E+00 0. -1.
        -13    1    3    3    0    0 -0.39766752141E+03  0.47042681268E+03 -0.76756562394E+03  0.98417367914E+03  0.00000000000E+00 0.  1.
         22    1    1    2    0    0  0.65714019325E+03 -0.73240325251E+03  0.39269608527E+03  0.10594611712E+04  0.00000000000E+00 0.  1.
<mgrwt>
<rscale>  0 0.25511317E+04</rscale>
<asrwt>0</asrwt>
<pdfrwt beam="1">  1        1 0.28152687E+00 0.25511317E+04</pdfrwt>
<pdfrwt beam="2">  1       -1 0.13679153E+00 0.25511317E+04</pdfrwt>
<totfact> 0.15309396E+00</totfact>
</mgrwt>
</event>
<event>
 6    1  0.1585031E-006  0.2630441E+04  0.7818608E-02  0.8357934E-01
         -2   -1    0    0    0  501 -0.00000000000E+00  0.00000000000E+00  0.48451032918E+03  0.48451032918E+03  0.00000000000E+00 0.  1.
          2   -1    0    0  501    0  0.00000000000E+00 -0.00000000000E+00 -0.35702133387E+04  0.35702133387E+04  0.00000000000E+00 0. -1.
         23    2    1    2    0    0  0.29167334606E+03  0.13536006841E+03 -0.35080289694E+04  0.35239177662E+04  0.91287915550E+02 0.  0.
         13    1    3    3    0    0  0.20208061904E+03  0.71056854579E+02 -0.18815293021E+04  0.18936837560E+04  0.00000000000E+00 0. -1.
        -13    1    3    3    0    0  0.89592727024E+02  0.64303213832E+02 -0.16264996673E+04  0.16302340102E+04  0.00000000000E+00 0.  1.
         22    1    1    2    0    0 -0.29167334606E+03 -0.13536006841E+03  0.42232595988E+03  0.53080590173E+03  0.00000000000E+00 0.  1.
<mgrwt>
<rscale>  0 0.26304412E+04</rscale>
<asrwt>0</asrwt>
<pdfrwt beam="1">  1        2 0.54926360E+00 0.26304412E+04</pdfrwt>
<pdfrwt beam="2">  1       -2 0.74540049E-01 0.26304412E+04</pdfrwt>
<totfact> 0.10364794E+00</totfact>
</mgrwt>
</event>
<event>
 6    1  0.1585031E-006  0.9163400E+03  0.7818608E-02  0.9405383E-01
         -1   -1    0    0    0  501 -0.00000000000E+00  0.00000000000E+00  0.40617035365E+03  0.40617035365E+03  0.00000000000E+00 0.  1.
          1   -1    0    0  501    0  0.00000000000E+00 -0.00000000000E+00 -0.51682684514E+03  0.51682684514E+03  0.00000000000E+00 0. -1.
         23    2    1    2    0    0 -0.41526298826E+03  0.62595580588E+02 -0.23058498522E+03  0.48625425409E+03  0.83139690190E+02 0.  0.
         11    1    3    3    0    0 -0.37057067190E+03  0.78930853019E+02 -0.21762731229E+03  0.43693746633E+03  0.00000000000E+00 0. -1.
        -11    1    3    3    0    0 -0.44692316364E+02 -0.16335272431E+02 -0.12957672931E+02  0.49316787762E+02  0.00000000000E+00 0.  1.
         22    1    1    2    0    0  0.41526298826E+03 -0.62595580588E+02  0.11992849373E+03  0.43674294469E+03  0.00000000000E+00 0. -1.
<mgrwt>
<rscale>  0 0.91633999E+03</rscale>
<asrwt>0</asrwt>
<pdfrwt beam="1">  1        1 0.79511822E-01 0.91633999E+03</pdfrwt>
<pdfrwt beam="2">  1       -1 0.62487747E-01 0.91633999E+03</pdfrwt>
<totfact> 0.11077069E+02</totfact>
</mgrwt>
</event>
<event>
 6    1  0.1585031E-006  0.1825453E+04  0.7818608E-02  0.8692880E-01
          2   -1    0    0  501    0  0.00000000000E+00  0.00000000000E+00  0.23488543436E+04  0.23488543436E+04  0.00000000000E+00 0. -1.
         -2   -1    0    0    0  501 -0.00000000000E+00 -0.00000000000E+00 -0.35467072809E+03  0.35467072809E+03  0.00000000000E+00 0.  1.
         23    2    1    2    0    0  0.74133032731E+03  0.37335612723E+03  0.15538157380E+04  0.17639031693E+04  0.89697219012E+02 0.  0.
         11    1    3    3    0    0  0.37270656884E+03  0.23000862171E+03  0.86717205901E+03  0.97149448400E+03  0.00000000000E+00 0.  1.
        -11    1    3    3    0    0  0.36862375847E+03  0.14334750552E+03  0.68664367898E+03  0.79240868529E+03  0.00000000000E+00 0. -1.
         22    1    1    2    0    0 -0.74133032731E+03 -0.37335612723E+03  0.44036787754E+03  0.93962190241E+03  0.00000000000E+00 0.  1.
<mgrwt>
<rscale>  0 0.18254532E+04</rscale>
<asrwt>0</asrwt>
<pdfrwt beam="1">  1        2 0.36136220E+00 0.18254532E+04</pdfrwt>
<pdfrwt beam="2">  1       -2 0.54564729E-01 0.18254532E+04</pdfrwt>
<totfact> 0.12671113E+01</totfact>
</mgrwt>
</event>
<event>
 6    1  0.1585031E-006  0.2283980E+04  0.7818608E-02  0.8484265E-01
         -2   -1    0    0    0  501 -0.00000000000E+00  0.00000000000E+00  0.12006529086E+04  0.12006529086E+04  0.00000000000E+00 0.  1.
          2   -1    0    0  501    0  0.00000000000E+00 -0.00000000000E+00 -0.10861930177E+04  0.10861930177E+04  0.00000000000E+00 0. -1.
         23    2    1    2    0    0  0.17311668317E+03 -0.63474010890E+03 -0.87516834153E+03  0.10984737496E+04  0.88659803090E+02 0.  0.
         11    1    3    3    0    0  0.17422062007E+03 -0.51056136187E+03 -0.70020534381E+03  0.88391925660E+03  0.00000000000E+00 0.  1.
        -11    1    3    3    0    0 -0.11039368938E+01 -0.12417874703E+03 -0.17496299772E+03  0.21455449299E+03  0.00000000000E+00 0. -1.
         22    1    1    2    0    0 -0.17311668317E+03  0.63474010890E+03  0.98962823245E+03  0.11883721767E+04  0.00000000000E+00 0.  1.
<mgrwt>
<rscale>  0 0.22839797E+04</rscale>
<asrwt>0</asrwt>
<pdfrwt beam="1">  1        2 0.16710662E+00 0.22839797E+04</pdfrwt>
<pdfrwt beam="2">  1       -2 0.18471583E+00 0.22839797E+04</pdfrwt>
<totfact> 0.33943847E+00</totfact>
</mgrwt>
</event>
<event>
 6    1  0.1585031E-006  0.2133456E+04  0.7818608E-02  0.8546647E-01
          3   -1    0    0  501    0  0.00000000000E+00  0.00000000000E+00  0.21552639480E+04  0.21552639480E+04  0.00000000000E+00 0. -1.
         -3   -1    0    0    0  501 -0.00000000000E+00 -0.00000000000E+00 -0.52796726451E+03  0.52796726451E+03  0.00000000000E+00 0.  1.
         23    2    1    2    0    0 -0.65156503262E+02  0.14396435186E+03  0.21394978475E+04  0.21472077645E+04  0.89883478270E+02 0.  0.
         11    1    3    3    0    0 -0.45261648158E+02  0.32895112323E+02  0.11377428590E+04  0.11391178686E+04  0.00000000000E+00 0. -1.
        -11    1    3    3    0    0 -0.19894855104E+02  0.11106923953E+03  0.10017549885E+04  0.10080898959E+04  0.00000000000E+00 0.  1.
         22    1    1    2    0    0  0.65156503262E+02 -0.14396435186E+03 -0.51220116399E+03  0.53602344810E+03  0.00000000000E+00 0.  1.
<mgrwt>
<rscale>  0 0.21334562E+04</rscale>
<asrwt>0</asrwt>
<pdfrwt beam="1">  1        3 0.33157906E+00 0.21334562E+04</pdfrwt>
<pdfrwt beam="2">  1       -3 0.81225734E-01 0.21334562E+04</pdfrwt>
<totfact> 0.87707127E-02</totfact>
</mgrwt>
</event>
<event>
 6    1  0.1585031E-006  0.3305871E+04  0.7818608E-02  0.8161403E-01
         -2   -1    0    0    0  501 -0.00000000000E+00  0.00000000000E+00  0.20647973941E+04  0.20647973941E+04  0.00000000000E+00 0.  1.
          2   -1    0    0  501    0  0.00000000000E+00 -0.00000000000E+00 -0.13232272525E+04  0.13232272525E+04  0.00000000000E+00 0. -1.
         23    2    1    2    0    0  0.13416664743E+04  0.35214981413E+03 -0.54792161473E+03  0.14941219539E+04  0.90021648812E+02 0.  0.
         13    1    3    3    0    0  0.67983226559E+03  0.19003180400E+03 -0.32562620747E+03  0.77737791509E+03  0.00000000000E+00 0. -1.
        -13    1    3    3    0    0  0.66183420873E+03  0.16211801013E+03 -0.22229540727E+03  0.71674403879E+03  0.00000000000E+00 0.  1.
         22    1    1    2    0    0 -0.13416664743E+04 -0.35214981413E+03  0.12894917563E+04  0.18939026927E+04  0.00000000000E+00 0. -1.
<mgrwt>
<rscale>  0 0.33058713E+04</rscale>
<asrwt>0</asrwt>
<pdfrwt beam="1">  1        2 0.20357342E+00 0.33058713E+04</pdfrwt>
<pdfrwt beam="2">  1       -2 0.31766114E+00 0.33058713E+04</pdfrwt>
<totfact> 0.33107129E-01</totfact>
</mgrwt>
</event>
<event>
 6    1  0.1585031E-006  0.1995188E+04  0.7818608E-02  0.8608874E-01
         -2   -1    0    0    0  501 -0.00000000000E+00  0.00000000000E+00  0.31109227256E+03  0.31109227256E+03  0.00000000000E+00 0.  1.
          2   -1    0    0  501    0  0.00000000000E+00 -0.00000000000E+00 -0.31990311534E+04  0.31990311534E+04  0.00000000000E+00 0. -1.
         23    2    1    2    0    0 -0.70543255164E+03 -0.70240341973E+03 -0.14510241002E+04  0.17620588574E+04  0.91514090224E+02 0.  0.
         13    1    3    3    0    0 -0.48165393321E+03 -0.46915627222E+03 -0.10523089715E+04  0.12487803212E+04  0.00000000000E+00 0. -1.
        -13    1    3    3    0    0 -0.22377861843E+03 -0.23324714750E+03 -0.39871512871E+03  0.51327853622E+03  0.00000000000E+00 0.  1.
         22    1    1    2    0    0  0.70543255164E+03  0.70240341973E+03 -0.14369147807E+04  0.17480645686E+04  0.00000000000E+00 0.  1.
<mgrwt>
<rscale>  0 0.19951881E+04</rscale>
<asrwt>0</asrwt>
<pdfrwt beam="1">  1        2 0.49215861E+00 0.19951881E+04</pdfrwt>
<pdfrwt beam="2">  1       -2 0.47860352E-01 0.19951881E+04</pdfrwt>
<totfact> 0.50104230E+00</totfact>
</mgrwt>
</event>
<event>
 6    1  0.1585031E-006  0.2051551E+04  0.7818608E-02  0.8582891E-01
          2   -1    0    0  501    0  0.00000000000E+00  0.00000000000E+00  0.19126710640E+04  0.19126710640E+04  0.00000000000E+00 0. -1.
         -2   -1    0    0    0  501 -0.00000000000E+00 -0.00000000000E+00 -0.55012898458E+03  0.55012898458E+03  0.00000000000E+00 0.  1.
         23    2    1    2    0    0  0.51137381682E+01 -0.10214321570E+04  0.76820826746E+03  0.12810291395E+04  0.86844184553E+02 0.  0.
         13    1    3    3    0    0  0.13598941770E+02 -0.48761863195E+03  0.41928184756E+03  0.64323722617E+03  0.00000000000E+00 0.  1.
        -13    1    3    3    0    0 -0.84852036014E+01 -0.53381352501E+03  0.34892641990E+03  0.63779191330E+03  0.00000000000E+00 0. -1.
         22    1    1    2    0    0 -0.51137381682E+01  0.10214321570E+04  0.59433381194E+03  0.11817709091E+04  0.00000000000E+00 0. -1.
<mgrwt>
<rscale>  0 0.20515514E+04</rscale>
<asrwt>0</asrwt>
<pdfrwt beam="1">  1        2 0.29425708E+00 0.20515514E+04</pdfrwt>
<pdfrwt beam="2">  1       -2 0.84635229E-01 0.20515514E+04</pdfrwt>
<totfact> 0.84102606E+00</totfact>
</mgrwt>
</event>
<event>
 6    1  0.1585031E-006  0.2860150E+04  0.7818608E-02  0.8284834E-01
          2   -1    0    0  501    0  0.00000000000E+00  0.00000000000E+00  0.21052949274E+04  0.21052949274E+04  0.00000000000E+00 0. -1.
         -2   -1    0    0    0  501 -0.00000000000E+00 -0.00000000000E+00 -0.97141498358E+03  0.97141498358E+03  0.00000000000E+00 0.  1.
         23    2    1    2    0    0  0.77419095578E+03  0.11057252451E+04  0.63955912941E+02  0.13542879576E+04  0.89473792647E+02 0.  0.
         11    1    3    3    0    0  0.37818895055E+03  0.55138126344E+03  0.75997224689E+02  0.67292180686E+03  0.00000000000E+00 0.  1.
        -11    1    3    3    0    0  0.39600200523E+03  0.55434398168E+03 -0.12041311747E+02  0.68136615072E+03  0.00000000000E+00 0. -1.
         22    1    1    2    0    0 -0.77419095578E+03 -0.11057252451E+04  0.10699240309E+04  0.17224219534E+04  0.00000000000E+00 0. -1.
<mgrwt>
<rscale>  0 0.28601504E+04</rscale>
<asrwt>0</asrwt>
<pdfrwt beam="1">  1        2 0.32389153E+00 0.28601504E+04</pdfrwt>
<pdfrwt beam="2">  1       -2 0.14944846E+00 0.28601504E+04</pdfrwt>
<totfact> 0.15289394E+00</totfact>
</mgrwt>
</event>
<event>
 6    1  0.1585031E-006  0.2147090E+04  0.7818608E-02  0.8540779E-01
          1   -1    0    0  501    0  0.00000000000E+00  0.00000000000E+00  0.12317581160E+04  0.12317581160E+04  0.00000000000E+00 0. -1.
         -1   -1    0    0    0  501 -0.00000000000E+00 -0.00000000000E+00 -0.93565313556E+03  0.93565313556E+03  0.00000000000E+00 0.  1.
         23    2    1    2    0    0 -0.37030932568E+03  0.70951202949E+02  0.11608382210E+04  0.12240520161E+04  0.92708644978E+02 0.  0.
         11    1    3    3    0    0 -0.24435022222E+03  0.20125115224E+02  0.85393816655E+03  0.88843820474E+03  0.00000000000E+00 0.  1.
        -11    1    3    3    0    0 -0.12595910346E+03  0.50826087725E+02  0.30690005445E+03  0.33561381134E+03  0.00000000000E+00 0. -1.
         22    1    1    2    0    0  0.37030932568E+03 -0.70951202949E+02 -0.86473324055E+03  0.94335923549E+03  0.00000000000E+00 0.  1.
<mgrwt>
<rscale>  0 0.21470895E+04</rscale>
<asrwt>0</asrwt>
<pdfrwt beam="1">  1        1 0.18950125E+00 0.21470895E+04</pdfrwt>
<pdfrwt beam="2">  1       -1 0.14394664E+00 0.21470895E+04</pdfrwt>
<totfact> 0.36149247E+00</totfact>
</mgrwt>
</event>
<event>
 6    1  0.1585031E-006  0.6035895E+03  0.7818608E-02  0.9897987E-01
         -2   -1    0    0    0  501 -0.00000000000E+00  0.00000000000E+00  0.40609729277E+02  0.40609729277E+02  0.00000000000E+00 0.  1.
          2   -1    0    0  501    0  0.00000000000E+00 -0.00000000000E+00 -0.22428140523E+04  0.22428140523E+04  0.00000000000E+00 0. -1.
         23    2    1    2    0    0  0.43686869916E+02 -0.20428617059E+03 -0.19143280992E+04  0.19277355721E+04  0.88718558557E+02 0.  0.
         13    1    3    3    0    0  0.45020048226E+02 -0.34011657720E+02 -0.43763410686E+03  0.44125639835E+03  0.00000000000E+00 0. -1.
        -13    1    3    3    0    0 -0.13331783098E+01 -0.17027451287E+03 -0.14766939923E+04  0.14864791738E+04  0.00000000000E+00 0.  1.
         22    1    1    2    0    0 -0.43686869916E+02  0.20428617059E+03 -0.28787622390E+03  0.35568820951E+03  0.00000000000E+00 0.  1.
<mgrwt>
<rscale>  0 0.60358950E+03</rscale>
<asrwt>0</asrwt>
<pdfrwt beam="1">  1        2 0.34504830E+00 0.60358950E+03</pdfrwt>
<pdfrwt beam="2">  1       -2 0.62476510E-02 0.60358950E+03</pdfrwt>
<totfact> 0.74099451E+02</totfact>
</mgrwt>
</event>
<event>
 6    1  0.1585031E-006  0.7140048E+03  0.7818608E-02  0.9693577E-01
          2   -1    0    0  501    0  0.00000000000E+00  0.00000000000E+00  0.10321020375E+04  0.10321020375E+04  0.00000000000E+00 0. -1.
         -2   -1    0    0    0  501 -0.00000000000E+00 -0.00000000000E+00 -0.12348653837E+03  0.12348653837E+03  0.00000000000E+00 0.  1.
         23    2    1    2    0    0  0.16181560940E+03 -0.21145672044E+03  0.83258863494E+03  0.87868007089E+03  0.89311790303E+02 0.  0.
         13    1    3    3    0    0 -0.78888011465E+01 -0.54679677116E+00  0.49338915342E+02  0.49968597513E+02  0.00000000000E+00 0. -1.
        -13    1    3    3    0    0  0.16970441054E+03 -0.21090992367E+03  0.78324971960E+03  0.82871147338E+03  0.00000000000E+00 0.  1.
         22    1    1    2    0    0 -0.16181560940E+03  0.21145672044E+03  0.76026864216E+02  0.27690850501E+03  0.00000000000E+00 0.  1.
<mgrwt>
<rscale>  0 0.71400478E+03</rscale>
<asrwt>0</asrwt>
<pdfrwt beam="1">  1        2 0.15878492E+00 0.71400478E+03</pdfrwt>
<pdfrwt beam="2">  1       -2 0.18997930E-01 0.71400478E+03</pdfrwt>
<totfact> 0.56492275E+02</totfact>
</mgrwt>
</event>
<event>
 6    1  0.1585031E-006  0.1242932E+04  0.7818608E-02  0.9076087E-01
          1   -1    0    0  501    0  0.00000000000E+00  0.00000000000E+00  0.11438970089E+04  0.11438970089E+04  0.00000000000E+00 0. -1.
         -1   -1    0    0    0  501 -0.00000000000E+00 -0.00000000000E+00 -0.33763520985E+03  0.33763520985E+03  0.00000000000E+00 0.  1.
         23    2    1    2    0    0  0.52226955461E+03 -0.28143614601E+03  0.61196299972E+03  0.85725358275E+03  0.91723498330E+02 0.  0.
         13    1    3    3    0    0  0.11836295091E+03 -0.51602611493E+02  0.84701956742E+02  0.15442486567E+03  0.00000000000E+00 0. -1.
        -13    1    3    3    0    0  0.40390660370E+03 -0.22983353452E+03  0.52726104298E+03  0.70282871707E+03  0.00000000000E+00 0.  1.
         22    1    1    2    0    0 -0.52226955461E+03  0.28143614601E+03  0.19429879935E+03  0.62427863602E+03  0.00000000000E+00 0.  1.
<mgrwt>
<rscale>  0 0.12429319E+04</rscale>
<asrwt>0</asrwt>
<pdfrwt beam="1">  1        1 0.17598415E+00 0.12429319E+04</pdfrwt>
<pdfrwt beam="2">  1       -1 0.51943879E-01 0.12429319E+04</pdfrwt>
<totfact> 0.43265280E+01</totfact>
</mgrwt>
</event>
<event>
 6    1  0.1585031E-006  0.8177128E+03  0.7818608E-02  0.9534727E-01
          1   -1    0    0  501    0  0.00000000000E+00  0.00000000000E+00  0.94487523402E+03  0.94487523402E+03  0.00000000000E+00 0. -1.
         -1   -1    0    0    0  501 -0.00000000000E+00 -0.00000000000E+00 -0.17691601180E+03  0.17691601180E+03  0.00000000000E+00 0.  1.
         23    2    1    2    0    0 -0.25265666408E+03  0.23855172701E+03  0.10639633077E+03  0.37452437535E+03  0.90587041948E+02 0.  0.
         13    1    3    3    0    0 -0.12684923557E+03  0.12055442650E+03  0.10079332233E+03  0.20194898400E+03  0.00000000000E+00 0.  1.
        -13    1    3    3    0    0 -0.12580742851E+03  0.11799730051E+03  0.56030084398E+01  0.17257539135E+03  0.00000000000E+00 0. -1.
         22    1    1    2    0    0  0.25265666408E+03 -0.23855172701E+03  0.66156289144E+03  0.74726687047E+03  0.00000000000E+00 0. -1.
<mgrwt>
<rscale>  0 0.81771281E+03</rscale>
<asrwt>0</asrwt>
<pdfrwt beam="1">  1        1 0.14536542E+00 0.81771281E+03</pdfrwt>
<pdfrwt beam="2">  1       -1 0.27217848E-01 0.81771281E+03</pdfrwt>
<totfact> 0.20422938E+02</totfact>
</mgrwt>
</event>
<event>
 6    1  0.1585031E-006  0.2566193E+04  0.7818608E-02  0.8379776E-01
         -2   -1    0    0    0  501 -0.00000000000E+00  0.00000000000E+00  0.13761496606E+04  0.13761496606E+04  0.00000000000E+00 0.  1.
          2   -1    0    0  501    0  0.00000000000E+00 -0.00000000000E+00 -0.11963357500E+04  0.11963357500E+04  0.00000000000E+00 0. -1.
         23    2    1    2    0    0 -0.69051688522E+03  0.94102414873E+03  0.62019835572E+03  0.13249765022E+04  0.92610547851E+02 0.  0.
         13    1    3    3    0    0 -0.22999008506E+03  0.35164507679E+03  0.18017932195E+03  0.45718080375E+03  0.00000000000E+00 0.  1.
        -13    1    3    3    0    0 -0.46052680015E+03  0.58937907194E+03  0.44001903376E+03  0.86779569841E+03  0.00000000000E+00 0. -1.
         22    1    1    2    0    0  0.69051688522E+03 -0.94102414873E+03 -0.44038444505E+03  0.12475089085E+04  0.00000000000E+00 0. -1.
<mgrwt>
<rscale>  0 0.25661933E+04</rscale>
<asrwt>0</asrwt>
<pdfrwt beam="1">  1        2 0.18405165E+00 0.25661933E+04</pdfrwt>
<pdfrwt beam="2">  1       -2 0.21171533E+00 0.25661933E+04</pdfrwt>
<totfact> 0.18850177E+00</totfact>
</mgrwt>
</event>
<event>
 6    1  0.1585031E-006  0.1224796E+04  0.7818608E-02  0.9091425E-01
         -1   -1    0    0    0  501 -0.00000000000E+00  0.00000000000E+00  0.96837960171E+03  0.96837960171E+03  0.00000000000E+00 0.  1.
          1   -1    0    0  501    0  0.00000000000E+00 -0.00000000000E+00 -0.38727728608E+03  0.38727728608E+03  0.00000000000E+00 0. -1.
         23    2    1    2    0    0 -0.18874797396E+03  0.57479794989E+02  0.92986055551E+03  0.95495496067E+03  0.91480050936E+02 0.  0.
         13    1    3    3    0    0 -0.16945198048E+03  0.79255702453E+02  0.76455880412E+03  0.78711219341E+03  0.00000000000E+00 0.  1.
        -13    1    3    3    0    0 -0.19295993484E+02 -0.21775907465E+02  0.16530175139E+03  0.16784276726E+03  0.00000000000E+00 0. -1.
         22    1    1    2    0    0  0.18874797396E+03 -0.57479794989E+02 -0.34875823988E+03  0.40070192711E+03  0.00000000000E+00 0. -1.
<mgrwt>
<rscale>  0 0.12247962E+04</rscale>
<asrwt>0</asrwt>
<pdfrwt beam="1">  1        1 0.59581121E-01 0.12247962E+04</pdfrwt>
<pdfrwt beam="2">  1       -1 0.14898148E+00 0.12247962E+04</pdfrwt>
<totfact> 0.21993199E+01</totfact>
</mgrwt>
</event>
<event>
 6    1  0.1585031E-006  0.1418749E+04  0.7818608E-02  0.8940358E-01
         -2   -1    0    0    0  501 -0.00000000000E+00  0.00000000000E+00  0.82374245414E+03  0.82374245414E+03  0.00000000000E+00 0.  1.
          2   -1    0    0  501    0  0.00000000000E+00 -0.00000000000E+00 -0.61088530165E+03  0.61088530165E+03  0.00000000000E+00 0. -1.
         23    2    1    2    0    0  0.38458262969E+03 -0.29552687537E+03 -0.41284887849E+03  0.64295359912E+03  0.87779274475E+02 0.  0.
         13    1    3    3    0    0  0.10808271002E+03 -0.37354010940E+02 -0.10452466055E+03  0.15492772186E+03  0.00000000000E+00 0.  1.
        -13    1    3    3    0    0  0.27649991967E+03 -0.25817286443E+03 -0.30832421795E+03  0.48802587726E+03  0.00000000000E+00 0. -1.
         22    1    1    2    0    0 -0.38458262969E+03  0.29552687537E+03  0.62570603098E+03  0.79167415666E+03  0.00000000000E+00 0.  1.
<mgrwt>
<rscale>  0 0.14187490E+04</rscale>
<asrwt>0</asrwt>
<pdfrwt beam="1">  1        2 0.93982353E-01 0.14187490E+04</pdfrwt>
<pdfrwt beam="2">  1       -2 0.12672961E+00 0.14187490E+04</pdfrwt>
<totfact> 0.21839105E+01</totfact>
</mgrwt>
</event>
<event>
 6    1  0.1585031E-006  0.3160620E+04  0.7818608E-02  0.8199295E-01
          1   -1    0    0  501    0  0.00000000000E+00  0.00000000000E+00  0.11663947873E+04  0.11663947873E+04  0.00000000000E+00 0. -1.
         -1   -1    0    0    0  501 -0.00000000000E+00 -0.00000000000E+00 -0.21411106252E+04  0.21411106252E+04  0.00000000000E+00 0.  1.
         23    2    1    2    0    0  0.31657275018E+03  0.73054775411E+03  0.93911731008E+03  0.12346630052E+04  0.92374710664E+02 0.  0.
         13    1    3    3    0    0  0.15566953502E+03  0.44438066484E+03  0.59952572226E+03  0.76232425586E+03  0.00000000000E+00 0.  1.
        -13    1    3    3    0    0  0.16090321516E+03  0.28616708927E+03  0.33959158783E+03  0.47233874936E+03  0.00000000000E+00 0. -1.
         22    1    1    2    0    0 -0.31657275018E+03 -0.73054775411E+03 -0.19138331480E+04  0.20728424073E+04  0.00000000000E+00 0.  1.
<mgrwt>
<rscale>  0 0.31606204E+04</rscale>
<asrwt>0</asrwt>
<pdfrwt beam="1">  1        1 0.17944536E+00 0.31606204E+04</pdfrwt>
<pdfrwt beam="2">  1       -1 0.32940163E+00 0.31606204E+04</pdfrwt>
<totfact> 0.20165785E-01</totfact>
</mgrwt>
</event>
<event>
 6    1  0.1585031E-006  0.1996035E+04  0.7818608E-02  0.8608477E-01
          1   -1    0    0  501    0  0.00000000000E+00  0.00000000000E+00  0.97767223940E+03  0.97767223940E+03  0.00000000000E+00 0. -1.
         -1   -1    0    0    0  501 -0.00000000000E+00 -0.00000000000E+00 -0.10187856373E+04  0.10187856373E+04  0.00000000000E+00 0.  1.
         23    2    1    2    0    0 -0.13761462696E+03  0.72336432190E+03  0.65037954544E+03  0.98633104385E+03  0.87530835653E+02 0.  0.
         11    1    3    3    0    0  0.12889264651E+01  0.18669522722E+03  0.14882861722E+03  0.23876081442E+03  0.00000000000E+00 0. -1.
        -11    1    3    3    0    0 -0.13890355342E+03  0.53666909468E+03  0.50155092821E+03  0.74757022943E+03  0.00000000000E+00 0.  1.
         22    1    1    2    0    0  0.13761462696E+03 -0.72336432190E+03 -0.69149294330E+03  0.10101268328E+04  0.00000000000E+00 0.  1.
<mgrwt>
<rscale>  0 0.19960345E+04</rscale>
<asrwt>0</asrwt>
<pdfrwt beam="1">  1        1 0.15041111E+00 0.19960345E+04</pdfrwt>
<pdfrwt beam="2">  1       -1 0.15673625E+00 0.19960345E+04</pdfrwt>
<totfact> 0.45249278E+00</totfact>
</mgrwt>
</event>
<event>
 6    1  0.1585031E-006  0.1196227E+04  0.7818608E-02  0.9116165E-01
         -2   -1    0    0    0  501 -0.00000000000E+00  0.00000000000E+00  0.29404767983E+04  0.29404767983E+04  0.00000000000E+00 0.  1.
          2   -1    0    0  501    0  0.00000000000E+00 -0.00000000000E+00 -0.12166049035E+03  0.12166049035E+03  0.00000000000E+00 0. -1.
         23    2    1    2    0    0 -0.14432371890E+03  0.27543658614E+03  0.27149254264E+04  0.27342837175E+04  0.93769549579E+02 0.  0.
         13    1    3    3    0    0 -0.60731294092E+02  0.71826792777E+02  0.52824210766E+03  0.53655111830E+03  0.00000000000E+00 0. -1.
        -13    1    3    3    0    0 -0.83592424803E+02  0.20360979336E+03  0.21866833187E+04  0.21977325992E+04  0.00000000000E+00 0.  1.
         22    1    1    2    0    0  0.14432371890E+03 -0.27543658614E+03  0.10389088158E+03  0.32785357112E+03  0.00000000000E+00 0. -1.
<mgrwt>
<rscale>  0 0.11962272E+04</rscale>
<asrwt>0</asrwt>
<pdfrwt beam="1">  1        2 0.18717001E-01 0.11962272E+04</pdfrwt>
<pdfrwt beam="2">  1       -2 0.45238099E+00 0.11962272E+04</pdfrwt>
<totfact> 0.10372566E+00</totfact>
</mgrwt>
</event>
<event>
 6    1  0.1585031E-006  0.8149474E+04  0.7818608E-02  0.7469264E-01
         -1   -1    0    0    0  501 -0.00000000000E+00  0.00000000000E+00  0.45591489445E+04  0.45591489445E+04  0.00000000000E+00 0.  1.
          1   -1    0    0  501    0  0.00000000000E+00 -0.00000000000E+00 -0.36417939965E+04  0.36417939965E+04  0.00000000000E+00 0. -1.
         23    2    1    2    0    0 -0.67958905055E+03 -0.19118379863E+04 -0.30966756171E+04  0.37032316185E+04  0.86941241853E+02 0.  0.
         11    1    3    3    0    0 -0.33623729281E+03 -0.10525411109E+04 -0.17298582477E+04  0.20526343718E+04  0.00000000000E+00 0.  1.
        -11    1    3    3    0    0 -0.34335175774E+03 -0.85929687536E+03 -0.13668173694E+04  0.16505972467E+04  0.00000000000E+00 0. -1.
         22    1    1    2    0    0  0.67958905055E+03  0.19118379863E+04  0.40140305650E+04  0.44977113225E+04  0.00000000000E+00 0.  1.
<mgrwt>
<rscale>  0 0.81494739E+04</rscale>
<asrwt>0</asrwt>
<pdfrwt beam="1">  1        1 0.56027600E+00 0.81494739E+04</pdfrwt>
<pdfrwt beam="2">  1       -1 0.70140753E+00 0.81494739E+04</pdfrwt>
<totfact> 0.22413739E-05</totfact>
</mgrwt>
</event>
<event>
 6    1  0.1585031E-006  0.3210988E+04  0.7818608E-02  0.8185921E-01
         -2   -1    0    0    0  501 -0.00000000000E+00  0.00000000000E+00  0.85633727394E+03  0.85633727394E+03  0.00000000000E+00 0.  1.
          2   -1    0    0  501    0  0.00000000000E+00 -0.00000000000E+00 -0.30100418224E+04  0.30100418224E+04  0.00000000000E+00 0. -1.
         23    2    1    2    0    0  0.61173674987E+03 -0.13192862018E+04 -0.18936326053E+04  0.23890926146E+04  0.84741630440E+02 0.  0.
         11    1    3    3    0    0  0.48531977899E+03 -0.98471510734E+03 -0.13856241449E+04  0.17678103409E+04  0.00000000000E+00 0.  1.
        -11    1    3    3    0    0  0.12641697088E+03 -0.33457109446E+03 -0.50800846041E+03  0.62128227371E+03  0.00000000000E+00 0. -1.
         22    1    1    2    0    0 -0.61173674987E+03  0.13192862018E+04 -0.26007194313E+03  0.14772864817E+04  0.00000000000E+00 0.  1.
<mgrwt>
<rscale>  0 0.32109880E+04</rscale>
<asrwt>0</asrwt>
<pdfrwt beam="1">  1        2 0.46308336E+00 0.32109880E+04</pdfrwt>
<pdfrwt beam="2">  1       -2 0.13174420E+00 0.32109880E+04</pdfrwt>
<totfact> 0.60570689E-01</totfact>
</mgrwt>
</event>
<event>
 6    1  0.1585031E-006  0.1565472E+04  0.7818608E-02  0.8842045E-01
          1   -1    0    0  501    0  0.00000000000E+00  0.00000000000E+00  0.75381550199E+03  0.75381550199E+03  0.00000000000E+00 0. -1.
         -1   -1    0    0    0  501 -0.00000000000E+00 -0.00000000000E+00 -0.81276598672E+03  0.81276598672E+03  0.00000000000E+00 0.  1.
         23    2    1    2    0    0  0.14521161604E+03 -0.19555170181E+03  0.71189019046E+03  0.75817427200E+03  0.93347211789E+02 0.  0.
         13    1    3    3    0    0  0.15120237085E+02 -0.55822051279E+02  0.28091228296E+03  0.28680382441E+03  0.00000000000E+00 0. -1.
        -13    1    3    3    0    0  0.13009137895E+03 -0.13972965053E+03  0.43097790749E+03  0.47137044759E+03  0.00000000000E+00 0.  1.
         22    1    1    2    0    0 -0.14521161604E+03  0.19555170181E+03 -0.77084067518E+03  0.80840721671E+03  0.00000000000E+00 0.  1.
<mgrwt>
<rscale>  0 0.15654719E+04</rscale>
<asrwt>0</asrwt>
<pdfrwt beam="1">  1        1 0.11597162E+00 0.15654719E+04</pdfrwt>
<pdfrwt beam="2">  1       -1 0.12504092E+00 0.15654719E+04</pdfrwt>
<totfact> 0.13077528E+01</totfact>
</mgrwt>
</event>
<event>
 6    1  0.1585031E-006  0.1509291E+04  0.7818608E-02  0.8878298E-01
         -1   -1    0    0    0  501 -0.00000000000E+00  0.00000000000E+00  0.25846513114E+03  0.25846513114E+03  0.00000000000E+00 0.  1.
          1   -1    0    0  501    0  0.00000000000E+00 -0.00000000000E+00 -0.22033534133E+04  0.22033534133E+04  0.00000000000E+00 0. -1.
         23    2    1    2    0    0  0.95442318573E+01  0.28169472823E+03 -0.21129395732E+04  0.21336657619E+04  0.92590124226E+02 0.  0.
         11    1    3    3    0    0 -0.75817016850E+01  0.16318659916E+03 -0.15202349571E+04  0.15289871396E+04  0.00000000000E+00 0. -1.
        -11    1    3    3    0    0  0.17125933542E+02  0.11850812907E+03 -0.59270461615E+03  0.60467862230E+03  0.00000000000E+00 0.  1.
         22    1    1    2    0    0 -0.95442318573E+01 -0.28169472823E+03  0.16805129105E+03  0.32815278255E+03  0.00000000000E+00 0.  1.
<mgrwt>
<rscale>  0 0.15092913E+04</rscale>
<asrwt>0</asrwt>
<pdfrwt beam="1">  1        1 0.33897745E+00 0.15092913E+04</pdfrwt>
<pdfrwt beam="2">  1       -1 0.39763867E-01 0.15092913E+04</pdfrwt>
<totfact> 0.12914189E+01</totfact>
</mgrwt>
</event>
<event>
 6    1  0.1585031E-006  0.2108980E+04  0.7818608E-02  0.8557298E-01
         -1   -1    0    0    0  501 -0.00000000000E+00  0.00000000000E+00  0.57114037689E+03  0.57114037689E+03  0.00000000000E+00 0.  1.
          1   -1    0    0  501    0  0.00000000000E+00 -0.00000000000E+00 -0.19468927357E+04  0.19468927357E+04  0.00000000000E+00 0. -1.
         23    2    1    2    0    0 -0.11003886610E+03 -0.54649748079E+03  0.37669780755E+03  0.67905251613E+03  0.91885977611E+02 0.  0.
         11    1    3    3    0    0 -0.10902823800E+03 -0.33764422667E+03  0.21447477883E+03  0.41459644383E+03  0.00000000000E+00 0.  1.
        -11    1    3    3    0    0 -0.10106281047E+01 -0.20885325412E+03  0.16222302873E+03  0.26445607230E+03  0.00000000000E+00 0. -1.
         22    1    1    2    0    0  0.11003886610E+03  0.54649748079E+03 -0.17524501664E+04  0.18389805965E+04  0.00000000000E+00 0. -1.
<mgrwt>
<rscale>  0 0.21089799E+04</rscale>
<asrwt>0</asrwt>
<pdfrwt beam="1">  1        1 0.29952196E+00 0.21089799E+04</pdfrwt>
<pdfrwt beam="2">  1       -1 0.87867751E-01 0.21089799E+04</pdfrwt>
<totfact> 0.37885941E+00</totfact>
</mgrwt>
</event>
<event>
 6    1  0.1585031E-006  0.1153172E+04  0.7818608E-02  0.9154862E-01
         -1   -1    0    0    0  501 -0.00000000000E+00  0.00000000000E+00  0.57348323397E+03  0.57348323397E+03  0.00000000000E+00 0.  1.
          1   -1    0    0  501    0  0.00000000000E+00 -0.00000000000E+00 -0.57970523848E+03  0.57970523848E+03  0.00000000000E+00 0. -1.
         23    2    1    2    0    0 -0.36405051080E+03 -0.36846838101E+03 -0.24822019262E+03  0.58146752193E+03  0.90495816545E+02 0.  0.
         11    1    3    3    0    0 -0.32430650321E+03 -0.34107684546E+03 -0.25047289692E+03  0.53314612877E+03  0.00000000000E+00 0.  1.
        -11    1    3    3    0    0 -0.39744007597E+02 -0.27391535550E+02  0.22527043079E+01  0.48321393155E+02  0.00000000000E+00 0. -1.
         22    1    1    2    0    0  0.36405051080E+03  0.36846838101E+03  0.24199818811E+03  0.57172095052E+03  0.00000000000E+00 0.  1.
<mgrwt>
<rscale>  0 0.11531717E+04</rscale>
<asrwt>0</asrwt>
<pdfrwt beam="1">  1        1 0.89185421E-01 0.11531717E+04</pdfrwt>
<pdfrwt beam="2">  1       -1 0.88228190E-01 0.11531717E+04</pdfrwt>
<totfact> 0.45126994E+01</totfact>
</mgrwt>
</event>
<event>
 6    1  0.1585031E-006  0.1936165E+04  0.7818608E-02  0.8637061E-01
         -1   -1    0    0    0  501 -0.00000000000E+00  0.00000000000E+00  0.24260696845E+03  0.24260696845E+03  0.00000000000E+00 0.  1.
          1   -1    0    0  501    0  0.00000000000E+00 -0.00000000000E+00 -0.38629717360E+04  0.38629717360E+04  0.00000000000E+00 0. -1.
         23    2    1    2    0    0 -0.74040993199E+03 -0.47615336554E+03 -0.96926365836E+03  0.13121460516E+04  0.85593962445E+02 0.  0.
         11    1    3    3    0    0 -0.66403515318E+03 -0.40864113912E+03 -0.82121244683E+03  0.11323957559E+04  0.00000000000E+00 0. -1.
        -11    1    3    3    0    0 -0.76374778808E+02 -0.67512226417E+02 -0.14805121153E+03  0.17975029566E+03  0.00000000000E+00 0.  1.
         22    1    1    2    0    0  0.74040993199E+03  0.47615336554E+03 -0.26511011091E+04  0.27934326528E+04  0.00000000000E+00 0. -1.
<mgrwt>
<rscale>  0 0.19361651E+04</rscale>
<asrwt>0</asrwt>
<pdfrwt beam="1">  1        1 0.59430326E+00 0.19361651E+04</pdfrwt>
<pdfrwt beam="2">  1       -1 0.37324154E-01 0.19361651E+04</pdfrwt>
<totfact> 0.81915701E-01</totfact>
</mgrwt>
</event>
<event>
 6    1  0.1585031E-006  0.1386645E+04  0.7818608E-02  0.8963543E-01
         -2   -1    0    0    0  501 -0.00000000000E+00  0.00000000000E+00  0.22220451643E+03  0.22220451643E+03  0.00000000000E+00 0.  1.
          2   -1    0    0  501    0  0.00000000000E+00 -0.00000000000E+00 -0.21633036607E+04  0.21633036607E+04  0.00000000000E+00 0. -1.
         23    2    1    2    0    0 -0.45158619689E+03 -0.51887435631E+03 -0.87513620853E+03  0.11168720310E+04  0.91537201866E+02 0.  0.
         11    1    3    3    0    0 -0.37388700441E+03 -0.39879630947E+03 -0.64030701198E+03  0.84191630113E+03  0.00000000000E+00 0.  1.
        -11    1    3    3    0    0 -0.77699192471E+02 -0.12007804684E+03 -0.23482919655E+03  0.27495572988E+03  0.00000000000E+00 0. -1.
         22    1    1    2    0    0  0.45158619689E+03  0.51887435631E+03 -0.10659629357E+04  0.12686361461E+04  0.00000000000E+00 0. -1.
<mgrwt>
<rscale>  0 0.13866446E+04</rscale>
<asrwt>0</asrwt>
<pdfrwt beam="1">  1        2 0.33281594E+00 0.13866446E+04</pdfrwt>
<pdfrwt beam="2">  1       -2 0.34185311E-01 0.13866446E+04</pdfrwt>
<totfact> 0.42335950E+01</totfact>
</mgrwt>
</event>
<event>
 6    1  0.1585031E-006  0.2667025E+04  0.7818608E-02  0.8345784E-01
         -1   -1    0    0    0  501 -0.00000000000E+00  0.00000000000E+00  0.86267132819E+03  0.86267132819E+03  0.00000000000E+00 0.  1.
          1   -1    0    0  501    0  0.00000000000E+00 -0.00000000000E+00 -0.20613362506E+04  0.20613362506E+04  0.00000000000E+00 0. -1.
         23    2    1    2    0    0  0.92576175805E+03  0.93836219045E+03 -0.39290720805E+03  0.13790791250E+04  0.99622917393E+02 0.  0.
         13    1    3    3    0    0  0.65553925390E+03  0.67513216391E+03 -0.23366116764E+03  0.96960440047E+03  0.00000000000E+00 0.  1.
        -13    1    3    3    0    0  0.27022250415E+03  0.26323002653E+03 -0.15924604041E+03  0.40947472450E+03  0.00000000000E+00 0. -1.
         22    1    1    2    0    0 -0.92576175805E+03 -0.93836219045E+03 -0.80575771433E+03  0.15449284538E+04  0.00000000000E+00 0.  1.
<mgrwt>
<rscale>  0 0.26670251E+04</rscale>
<asrwt>0</asrwt>
<pdfrwt beam="1">  1        1 0.31712866E+00 0.26670251E+04</pdfrwt>
<pdfrwt beam="2">  1       -1 0.13271866E+00 0.26670251E+04</pdfrwt>
<totfact> 0.11405304E+00</totfact>
</mgrwt>
</event>
<event>
 6    1  0.1585031E-006  0.6479152E+03  0.7818608E-02  0.9810699E-01
         -1   -1    0    0    0  501 -0.00000000000E+00  0.00000000000E+00  0.12258077556E+03  0.12258077556E+03  0.00000000000E+00 0.  1.
          1   -1    0    0  501    0  0.00000000000E+00 -0.00000000000E+00 -0.85615804852E+03  0.85615804852E+03  0.00000000000E+00 0. -1.
         23    2    1    2    0    0  0.26773548435E+03  0.13862254146E+03 -0.52604120518E+03  0.61272008410E+03  0.88363189916E+02 0.  0.
         13    1    3    3    0    0  0.45154506531E+02  0.50513134656E+02 -0.68546573675E+02  0.96380179474E+02  0.00000000000E+00 0. -1.
        -13    1    3    3    0    0  0.22258097782E+03  0.88109406808E+02 -0.45749463150E+03  0.51633990463E+03  0.00000000000E+00 0.  1.
         22    1    1    2    0    0 -0.26773548435E+03 -0.13862254146E+03 -0.20753606778E+03  0.36601873998E+03  0.00000000000E+00 0. -1.
<mgrwt>
<rscale>  0 0.64791517E+03</rscale>
<asrwt>0</asrwt>
<pdfrwt beam="1">  1        1 0.13171663E+00 0.64791517E+03</pdfrwt>
<pdfrwt beam="2">  1       -1 0.18858580E-01 0.64791517E+03</pdfrwt>
<totfact> 0.45177243E+02</totfact>
</mgrwt>
</event>
<event>
 6    1  0.1585031E-006  0.3859740E+04  0.7818608E-02  0.8033455E-01
         -2   -1    0    0    0  501 -0.00000000000E+00  0.00000000000E+00  0.12268440130E+04  0.12268440130E+04  0.00000000000E+00 0.  1.
          2   -1    0    0  501    0  0.00000000000E+00 -0.00000000000E+00 -0.30357552874E+04  0.30357552874E+04  0.00000000000E+00 0. -1.
         23    2    1    2    0    0  0.15832037775E+04 -0.47615321856E+03  0.19217111363E+03  0.16669131074E+04  0.91725034425E+02 0.  0.
         11    1    3    3    0    0  0.45581239961E+03 -0.13861819671E+03  0.13693063164E+02  0.47662086408E+03  0.00000000000E+00 0. -1.
        -11    1    3    3    0    0  0.11273913779E+04 -0.33753502185E+03  0.17847805046E+03  0.11902922433E+04  0.00000000000E+00 0.  1.
         22    1    1    2    0    0 -0.15832037775E+04  0.47615321856E+03 -0.20010823881E+04  0.25956861930E+04  0.00000000000E+00 0. -1.
<mgrwt>
<rscale>  0 0.38597400E+04</rscale>
<asrwt>0</asrwt>
<pdfrwt beam="1">  1        2 0.46703927E+00 0.38597400E+04</pdfrwt>
<pdfrwt beam="2">  1       -2 0.18874523E+00 0.38597400E+04</pdfrwt>
<totfact> 0.20832980E-01</totfact>
</mgrwt>
</event>
<event>
 6    1  0.1585031E-006  0.1171738E+04  0.7818608E-02  0.9137961E-01
         -1   -1    0    0    0  501 -0.00000000000E+00  0.00000000000E+00  0.51829074488E+03  0.51829074488E+03  0.00000000000E+00 0.  1.
          1   -1    0    0  501    0  0.00000000000E+00 -0.00000000000E+00 -0.66225825217E+03  0.66225825217E+03  0.00000000000E+00 0. -1.
         23    2    1    2    0    0  0.18527387197E+03 -0.45952832134E+03 -0.38059250629E+03  0.63147334116E+03  0.91734611792E+02 0.  0.
         11    1    3    3    0    0  0.62954095893E+02 -0.16468886895E+03 -0.82254070636E+02  0.19455429546E+03  0.00000000000E+00 0. -1.
        -11    1    3    3    0    0  0.12231977608E+03 -0.29483945239E+03 -0.29833843566E+03  0.43691904570E+03  0.00000000000E+00 0.  1.
         22    1    1    2    0    0 -0.18527387197E+03  0.45952832134E+03  0.23662499899E+03  0.54907565589E+03  0.00000000000E+00 0.  1.
<mgrwt>
<rscale>  0 0.11717377E+04</rscale>
<asrwt>0</asrwt>
<pdfrwt beam="1">  1        1 0.10188588E+00 0.11717377E+04</pdfrwt>
<pdfrwt beam="2">  1       -1 0.79737038E-01 0.11717377E+04</pdfrwt>
<totfact> 0.46166842E+01</totfact>
</mgrwt>
</event>
<event>
 6    1  0.1585031E-006  0.1857393E+04  0.7818608E-02  0.8676360E-01
          2   -1    0    0  501    0  0.00000000000E+00  0.00000000000E+00  0.42017102240E+04  0.42017102240E+04  0.00000000000E+00 0. -1.
         -2   -1    0    0    0  501 -0.00000000000E+00 -0.00000000000E+00 -0.20526805914E+03  0.20526805914E+03  0.00000000000E+00 0.  1.
         23    2    1    2    0    0  0.92124987807E+03  0.48268142821E+02  0.17962299009E+04  0.20211943118E+04  0.88053607021E+02 0.  0.
         13    1    3    3    0    0  0.40197140146E+03  0.17302922665E+01  0.86824395846E+03  0.95678188366E+03  0.00000000000E+00 0. -1.
        -13    1    3    3    0    0  0.51927847661E+03  0.46537850555E+02  0.92798594240E+03  0.10644124281E+04  0.00000000000E+00 0.  1.
         22    1    1    2    0    0 -0.92124987807E+03 -0.48268142821E+02  0.22002122640E+04  0.23857839714E+04  0.00000000000E+00 0. -1.
<mgrwt>
<rscale>  0 0.18573927E+04</rscale>
<asrwt>0</asrwt>
<pdfrwt beam="1">  1        2 0.64641689E+00 0.18573927E+04</pdfrwt>
<pdfrwt beam="2">  1       -2 0.31579705E-01 0.18573927E+04</pdfrwt>
<totfact> 0.20611694E+00</totfact>
</mgrwt>
</event>
<event>
 6    1  0.1585031E-006  0.3477969E+04  0.7818608E-02  0.8119031E-01
          2   -1    0    0  501    0  0.00000000000E+00  0.00000000000E+00  0.26076006956E+04  0.26076006956E+04  0.00000000000E+00 0. -1.
         -2   -1    0    0    0  501 -0.00000000000E+00 -0.00000000000E+00 -0.11597126208E+04  0.11597126208E+04  0.00000000000E+00 0.  1.
         23    2    1    2    0    0 -0.67299445530E+03  0.43742182160E+03  0.23939448878E+04  0.25266349212E+04  0.93018881479E+02 0.  0.
         11    1    3    3    0    0 -0.43806927806E+03  0.26250807394E+03  0.13905121248E+04  0.14813301963E+04  0.00000000000E+00 0.  1.
        -11    1    3    3    0    0 -0.23492517724E+03  0.17491374766E+03  0.10034327631E+04  0.10453047249E+04  0.00000000000E+00 0. -1.
         22    1    1    2    0    0  0.67299445530E+03 -0.43742182160E+03 -0.94605681300E+03  0.12406783952E+04  0.00000000000E+00 0.  1.
<mgrwt>
<rscale>  0 0.34779692E+04</rscale>
<asrwt>0</asrwt>
<pdfrwt beam="1">  1        2 0.40116934E+00 0.34779692E+04</pdfrwt>
<pdfrwt beam="2">  1       -2 0.17841733E+00 0.34779692E+04</pdfrwt>
<totfact> 0.46100822E-01</totfact>
</mgrwt>
</event>
<event>
 6    1  0.1585031E-006  0.7872528E+03  0.7818608E-02  0.9578654E-01
          2   -1    0    0  501    0  0.00000000000E+00  0.00000000000E+00  0.21906694578E+03  0.21906694578E+03  0.00000000000E+00 0. -1.
         -2   -1    0    0    0  501 -0.00000000000E+00 -0.00000000000E+00 -0.70728040916E+03  0.70728040916E+03  0.00000000000E+00 0.  1.
         23    2    1    2    0    0 -0.11971818379E+02 -0.31898186393E+03  0.13082602322E+02  0.33204902965E+03  0.90513256810E+02 0.  0.
         13    1    3    3    0    0 -0.51583098205E+02 -0.17843756767E+03  0.51966605152E+01  0.18581654086E+03  0.00000000000E+00 0.  1.
        -13    1    3    3    0    0  0.39611279825E+02 -0.14054429626E+03  0.78859418065E+01  0.14623248879E+03  0.00000000000E+00 0. -1.
         22    1    1    2    0    0  0.11971818379E+02  0.31898186393E+03 -0.50129606571E+03  0.59429832529E+03  0.00000000000E+00 0.  1.
<mgrwt>
<rscale>  0 0.78725284E+03</rscale>
<asrwt>0</asrwt>
<pdfrwt beam="1">  1        2 0.33702607E-01 0.78725284E+03</pdfrwt>
<pdfrwt beam="2">  1       -2 0.10881237E+00 0.78725284E+03</pdfrwt>
<totfact> 0.10607747E+02</totfact>
</mgrwt>
</event>
<event>
 6    1  0.1585031E-006  0.2291671E+04  0.7818608E-02  0.8481212E-01
          1   -1    0    0  501    0  0.00000000000E+00  0.00000000000E+00  0.15524028243E+04  0.15524028243E+04  0.00000000000E+00 0. -1.
         -1   -1    0    0    0  501 -0.00000000000E+00 -0.00000000000E+00 -0.84574622188E+03  0.84574622188E+03  0.00000000000E+00 0.  1.
         23    2    1    2    0    0  0.69238809298E+03  0.74705758293E+03  0.89867330318E+03  0.13616324198E+04  0.94513687906E+02 0.  0.
         13    1    3    3    0    0  0.21982801966E+03  0.22700771758E+03  0.33769434468E+03  0.46248711603E+03  0.00000000000E+00 0. -1.
        -13    1    3    3    0    0  0.47256007332E+03  0.52004986536E+03  0.56097895850E+03  0.89914530374E+03  0.00000000000E+00 0.  1.
         22    1    1    2    0    0 -0.69238809298E+03 -0.74705758293E+03 -0.19201670074E+03  0.10365166264E+04  0.00000000000E+00 0.  1.
<mgrwt>
<rscale>  0 0.22916709E+04</rscale>
<asrwt>0</asrwt>
<pdfrwt beam="1">  1        1 0.23883120E+00 0.22916709E+04</pdfrwt>
<pdfrwt beam="2">  1       -1 0.13011480E+00 0.22916709E+04</pdfrwt>
<totfact> 0.27542902E+00</totfact>
</mgrwt>
</event>
<event>
 6    1  0.1585031E-006  0.4719927E+04  0.7818608E-02  0.7873226E-01
         -2   -1    0    0    0  501 -0.00000000000E+00  0.00000000000E+00  0.25790399677E+04  0.25790399677E+04  0.00000000000E+00 0.  1.
          2   -1    0    0  501    0  0.00000000000E+00 -0.00000000000E+00 -0.21594965260E+04  0.21594965260E+04  0.00000000000E+00 0. -1.
         23    2    1    2    0    0 -0.88789742833E+03  0.17092294703E+04  0.15774135022E+04  0.24912069001E+04  0.89728684093E+02 0.  0.
         13    1    3    3    0    0 -0.52013734290E+03  0.10948226749E+04  0.98584926414E+03  0.15623950578E+04  0.00000000000E+00 0. -1.
        -13    1    3    3    0    0 -0.36776008543E+03  0.61440679538E+03  0.59156423811E+03  0.92881184233E+03  0.00000000000E+00 0.  1.
         22    1    1    2    0    0  0.88789742833E+03 -0.17092294703E+04 -0.11578700605E+04  0.22473295936E+04  0.00000000000E+00 0. -1.
<mgrwt>
<rscale>  0 0.47199271E+04</rscale>
<asrwt>0</asrwt>
<pdfrwt beam="1">  1        2 0.33223023E+00 0.47199271E+04</pdfrwt>
<pdfrwt beam="2">  1       -2 0.39677538E+00 0.47199271E+04</pdfrwt>
<totfact> 0.31572550E-02</totfact>
</mgrwt>
</event>
<event>
 6    1  0.1585031E-006  0.3203483E+04  0.7818608E-02  0.8187898E-01
          2   -1    0    0  501    0  0.00000000000E+00  0.00000000000E+00  0.32406553508E+04  0.32406553508E+04  0.00000000000E+00 0. -1.
         -2   -1    0    0    0  501 -0.00000000000E+00 -0.00000000000E+00 -0.79168421732E+03  0.79168421732E+03  0.00000000000E+00 0.  1.
         23    2    1    2    0    0  0.76425658907E+03  0.66327073708E+03  0.27862118983E+04  0.29656870764E+04  0.91142132292E+02 0.  0.
         13    1    3    3    0    0  0.46656681809E+03  0.34823023987E+03  0.15558061633E+04  0.16611687794E+04  0.00000000000E+00 0. -1.
        -13    1    3    3    0    0  0.29768977098E+03  0.31504049721E+03  0.12304057350E+04  0.13045182970E+04  0.00000000000E+00 0.  1.
         22    1    1    2    0    0 -0.76425658907E+03 -0.66327073708E+03 -0.33724076484E+03  0.10666524917E+04  0.00000000000E+00 0.  1.
<mgrwt>
<rscale>  0 0.32034829E+04</rscale>
<asrwt>0</asrwt>
<pdfrwt beam="1">  1        2 0.49856235E+00 0.32034829E+04</pdfrwt>
<pdfrwt beam="2">  1       -2 0.12179757E+00 0.32034829E+04</pdfrwt>
<totfact> 0.52478322E-01</totfact>
</mgrwt>
</event>
<event>
 6    1  0.1585031E-006  0.3819288E+04  0.7818608E-02  0.8042028E-01
          1   -1    0    0  501    0  0.00000000000E+00  0.00000000000E+00  0.33538192281E+04  0.33538192281E+04  0.00000000000E+00 0. -1.
         -1   -1    0    0    0  501 -0.00000000000E+00 -0.00000000000E+00 -0.10873393793E+04  0.10873393793E+04  0.00000000000E+00 0.  1.
         23    2    1    2    0    0  0.55067804790E+03 -0.16553790119E+04  0.20338845064E+04  0.26811510567E+04  0.91426572688E+02 0.  0.
         13    1    3    3    0    0  0.25047555539E+03 -0.61256674860E+03  0.77320012483E+03  0.10177497032E+04  0.00000000000E+00 0.  1.
        -13    1    3    3    0    0  0.30020249251E+03 -0.10428122633E+04  0.12606843815E+04  0.16634013535E+04  0.00000000000E+00 0. -1.
         22    1    1    2    0    0 -0.55067804790E+03  0.16553790119E+04  0.23259534246E+03  0.17600075507E+04  0.00000000000E+00 0.  1.
<mgrwt>
<rscale>  0 0.38192877E+04</rscale>
<asrwt>0</asrwt>
<pdfrwt beam="1">  1        1 0.51597218E+00 0.38192877E+04</pdfrwt>
<pdfrwt beam="2">  1       -1 0.16728298E+00 0.38192877E+04</pdfrwt>
<totfact> 0.66406758E-02</totfact>
</mgrwt>
</event>
<event>
 6    1  0.1585031E-006  0.1896867E+04  0.7818608E-02  0.8656418E-01
          2   -1    0    0  501    0  0.00000000000E+00  0.00000000000E+00  0.15479788068E+04  0.15479788068E+04  0.00000000000E+00 0.  1.
         -2   -1    0    0    0  501 -0.00000000000E+00 -0.00000000000E+00 -0.58109700172E+03  0.58109700172E+03  0.00000000000E+00 0. -1.
         23    2    1    2    0    0 -0.74551942179E+03  0.23596449574E+03  0.10825730022E+04  0.13385931050E+04  0.91590087340E+02 0.  0.
         13    1    3    3    0    0 -0.26504214621E+03  0.10856283510E+03  0.33369657761E+03  0.43975747218E+03  0.00000000000E+00 0. -1.
        -13    1    3    3    0    0 -0.48047727558E+03  0.12740166065E+03  0.74887642462E+03  0.89883563283E+03  0.00000000000E+00 0.  1.
         22    1    1    2    0    0  0.74551942179E+03 -0.23596449574E+03 -0.11569119711E+03  0.79048270355E+03  0.00000000000E+00 0. -1.
<mgrwt>
<rscale>  0 0.18968667E+04</rscale>
<asrwt>0</asrwt>
<pdfrwt beam="1">  1        2 0.23815058E+00 0.18968667E+04</pdfrwt>
<pdfrwt beam="2">  1       -2 0.89399539E-01 0.18968667E+04</pdfrwt>
<totfact> 0.11992454E+01</totfact>
</mgrwt>
</event>
<event>
 6    1  0.1585031E-006  0.9921395E+03  0.7818608E-02  0.9317208E-01
         -1   -1    0    0    0  501 -0.00000000000E+00  0.00000000000E+00  0.56997393072E+03  0.56997393072E+03  0.00000000000E+00 0.  1.
          1   -1    0    0  501    0  0.00000000000E+00 -0.00000000000E+00 -0.43174812236E+03  0.43174812236E+03  0.00000000000E+00 0. -1.
         23    2    1    2    0    0 -0.18473961623E+03 -0.39552748300E+03 -0.15934005005E+03  0.47340760533E+03  0.90303895936E+02 0.  0.
         13    1    3    3    0    0 -0.60808977683E+02 -0.20455798104E+03 -0.11149834436E+03  0.24077703414E+03  0.00000000000E+00 0.  1.
        -13    1    3    3    0    0 -0.12393063854E+03 -0.19096950196E+03 -0.47841705691E+02  0.23263057119E+03  0.00000000000E+00 0. -1.
         22    1    1    2    0    0  0.18473961623E+03  0.39552748300E+03  0.29756585841E+03  0.52831444775E+03  0.00000000000E+00 0. -1.
<mgrwt>
<rscale>  0 0.99213945E+03</rscale>
<asrwt>0</asrwt>
<pdfrwt beam="1">  1        1 0.66422789E-01 0.99213945E+03</pdfrwt>
<pdfrwt beam="2">  1       -1 0.87688296E-01 0.99213945E+03</pdfrwt>
<totfact> 0.69528050E+01</totfact>
</mgrwt>
</event>
<event>
 6    1  0.1585031E-006  0.4086763E+04  0.7818608E-02  0.7987269E-01
         -1   -1    0    0    0  501 -0.00000000000E+00  0.00000000000E+00  0.24862972239E+04  0.24862972239E+04  0.00000000000E+00 0.  1.
          1   -1    0    0  501    0  0.00000000000E+00 -0.00000000000E+00 -0.16793681864E+04  0.16793681864E+04  0.00000000000E+00 0. -1.
         23    2    1    2    0    0 -0.17273433131E+04 -0.11205071268E+03  0.15087387409E+04  0.22978305291E+04  0.86384424412E+02 0.  0.
         11    1    3    3    0    0 -0.13790772606E+04 -0.83121187534E+02  0.12483043961E+04  0.18619954586E+04  0.00000000000E+00 0. -1.
        -11    1    3    3    0    0 -0.34826605257E+03 -0.28929525142E+02  0.26043434479E+03  0.43583507058E+03  0.00000000000E+00 0.  1.
         22    1    1    2    0    0  0.17273433131E+04  0.11205071268E+03 -0.70180970340E+03  0.18678348812E+04  0.00000000000E+00 0. -1.
<mgrwt>
<rscale>  0 0.40867632E+04</rscale>
<asrwt>0</asrwt>
<pdfrwt beam="1">  1        1 0.25836434E+00 0.40867632E+04</pdfrwt>
<pdfrwt beam="2">  1       -1 0.38250726E+00 0.40867632E+04</pdfrwt>
<totfact> 0.35979598E-02</totfact>
</mgrwt>
</event>
<event>
 6    1  0.1585031E-006  0.8844856E+03  0.7818608E-02  0.9445186E-01
          2   -1    0    0  501    0  0.00000000000E+00  0.00000000000E+00  0.13256389483E+04  0.13256389483E+04  0.00000000000E+00 0. -1.
         -2   -1    0    0    0  501 -0.00000000000E+00 -0.00000000000E+00 -0.14753542567E+03  0.14753542567E+03  0.00000000000E+00 0.  1.
         23    2    1    2    0    0  0.19889871817E+03  0.15257713561E+03  0.11925991979E+04  0.12220755747E+04  0.91298307802E+02 0.  0.
         11    1    3    3    0    0  0.66282440982E+02  0.24058997926E+01  0.28129838717E+03  0.28901199449E+03  0.00000000000E+00 0.  1.
        -11    1    3    3    0    0  0.13261627719E+03  0.15017123582E+03  0.91130081074E+03  0.93306358020E+03  0.00000000000E+00 0. -1.
         22    1    1    2    0    0 -0.19889871817E+03 -0.15257713561E+03 -0.14495675266E+02  0.25109879928E+03  0.00000000000E+00 0.  1.
<mgrwt>
<rscale>  0 0.88448563E+03</rscale>
<asrwt>0</asrwt>
<pdfrwt beam="1">  1        2 0.20394445E+00 0.88448563E+03</pdfrwt>
<pdfrwt beam="2">  1       -2 0.22697759E-01 0.88448563E+03</pdfrwt>
<totfact> 0.27332418E+02</totfact>
</mgrwt>
</event>
<event>
 6    1  0.1585031E-006  0.4219448E+04  0.7818608E-02  0.7961683E-01
          2   -1    0    0  501    0  0.00000000000E+00  0.00000000000E+00  0.40328895460E+04  0.40328895460E+04  0.00000000000E+00 0.  1.
         -2   -1    0    0    0  501 -0.00000000000E+00 -0.00000000000E+00 -0.11036589179E+04  0.11036589179E+04  0.00000000000E+00 0. -1.
         23    2    1    2    0    0 -0.58781502214E+02  0.15865398090E+04  0.31547231679E+04  0.35329865799E+04  0.95666488899E+02 0.  0.
         13    1    3    3    0    0 -0.40224267199E+02  0.72104925771E+03  0.15367458925E+04  0.16979746647E+04  0.00000000000E+00 0. -1.
        -13    1    3    3    0    0 -0.18557235015E+02  0.86549055129E+03  0.16179772754E+04  0.18350119152E+04  0.00000000000E+00 0.  1.
         22    1    1    2    0    0  0.58781502214E+02 -0.15865398090E+04 -0.22549253974E+03  0.16035618841E+04  0.00000000000E+00 0. -1.
<mgrwt>
<rscale>  0 0.42194476E+04</rscale>
<asrwt>0</asrwt>
<pdfrwt beam="1">  1        2 0.62044454E+00 0.42194476E+04</pdfrwt>
<pdfrwt beam="2">  1       -2 0.16979368E+00 0.42194476E+04</pdfrwt>
<totfact> 0.53094315E-02</totfact>
</mgrwt>
</event>
<event>
 6    1  0.1585031E-006  0.2605730E+04  0.7818608E-02  0.8366257E-01
          1   -1    0    0  501    0  0.00000000000E+00  0.00000000000E+00  0.15065450339E+04  0.15065450339E+04  0.00000000000E+00 0. -1.
         -1   -1    0    0    0  501 -0.00000000000E+00 -0.00000000000E+00 -0.11267222651E+04  0.11267222651E+04  0.00000000000E+00 0.  1.
         23    2    1    2    0    0 -0.59742834500E+03 -0.10897664604E+04  0.58027426864E+03  0.13744216494E+04  0.88346351773E+02 0.  0.
         13    1    3    3    0    0 -0.15452731176E+03 -0.26985439690E+03  0.10413642724E+03  0.32793975222E+03  0.00000000000E+00 0.  1.
        -13    1    3    3    0    0 -0.44290103324E+03 -0.81991206352E+03  0.47613784140E+03  0.10464818972E+04  0.00000000000E+00 0. -1.
         22    1    1    2    0    0  0.59742834500E+03  0.10897664604E+04 -0.20045149981E+03  0.12588456496E+04  0.00000000000E+00 0.  1.
<mgrwt>
<rscale>  0 0.26057305E+04</rscale>
<asrwt>0</asrwt>
<pdfrwt beam="1">  1        1 0.23177616E+00 0.26057305E+04</pdfrwt>
<pdfrwt beam="2">  1       -1 0.17334189E+00 0.26057305E+04</pdfrwt>
<totfact> 0.13254694E+00</totfact>
</mgrwt>
</event>
<event>
 6    1  0.1585031E-006  0.6646837E+03  0.7818608E-02  0.9779610E-01
         -2   -1    0    0    0  501 -0.00000000000E+00  0.00000000000E+00  0.28854131713E+03  0.28854131713E+03  0.00000000000E+00 0.  1.
          2   -1    0    0  501    0  0.00000000000E+00 -0.00000000000E+00 -0.38279129305E+03  0.38279129305E+03  0.00000000000E+00 0. -1.
         23    2    1    2    0    0  0.24813311328E+03  0.16018429498E+03  0.86793648839E+02  0.32491401321E+03  0.10395637660E+03 0.  0.
         11    1    3    3    0    0  0.14906729285E+03  0.34395959755E+02  0.43575486618E+02  0.15906905066E+03  0.00000000000E+00 0. -1.
        -11    1    3    3    0    0  0.99065820435E+02  0.12578833523E+03  0.43218162220E+02  0.16584496255E+03  0.00000000000E+00 0.  1.
         22    1    1    2    0    0 -0.24813311328E+03 -0.16018429498E+03 -0.18104362476E+03  0.34641859698E+03  0.00000000000E+00 0. -1.
<mgrwt>
<rscale>  0 0.66468370E+03</rscale>
<asrwt>0</asrwt>
<pdfrwt beam="1">  1        2 0.58890968E-01 0.66468370E+03</pdfrwt>
<pdfrwt beam="2">  1       -2 0.44390972E-01 0.66468370E+03</pdfrwt>
<totfact> 0.40568995E+02</totfact>
</mgrwt>
</event>
<event>
 6    1  0.1585031E-006  0.6855597E+03  0.7818608E-02  0.9742251E-01
         -1   -1    0    0    0  501 -0.00000000000E+00  0.00000000000E+00  0.14563184144E+03  0.14563184144E+03  0.00000000000E+00 0.  1.
          1   -1    0    0  501    0  0.00000000000E+00 -0.00000000000E+00 -0.80681551633E+03  0.80681551633E+03  0.00000000000E+00 0. -1.
         23    2    1    2    0    0  0.24993387443E+02  0.32089437750E+03 -0.20304798696E+03  0.39254899246E+03  0.96272298981E+02 0.  0.
         11    1    3    3    0    0  0.33085317069E+02  0.19763707464E+03 -0.17462437712E+03  0.26579827795E+03  0.00000000000E+00 0.  1.
        -11    1    3    3    0    0 -0.80919296269E+01  0.12325730286E+03 -0.28423609839E+02  0.12675071451E+03  0.00000000000E+00 0. -1.
         22    1    1    2    0    0 -0.24993387443E+02 -0.32089437750E+03 -0.45813568793E+03  0.55989836531E+03  0.00000000000E+00 0.  1.
<mgrwt>
<rscale>  0 0.68555971E+03</rscale>
<asrwt>0</asrwt>
<pdfrwt beam="1">  1        1 0.12412547E+00 0.68555971E+03</pdfrwt>
<pdfrwt beam="2">  1       -1 0.22404898E-01 0.68555971E+03</pdfrwt>
<totfact> 0.37247018E+02</totfact>
</mgrwt>
</event>
<event>
 6    1  0.1585031E-006  0.2118667E+04  0.7818608E-02  0.8553065E-01
         -1   -1    0    0    0  501 -0.00000000000E+00  0.00000000000E+00  0.64993027525E+03  0.64993027525E+03  0.00000000000E+00 0.  1.
          1   -1    0    0  501    0  0.00000000000E+00 -0.00000000000E+00 -0.17266281349E+04  0.17266281349E+04  0.00000000000E+00 0. -1.
         23    2    1    2    0    0  0.57317119815E+03 -0.80556153847E+03 -0.95961537119E+03  0.13809867534E+04  0.93851680007E+02 0.  0.
         11    1    3    3    0    0  0.24702044764E+03 -0.31845081155E+03 -0.45145156187E+03  0.60517644835E+03  0.00000000000E+00 0. -1.
        -11    1    3    3    0    0  0.32615075051E+03 -0.48711072692E+03 -0.50816380932E+03  0.77581030507E+03  0.00000000000E+00 0.  1.
         22    1    1    2    0    0 -0.57317119815E+03  0.80556153847E+03 -0.11708248849E+03  0.99557165677E+03  0.00000000000E+00 0.  1.
<mgrwt>
<rscale>  0 0.21186674E+04</rscale>
<asrwt>0</asrwt>
<pdfrwt beam="1">  1        1 0.26563510E+00 0.21186674E+04</pdfrwt>
<pdfrwt beam="2">  1       -1 0.99989273E-01 0.21186674E+04</pdfrwt>
<totfact> 0.40006344E+00</totfact>
</mgrwt>
</event>
<event>
 6    1  0.1585031E-006  0.3208968E+04  0.7818608E-02  0.8186453E-01
          1   -1    0    0  501    0  0.00000000000E+00  0.00000000000E+00  0.89362737446E+03  0.89362737446E+03  0.00000000000E+00 0. -1.
         -1   -1    0    0    0  501 -0.00000000000E+00 -0.00000000000E+00 -0.28808076558E+04  0.28808076558E+04  0.00000000000E+00 0.  1.
         23    2    1    2    0    0 -0.10559634165E+04  0.69126948814E+03 -0.21572155424E+04  0.25009263996E+04  0.90231467332E+02 0.  0.
         13    1    3    3    0    0 -0.75402196299E+03  0.46875664037E+03 -0.14444958100E+04  0.16955382784E+04  0.00000000000E+00 0. -1.
        -13    1    3    3    0    0 -0.30194145353E+03  0.22251284777E+03 -0.71271973241E+03  0.80538812119E+03  0.00000000000E+00 0.  1.
         22    1    1    2    0    0  0.10559634165E+04 -0.69126948814E+03  0.17003526107E+03  0.12735086306E+04  0.00000000000E+00 0. -1.
<mgrwt>
<rscale>  0 0.32089678E+04</rscale>
<asrwt>0</asrwt>
<pdfrwt beam="1">  1        1 0.13748113E+00 0.32089678E+04</pdfrwt>
<pdfrwt beam="2">  1       -1 0.44320118E+00 0.32089678E+04</pdfrwt>
<totfact> 0.55447228E-02</totfact>
</mgrwt>
</event>
<event>
 6    1  0.1585031E-006  0.3410405E+04  0.7818608E-02  0.8135357E-01
         -1   -1    0    0    0  501 -0.00000000000E+00  0.00000000000E+00  0.10139814851E+04  0.10139814851E+04  0.00000000000E+00 0.  1.
          1   -1    0    0  501    0  0.00000000000E+00 -0.00000000000E+00 -0.28676224600E+04  0.28676224600E+04  0.00000000000E+00 0. -1.
         23    2    1    2    0    0  0.69974431265E+03 -0.44901726125E+03  0.76537588306E+03  0.11337851909E+04  0.91706121341E+02 0.  0.
         11    1    3    3    0    0  0.34763228069E+03 -0.27013985693E+03  0.37227032743E+03  0.57654916665E+03  0.00000000000E+00 0. -1.
        -11    1    3    3    0    0  0.35211203196E+03 -0.17887740432E+03  0.39310555563E+03  0.55723602422E+03  0.00000000000E+00 0.  1.
         22    1    1    2    0    0 -0.69974431265E+03  0.44901726125E+03 -0.26190168579E+04  0.27478187542E+04  0.00000000000E+00 0. -1.
<mgrwt>
<rscale>  0 0.34104053E+04</rscale>
<asrwt>0</asrwt>
<pdfrwt beam="1">  1        1 0.44117268E+00 0.34104053E+04</pdfrwt>
<pdfrwt beam="2">  1       -1 0.15599715E+00 0.34104053E+04</pdfrwt>
<totfact> 0.19200147E-01</totfact>
</mgrwt>
</event>
<event>
 6    1  0.1585031E-006  0.1788009E+04  0.7818608E-02  0.8712702E-01
          2   -1    0    0  501    0  0.00000000000E+00  0.00000000000E+00  0.51794633259E+03  0.51794633259E+03  0.00000000000E+00 0. -1.
         -2   -1    0    0    0  501 -0.00000000000E+00 -0.00000000000E+00 -0.15431024331E+04  0.15431024331E+04  0.00000000000E+00 0.  1.
         23    2    1    2    0    0  0.63361929031E+03  0.48717092408E+03 -0.58082279736E+02  0.80644098270E+03  0.90358137655E+02 0.  0.
         13    1    3    3    0    0  0.45250774620E+03  0.36701301549E+03 -0.79542085400E+02  0.58803805767E+03  0.00000000000E+00 0.  1.
        -13    1    3    3    0    0  0.18111154410E+03  0.12015790859E+03  0.21459805664E+02  0.21840292503E+03  0.00000000000E+00 0. -1.
         22    1    1    2    0    0 -0.63361929031E+03 -0.48717092408E+03 -0.96707382078E+03  0.12546077830E+04  0.00000000000E+00 0. -1.
<mgrwt>
<rscale>  0 0.17880092E+04</rscale>
<asrwt>0</asrwt>
<pdfrwt beam="1">  1        2 0.79684050E-01 0.17880092E+04</pdfrwt>
<pdfrwt beam="2">  1       -2 0.23740038E+00 0.17880092E+04</pdfrwt>
<totfact> 0.42913646E+00</totfact>
</mgrwt>
</event>
<event>
 6    1  0.1585031E-006  0.3589379E+04  0.7818608E-02  0.8092929E-01
          2   -1    0    0  501    0  0.00000000000E+00  0.00000000000E+00  0.29477736398E+04  0.29477736398E+04  0.00000000000E+00 0. -1.
         -2   -1    0    0    0  501 -0.00000000000E+00 -0.00000000000E+00 -0.10926587492E+04  0.10926587492E+04  0.00000000000E+00 0.  1.
         23    2    1    2    0    0  0.18790385760E+03  0.16185911624E+04  0.17716886782E+04  0.24088365003E+04  0.92017944414E+02 0.  0.
         11    1    3    3    0    0  0.15149198378E+03  0.96923548240E+03  0.10992407195E+04  0.14733286806E+04  0.00000000000E+00 0.  1.
        -11    1    3    3    0    0  0.36411873828E+02  0.64935568002E+03  0.67244795868E+03  0.93550781977E+03  0.00000000000E+00 0. -1.
         22    1    1    2    0    0 -0.18790385760E+03 -0.16185911624E+04  0.83426212385E+02  0.16315958886E+04  0.00000000000E+00 0.  1.
<mgrwt>
<rscale>  0 0.35893791E+04</rscale>
<asrwt>0</asrwt>
<pdfrwt beam="1">  1        2 0.45350363E+00 0.35893791E+04</pdfrwt>
<pdfrwt beam="2">  1       -2 0.16810135E+00 0.35893791E+04</pdfrwt>
<totfact> 0.33646813E-01</totfact>
</mgrwt>
</event>
<event>
 6    1  0.1585031E-006  0.1703835E+04  0.7818608E-02  0.8759180E-01
         -2   -1    0    0    0  501 -0.00000000000E+00  0.00000000000E+00  0.64988813817E+03  0.64988813817E+03  0.00000000000E+00 0.  1.
          2   -1    0    0  501    0  0.00000000000E+00 -0.00000000000E+00 -0.11167517601E+04  0.11167517601E+04  0.00000000000E+00 0. -1.
         23    2    1    2    0    0 -0.20503102664E+03  0.71336794661E+03 -0.66287924286E+03  0.99894616192E+03  0.86907966648E+02 0.  0.
         11    1    3    3    0    0 -0.94341795004E+02  0.20121722118E+03 -0.22267486307E+03  0.31459948987E+03  0.00000000000E+00 0. -1.
        -11    1    3    3    0    0 -0.11068923163E+03  0.51215072543E+03 -0.44020437979E+03  0.68434667205E+03  0.00000000000E+00 0.  1.
         22    1    1    2    0    0  0.20503102664E+03 -0.71336794661E+03  0.19601562096E+03  0.76769373633E+03  0.00000000000E+00 0. -1.
<mgrwt>
<rscale>  0 0.17038353E+04</rscale>
<asrwt>0</asrwt>
<pdfrwt beam="1">  1        2 0.17180796E+00 0.17038353E+04</pdfrwt>
<pdfrwt beam="2">  1       -2 0.99982793E-01 0.17038353E+04</pdfrwt>
<totfact> 0.16726528E+01</totfact>
</mgrwt>
</event>
<event>
 6    1  0.1585031E-006  0.2875765E+04  0.7818608E-02  0.8280125E-01
          2   -1    0    0  501    0  0.00000000000E+00  0.00000000000E+00  0.14882014632E+04  0.14882014632E+04  0.00000000000E+00 0. -1.
         -2   -1    0    0    0  501 -0.00000000000E+00 -0.00000000000E+00 -0.13892646796E+04  0.13892646796E+04  0.00000000000E+00 0.  1.
         23    2    1    2    0    0  0.11947086680E+04  0.26301020340E+03 -0.70378512822E+03  0.14142964205E+04  0.91747968290E+02 0.  0.
         13    1    3    3    0    0  0.60618241538E+03  0.11275168698E+03 -0.40199315731E+03  0.73604929329E+03  0.00000000000E+00 0.  1.
        -13    1    3    3    0    0  0.58852625265E+03  0.15025851641E+03 -0.30179197091E+03  0.67824712717E+03  0.00000000000E+00 0. -1.
         22    1    1    2    0    0 -0.11947086680E+04 -0.26301020340E+03  0.80272191187E+03  0.14631697223E+04  0.00000000000E+00 0. -1.
<mgrwt>
<rscale>  0 0.28757648E+04</rscale>
<asrwt>0</asrwt>
<pdfrwt beam="1">  1        2 0.22895407E+00 0.28757648E+04</pdfrwt>
<pdfrwt beam="2">  1       -2 0.21373303E+00 0.28757648E+04</pdfrwt>
<totfact> 0.12079645E+00</totfact>
</mgrwt>
</event>
<event>
 6    1  0.1585031E-006  0.2331059E+04  0.7818608E-02  0.8465775E-01
          1   -1    0    0  501    0  0.00000000000E+00  0.00000000000E+00  0.24056227583E+04  0.24056227583E+04  0.00000000000E+00 0. -1.
         -1   -1    0    0    0  501 -0.00000000000E+00 -0.00000000000E+00 -0.56470155323E+03  0.56470155323E+03  0.00000000000E+00 0.  1.
         23    2    1    2    0    0  0.59816199821E+03  0.99369999281E+03  0.10442844090E+04  0.15632466176E+04  0.89289466199E+02 0.  0.
         13    1    3    3    0    0  0.13927579170E+03  0.23767806759E+03  0.19869796182E+03  0.33966084555E+03  0.00000000000E+00 0. -1.
        -13    1    3    3    0    0  0.45888620651E+03  0.75602192522E+03  0.84558644713E+03  0.12235857720E+04  0.00000000000E+00 0.  1.
         22    1    1    2    0    0 -0.59816199821E+03 -0.99369999281E+03  0.79663679607E+03  0.14070776939E+04  0.00000000000E+00 0.  1.
<mgrwt>
<rscale>  0 0.23310589E+04</rscale>
<asrwt>0</asrwt>
<pdfrwt beam="1">  1        1 0.37009580E+00 0.23310589E+04</pdfrwt>
<pdfrwt beam="2">  1       -1 0.86877163E-01 0.23310589E+04</pdfrwt>
<totfact> 0.18526429E+00</totfact>
</mgrwt>
</event>
<event>
 6    1  0.1585031E-006  0.2286604E+04  0.7818608E-02  0.8483222E-01
          1   -1    0    0  501    0  0.00000000000E+00  0.00000000000E+00  0.18201982381E+04  0.18201982381E+04  0.00000000000E+00 0. -1.
         -1   -1    0    0    0  501 -0.00000000000E+00 -0.00000000000E+00 -0.71813052779E+03  0.71813052779E+03  0.00000000000E+00 0.  1.
         23    2    1    2    0    0 -0.76567528100E+03 -0.53025881658E+03  0.12845236123E+04  0.15892643820E+04  0.91254134394E+02 0.  0.
         13    1    3    3    0    0 -0.45709427128E+03 -0.32607668240E+03  0.84773124479E+03  0.10168133747E+04  0.00000000000E+00 0. -1.
        -13    1    3    3    0    0 -0.30858100972E+03 -0.20418213418E+03  0.43679236749E+03  0.57245100731E+03  0.00000000000E+00 0.  1.
         22    1    1    2    0    0  0.76567528100E+03  0.53025881658E+03 -0.18245590197E+03  0.94906438383E+03  0.00000000000E+00 0.  1.
<mgrwt>
<rscale>  0 0.22866044E+04</rscale>
<asrwt>0</asrwt>
<pdfrwt beam="1">  1        1 0.28003050E+00 0.22866044E+04</pdfrwt>
<pdfrwt beam="2">  1       -1 0.11048162E+00 0.22866044E+04</pdfrwt>
<totfact> 0.26976134E+00</totfact>
</mgrwt>
</event>
<event>
 6    1  0.1585031E-006  0.5530129E+04  0.7818608E-02  0.7751557E-01
         -1   -1    0    0    0  501 -0.00000000000E+00  0.00000000000E+00  0.28875885317E+04  0.28875885317E+04  0.00000000000E+00 0.  1.
          1   -1    0    0  501    0  0.00000000000E+00 -0.00000000000E+00 -0.26477396139E+04  0.26477396139E+04  0.00000000000E+00 0. -1.
         23    2    1    2    0    0  0.14972406091E+04  0.50105998282E+03 -0.21512234415E+04  0.26700153223E+04  0.91809468047E+02 0.  0.
         13    1    3    3    0    0  0.86567003714E+03  0.25603178111E+03 -0.12832851092E+04  0.15689989030E+04  0.00000000000E+00 0. -1.
        -13    1    3    3    0    0  0.63157057197E+03  0.24502820171E+03 -0.86793833232E+03  0.11010164194E+04  0.00000000000E+00 0.  1.
         22    1    1    2    0    0 -0.14972406091E+04 -0.50105998282E+03  0.23910723593E+04  0.28653128233E+04  0.00000000000E+00 0.  1.
<mgrwt>
<rscale>  0 0.55301293E+04</rscale>
<asrwt>0</asrwt>
<pdfrwt beam="1">  1        1 0.40734456E+00 0.55301293E+04</pdfrwt>
<pdfrwt beam="2">  1       -1 0.44424439E+00 0.55301293E+04</pdfrwt>
<totfact> 0.26307927E-03</totfact>
</mgrwt>
</event>
<event>
 6    1  0.1585031E-006  0.1556555E+04  0.7818608E-02  0.8847692E-01
         -1   -1    0    0    0  501 -0.00000000000E+00  0.00000000000E+00  0.74678264277E+03  0.74678264277E+03  0.00000000000E+00 0.  1.
          1   -1    0    0  501    0  0.00000000000E+00 -0.00000000000E+00 -0.81110066782E+03  0.81110066782E+03  0.00000000000E+00 0. -1.
         23    2    1    2    0    0 -0.67598689881E+03  0.36923929280E+03  0.58452289830E+02  0.77790350769E+03  0.91767392818E+02 0.  0.
         11    1    3    3    0    0 -0.63756776490E+03  0.36316268473E+03  0.39950049583E+02  0.73483045451E+03  0.00000000000E+00 0. -1.
        -11    1    3    3    0    0 -0.38419133907E+02  0.60766080714E+01  0.18502240247E+02  0.43073053177E+02  0.00000000000E+00 0.  1.
         22    1    1    2    0    0  0.67598689881E+03 -0.36923929280E+03 -0.12277031488E+03  0.77997980289E+03  0.00000000000E+00 0.  1.
<mgrwt>
<rscale>  0 0.15565550E+04</rscale>
<asrwt>0</asrwt>
<pdfrwt beam="1">  1        1 0.12478472E+00 0.15565550E+04</pdfrwt>
<pdfrwt beam="2">  1       -1 0.11488964E+00 0.15565550E+04</pdfrwt>
<totfact> 0.14329455E+01</totfact>
</mgrwt>
</event>
<event>
 6    1  0.1585031E-006  0.1750487E+04  0.7818608E-02  0.8733083E-01
          2   -1    0    0  501    0  0.00000000000E+00  0.00000000000E+00  0.15665692093E+04  0.15665692093E+04  0.00000000000E+00 0. -1.
         -2   -1    0    0    0  501 -0.00000000000E+00 -0.00000000000E+00 -0.48899899934E+03  0.48899899934E+03  0.00000000000E+00 0.  1.
         23    2    1    2    0    0  0.80566139625E+02 -0.20820691281E+03  0.15311605455E+04  0.15500138457E+04  0.90825570223E+02 0.  0.
         13    1    3    3    0    0  0.57813444487E+02 -0.11439572887E+03  0.11371456839E+04  0.11443465749E+04  0.00000000000E+00 0. -1.
        -13    1    3    3    0    0  0.22752695137E+02 -0.93811183935E+02  0.39401486161E+03  0.40566727073E+03  0.00000000000E+00 0.  1.
         22    1    1    2    0    0 -0.80566139625E+02  0.20820691281E+03 -0.45359033556E+03  0.50555436296E+03  0.00000000000E+00 0.  1.
<mgrwt>
<rscale>  0 0.17504865E+04</rscale>
<asrwt>0</asrwt>
<pdfrwt beam="1">  1        2 0.24101065E+00 0.17504865E+04</pdfrwt>
<pdfrwt beam="2">  1       -2 0.75230616E-01 0.17504865E+04</pdfrwt>
<totfact> 0.17501300E+01</totfact>
</mgrwt>
</event>
<event>
 6    1  0.1585031E-006  0.5201535E+04  0.7818608E-02  0.7798149E-01
          1   -1    0    0  501    0  0.00000000000E+00  0.00000000000E+00  0.23677188253E+04  0.23677188253E+04  0.00000000000E+00 0. -1.
         -1   -1    0    0    0  501 -0.00000000000E+00 -0.00000000000E+00 -0.28567548769E+04  0.28567548769E+04  0.00000000000E+00 0.  1.
         23    2    1    2    0    0 -0.11498053203E+04 -0.18919567489E+04  0.11246033662E+04  0.24848779683E+04  0.91286209821E+02 0.  0.
         13    1    3    3    0    0 -0.71200132664E+03 -0.11612385203E+04  0.64224662766E+03  0.15059553516E+04  0.00000000000E+00 0.  1.
        -13    1    3    3    0    0 -0.43780399368E+03 -0.73071822858E+03  0.48235673850E+03  0.97892261677E+03  0.00000000000E+00 0. -1.
         22    1    1    2    0    0  0.11498053203E+04  0.18919567489E+04 -0.16136394178E+04  0.27395957338E+04  0.00000000000E+00 0.  1.
<mgrwt>
<rscale>  0 0.52015353E+04</rscale>
<asrwt>0</asrwt>
<pdfrwt beam="1">  1        1 0.36426444E+00 0.52015353E+04</pdfrwt>
<pdfrwt beam="2">  1       -1 0.43950075E+00 0.52015353E+04</pdfrwt>
<totfact> 0.45526871E-03</totfact>
</mgrwt>
</event>
<event>
 6    1  0.1585031E-006  0.2109038E+04  0.7818608E-02  0.8557273E-01
         -2   -1    0    0    0  501 -0.00000000000E+00  0.00000000000E+00  0.38393705248E+03  0.38393705248E+03  0.00000000000E+00 0. -1.
          2   -1    0    0  501    0  0.00000000000E+00 -0.00000000000E+00 -0.28963345486E+04  0.28963345486E+04  0.00000000000E+00 0.  1.
         23    2    1    2    0    0 -0.44167289427E+03  0.32881059812E+03 -0.26536106833E+04  0.27118241372E+04  0.95651123913E+02 0.  0.
         13    1    3    3    0    0 -0.30747909063E+03  0.17334657112E+03 -0.16201063390E+04  0.16581124734E+04  0.00000000000E+00 0.  1.
        -13    1    3    3    0    0 -0.13419380364E+03  0.15546402700E+03 -0.10335043443E+04  0.10537116637E+04  0.00000000000E+00 0. -1.
         22    1    1    2    0    0  0.44167289427E+03 -0.32881059812E+03  0.14121318719E+03  0.56844746389E+03  0.00000000000E+00 0. -1.
<mgrwt>
<rscale>  0 0.21090378E+04</rscale>
<asrwt>0</asrwt>
<pdfrwt beam="1">  1        2 0.44558992E+00 0.21090378E+04</pdfrwt>
<pdfrwt beam="2">  1       -2 0.59067240E-01 0.21090378E+04</pdfrwt>
<totfact> 0.49854521E+00</totfact>
</mgrwt>
</event>
<event>
 6    1  0.1585031E-006  0.1095824E+04  0.7818608E-02  0.9209272E-01
          2   -1    0    0  501    0  0.00000000000E+00  0.00000000000E+00  0.10527673264E+04  0.10527673264E+04  0.00000000000E+00 0. -1.
         -2   -1    0    0    0  501 -0.00000000000E+00 -0.00000000000E+00 -0.28516014975E+03  0.28516014975E+03  0.00000000000E+00 0.  1.
         23    2    1    2    0    0  0.36802971390E+03  0.22354310216E+03 -0.21418796864E+02  0.43905074616E+03  0.83002433772E+02 0.  0.
         13    1    3    3    0    0  0.26242534877E+03  0.12639912567E+03  0.12715742188E+02  0.29155701457E+03  0.00000000000E+00 0. -1.
        -13    1    3    3    0    0  0.10560436513E+03  0.97143976487E+02 -0.34134539052E+02  0.14749373159E+03  0.00000000000E+00 0.  1.
         22    1    1    2    0    0 -0.36802971390E+03 -0.22354310216E+03  0.78902597354E+03  0.89887673001E+03  0.00000000000E+00 0. -1.
<mgrwt>
<rscale>  0 0.10958235E+04</rscale>
<asrwt>0</asrwt>
<pdfrwt beam="1">  1        2 0.16196420E+00 0.10958235E+04</pdfrwt>
<pdfrwt beam="2">  1       -2 0.43870793E-01 0.10958235E+04</pdfrwt>
<totfact> 0.11402005E+02</totfact>
</mgrwt>
</event>
<event>
 6    1  0.1585031E-006  0.1671666E+04  0.7818608E-02  0.8777691E-01
         -2   -1    0    0    0  501 -0.00000000000E+00  0.00000000000E+00  0.27816833214E+03  0.27816833214E+03  0.00000000000E+00 0.  1.
          2   -1    0    0  501    0  0.00000000000E+00 -0.00000000000E+00 -0.25114885448E+04  0.25114885448E+04  0.00000000000E+00 0. -1.
         23    2    1    2    0    0 -0.20495751432E+02 -0.62709995963E+03 -0.20350538032E+04  0.21316416763E+04  0.93690014831E+02 0.  0.
         13    1    3    3    0    0  0.33900415065E+01 -0.46720189380E+03 -0.13805635259E+04  0.14574789024E+04  0.00000000000E+00 0.  1.
        -13    1    3    3    0    0 -0.23885792939E+02 -0.15989806583E+03 -0.65449027729E+03  0.67416277383E+03  0.00000000000E+00 0. -1.
         22    1    1    2    0    0  0.20495751432E+02  0.62709995963E+03 -0.19826640945E+03  0.65801520067E+03  0.00000000000E+00 0.  1.
<mgrwt>
<rscale>  0 0.16716657E+04</rscale>
<asrwt>0</asrwt>
<pdfrwt beam="1">  1        2 0.38638287E+00 0.16716657E+04</pdfrwt>
<pdfrwt beam="2">  1       -2 0.42795126E-01 0.16716657E+04</pdfrwt>
<totfact> 0.16954090E+01</totfact>
</mgrwt>
</event>
<event>
 6    1  0.1585031E-006  0.1488929E+04  0.7818608E-02  0.8891848E-01
         -2   -1    0    0    0  501 -0.00000000000E+00  0.00000000000E+00  0.26280678867E+03  0.26280678867E+03  0.00000000000E+00 0.  1.
          2   -1    0    0  501    0  0.00000000000E+00 -0.00000000000E+00 -0.21088791384E+04  0.21088791384E+04  0.00000000000E+00 0. -1.
         23    2    1    2    0    0 -0.71768271291E+02 -0.71956091080E+03 -0.11887941317E+04  0.13944790682E+04  0.91770338460E+02 0.  0.
         11    1    3    3    0    0 -0.43986602372E+02 -0.32566065930E+03 -0.62539679655E+03  0.70647776988E+03  0.00000000000E+00 0.  1.
        -11    1    3    3    0    0 -0.27781668919E+02 -0.39390025150E+03 -0.56339733519E+03  0.68800129837E+03  0.00000000000E+00 0. -1.
         22    1    1    2    0    0  0.71768271291E+02  0.71956091080E+03 -0.65727821803E+03  0.97720685886E+03  0.00000000000E+00 0.  1.
<mgrwt>
<rscale>  0 0.14889295E+04</rscale>
<asrwt>0</asrwt>
<pdfrwt beam="1">  1        2 0.32444294E+00 0.14889295E+04</pdfrwt>
<pdfrwt beam="2">  1       -2 0.40431815E-01 0.14889295E+04</pdfrwt>
<totfact> 0.32554197E+01</totfact>
</mgrwt>
</event>
<event>
 6    1  0.1585031E-006  0.7432924E+03  0.7818608E-02  0.9645933E-01
         -1   -1    0    0    0  501 -0.00000000000E+00  0.00000000000E+00  0.11187329220E+03  0.11187329220E+03  0.00000000000E+00 0.  1.
          1   -1    0    0  501    0  0.00000000000E+00 -0.00000000000E+00 -0.12346191523E+04  0.12346191523E+04  0.00000000000E+00 0. -1.
         23    2    1    2    0    0 -0.31229383846E+03  0.92795027548E+02 -0.26757006238E+03  0.43136185072E+03  0.91328797719E+02 0.  0.
         11    1    3    3    0    0 -0.19996124205E+03  0.95900053324E+02 -0.20857521431E+03  0.30444201184E+03  0.00000000000E+00 0. -1.
        -11    1    3    3    0    0 -0.11233259641E+03 -0.31050257760E+01 -0.58994848077E+02  0.12691983888E+03  0.00000000000E+00 0.  1.
         22    1    1    2    0    0  0.31229383846E+03 -0.92795027548E+02 -0.85517579773E+03  0.91513059380E+03  0.00000000000E+00 0. -1.
<mgrwt>
<rscale>  0 0.74329243E+03</rscale>
<asrwt>0</asrwt>
<pdfrwt beam="1">  1        1 0.18994142E+00 0.74329243E+03</pdfrwt>
<pdfrwt beam="2">  1       -1 0.17211275E-01 0.74329243E+03</pdfrwt>
<totfact> 0.26844042E+02</totfact>
</mgrwt>
</event>
<event>
 6    1  0.1585031E-006  0.9130455E+03  0.7818608E-02  0.9409419E-01
          1   -1    0    0  501    0  0.00000000000E+00  0.00000000000E+00  0.10016649194E+04  0.10016649194E+04  0.00000000000E+00 0. -1.
         -1   -1    0    0    0  501 -0.00000000000E+00 -0.00000000000E+00 -0.20806660676E+03  0.20806660676E+03  0.00000000000E+00 0.  1.
         23    2    1    2    0    0 -0.19824196266E+03 -0.19767480983E+03 -0.69138180517E+02  0.30270922058E+03  0.92073764021E+02 0.  0.
         13    1    3    3    0    0 -0.10955681954E+03 -0.13345566645E+03  0.10161979735E+01  0.17266772795E+03  0.00000000000E+00 0. -1.
        -13    1    3    3    0    0 -0.88685143112E+02 -0.64219143379E+02 -0.70154378490E+02  0.13004149263E+03  0.00000000000E+00 0.  1.
         22    1    1    2    0    0  0.19824196266E+03  0.19767480983E+03  0.86273649321E+03  0.90702230563E+03  0.00000000000E+00 0. -1.
<mgrwt>
<rscale>  0 0.91304550E+03</rscale>
<asrwt>0</asrwt>
<pdfrwt beam="1">  1        1 0.15410229E+00 0.91304550E+03</pdfrwt>
<pdfrwt beam="2">  1       -1 0.32010248E-01 0.91304550E+03</pdfrwt>
<totfact> 0.13805820E+02</totfact>
</mgrwt>
</event>
<event>
 6    1  0.1585031E-006  0.2704612E+04  0.7818608E-02  0.8333510E-01
         -1   -1    0    0    0  501 -0.00000000000E+00  0.00000000000E+00  0.80776211458E+03  0.80776211458E+03  0.00000000000E+00 0.  1.
          1   -1    0    0  501    0  0.00000000000E+00 -0.00000000000E+00 -0.22639480990E+04  0.22639480990E+04  0.00000000000E+00 0. -1.
         23    2    1    2    0    0 -0.97965694420E+03  0.63996442588E+03 -0.14950987190E+04  0.19009000686E+04  0.93907915290E+02 0.  0.
         11    1    3    3    0    0 -0.36735845810E+03  0.21903882708E+03 -0.47979131228E+03  0.64275185557E+03  0.00000000000E+00 0.  1.
        -11    1    3    3    0    0 -0.61229848610E+03  0.42092559881E+03 -0.10153074068E+04  0.12581482131E+04  0.00000000000E+00 0. -1.
         22    1    1    2    0    0  0.97965694420E+03 -0.63996442588E+03  0.38912734564E+02  0.11708101450E+04  0.00000000000E+00 0.  1.
<mgrwt>
<rscale>  0 0.27046120E+04</rscale>
<asrwt>0</asrwt>
<pdfrwt beam="1">  1        1 0.34829971E+00 0.27046120E+04</pdfrwt>
<pdfrwt beam="2">  1       -1 0.12427110E+00 0.27046120E+04</pdfrwt>
<totfact> 0.97607853E-01</totfact>
</mgrwt>
</event>
<event>
 6    1  0.1585031E-006  0.3365826E+04  0.7818608E-02  0.8146345E-01
          1   -1    0    0  501    0  0.00000000000E+00  0.00000000000E+00  0.15649393097E+04  0.15649393097E+04  0.00000000000E+00 0. -1.
         -1   -1    0    0    0  501 -0.00000000000E+00 -0.00000000000E+00 -0.18097798482E+04  0.18097798482E+04  0.00000000000E+00 0.  1.
         23    2    1    2    0    0 -0.37434530059E+02 -0.16015713145E+04  0.38974187113E+03  0.16516037079E+04  0.97283413422E+02 0.  0.
         11    1    3    3    0    0 -0.99123534972E+00 -0.13962177893E+04  0.34736493417E+03  0.14387798634E+04  0.00000000000E+00 0. -1.
        -11    1    3    3    0    0 -0.36443294709E+02 -0.20535352517E+03  0.42376936961E+02  0.21282384457E+03  0.00000000000E+00 0.  1.
         22    1    1    2    0    0  0.37434530059E+02  0.16015713145E+04 -0.63458240962E+03  0.17231154500E+04  0.00000000000E+00 0.  1.
<mgrwt>
<rscale>  0 0.33658257E+04</rscale>
<asrwt>0</asrwt>
<pdfrwt beam="1">  1        1 0.24075990E+00 0.33658257E+04</pdfrwt>
<pdfrwt beam="2">  1       -1 0.27842767E+00 0.33658257E+04</pdfrwt>
<totfact> 0.22174006E-01</totfact>
</mgrwt>
</event>
<event>
 6    1  0.1585031E-006  0.7140987E+03  0.7818608E-02  0.9693421E-01
          2   -1    0    0  501    0  0.00000000000E+00  0.00000000000E+00  0.63965666583E+03  0.63965666583E+03  0.00000000000E+00 0. -1.
         -2   -1    0    0    0  501 -0.00000000000E+00 -0.00000000000E+00 -0.19930103076E+03  0.19930103076E+03  0.00000000000E+00 0.  1.
         23    2    1    2    0    0 -0.16317390491E+03  0.30701574171E+03  0.28236242254E+03  0.45705948488E+03  0.91051887141E+02 0.  0.
         13    1    3    3    0    0 -0.11581386439E+02  0.98711469782E+02  0.55789847543E+02  0.11397626888E+03  0.00000000000E+00 0.  1.
        -13    1    3    3    0    0 -0.15159251847E+03  0.20830427193E+03  0.22657257500E+03  0.34308321600E+03  0.00000000000E+00 0. -1.
         22    1    1    2    0    0  0.16317390491E+03 -0.30701574171E+03  0.15799321253E+03  0.38189821171E+03  0.00000000000E+00 0.  1.
<mgrwt>
<rscale>  0 0.71409868E+03</rscale>
<asrwt>0</asrwt>
<pdfrwt beam="1">  1        2 0.98408717E-01 0.71409868E+03</pdfrwt>
<pdfrwt beam="2">  1       -2 0.30661697E-01 0.71409868E+03</pdfrwt>
<totfact> 0.45420347E+02</totfact>
</mgrwt>
</event>
<event>
 6    1  0.1585031E-006  0.1978256E+04  0.7818608E-02  0.8616855E-01
         -2   -1    0    0    0  501 -0.00000000000E+00  0.00000000000E+00  0.10438873742E+04  0.10438873742E+04  0.00000000000E+00 0.  1.
          2   -1    0    0  501    0  0.00000000000E+00 -0.00000000000E+00 -0.93724076528E+03  0.93724076528E+03  0.00000000000E+00 0. -1.
         23    2    1    2    0    0 -0.45259302646E+03 -0.79232087524E+03 -0.32325263358E+03  0.97245268341E+03  0.92515617087E+02 0.  0.
         11    1    3    3    0    0 -0.14036841428E+03 -0.18385198824E+03 -0.10955470781E+03  0.25594350805E+03  0.00000000000E+00 0.  1.
        -11    1    3    3    0    0 -0.31222461219E+03 -0.60846888700E+03 -0.21369792577E+03  0.71650917536E+03  0.00000000000E+00 0. -1.
         22    1    1    2    0    0  0.45259302646E+03  0.79232087524E+03  0.42989924250E+03  0.10086754561E+04  0.00000000000E+00 0.  1.
<mgrwt>
<rscale>  0 0.19782556E+04</rscale>
<asrwt>0</asrwt>
<pdfrwt beam="1">  1        2 0.14419089E+00 0.19782556E+04</pdfrwt>
<pdfrwt beam="2">  1       -2 0.16059806E+00 0.19782556E+04</pdfrwt>
<totfact> 0.64225624E+00</totfact>
</mgrwt>
</event>
<event>
 6    1  0.1585031E-006  0.1828106E+04  0.7818608E-02  0.8691494E-01
          2   -1    0    0  501    0  0.00000000000E+00  0.00000000000E+00  0.28991628647E+04  0.28991628647E+04  0.00000000000E+00 0. -1.
         -2   -1    0    0    0  501 -0.00000000000E+00 -0.00000000000E+00 -0.28818418762E+03  0.28818418762E+03  0.00000000000E+00 0.  1.
         23    2    1    2    0    0  0.32836242780E+03  0.82175175918E+03  0.92605878788E+03  0.12841778873E+04  0.91815738790E+02 0.  0.
         13    1    3    3    0    0  0.24419002751E+03  0.67476094962E+03  0.70805425883E+03  0.10081031406E+04  0.00000000000E+00 0. -1.
        -13    1    3    3    0    0  0.84172400293E+02  0.14699080955E+03  0.21800452905E+03  0.27607474668E+03  0.00000000000E+00 0.  1.
         22    1    1    2    0    0 -0.32836242780E+03 -0.82175175918E+03  0.16849198892E+04  0.19031691651E+04  0.00000000000E+00 0. -1.
<mgrwt>
<rscale>  0 0.18281060E+04</rscale>
<asrwt>0</asrwt>
<pdfrwt beam="1">  1        2 0.44602504E+00 0.18281060E+04</pdfrwt>
<pdfrwt beam="2">  1       -2 0.44336031E-01 0.18281060E+04</pdfrwt>
<totfact> 0.91681351E+00</totfact>
</mgrwt>
</event>
<event>
 6    1  0.1585031E-006  0.5645676E+04  0.7818608E-02  0.7735956E-01
          2   -1    0    0  501    0  0.00000000000E+00  0.00000000000E+00  0.36697457572E+04  0.36697457572E+04  0.00000000000E+00 0. -1.
         -2   -1    0    0    0  501 -0.00000000000E+00 -0.00000000000E+00 -0.21713801389E+04  0.21713801389E+04  0.00000000000E+00 0.  1.
         23    2    1    2    0    0  0.17921959002E+04 -0.17245729810E+03  0.29977760002E+04  0.34980639769E+04  0.89905364550E+02 0.  0.
         13    1    3    3    0    0  0.94771749480E+03 -0.12832128251E+03  0.15415477925E+04  0.18141125649E+04  0.00000000000E+00 0. -1.
        -13    1    3    3    0    0  0.84447840542E+03 -0.44136015584E+02  0.14562282077E+04  0.16839514120E+04  0.00000000000E+00 0.  1.
         22    1    1    2    0    0 -0.17921959002E+04  0.17245729810E+03 -0.14994103819E+04  0.23430619193E+04  0.00000000000E+00 0.  1.
<mgrwt>
<rscale>  0 0.56456755E+04</rscale>
<asrwt>0</asrwt>
<pdfrwt beam="1">  1        2 0.56457627E+00 0.56456755E+04</pdfrwt>
<pdfrwt beam="2">  1       -2 0.33405848E+00 0.56456755E+04</pdfrwt>
<totfact> 0.83006361E-03</totfact>
</mgrwt>
</event>
<event>
 6    1  0.1585031E-006  0.2205177E+04  0.7818608E-02  0.8516276E-01
         -1   -1    0    0    0  501 -0.00000000000E+00  0.00000000000E+00  0.66693477340E+03  0.66693477340E+03  0.00000000000E+00 0.  1.
          1   -1    0    0  501    0  0.00000000000E+00 -0.00000000000E+00 -0.18228196961E+04  0.18228196961E+04  0.00000000000E+00 0. -1.
         23    2    1    2    0    0 -0.87177314979E+03  0.19298742809E+03  0.14774476796E+03  0.90966493329E+03  0.91810687326E+02 0.  0.
         13    1    3    3    0    0 -0.38029667531E+03  0.45842498681E+02  0.89251297378E+02  0.39331017025E+03  0.00000000000E+00 0.  1.
        -13    1    3    3    0    0 -0.49147647448E+03  0.14714492940E+03  0.58493470578E+02  0.51635476304E+03  0.00000000000E+00 0. -1.
         22    1    1    2    0    0  0.87177314979E+03 -0.19298742809E+03 -0.13036296906E+04  0.15800895362E+04  0.00000000000E+00 0. -1.
<mgrwt>
<rscale>  0 0.22051774E+04</rscale>
<asrwt>0</asrwt>
<pdfrwt beam="1">  1        1 0.28043379E+00 0.22051774E+04</pdfrwt>
<pdfrwt beam="2">  1       -1 0.10260535E+00 0.22051774E+04</pdfrwt>
<totfact> 0.32174732E+00</totfact>
</mgrwt>
</event>
<event>
 6    1  0.1585031E-006  0.2320400E+04  0.7818608E-02  0.8469921E-01
          2   -1    0    0  501    0  0.00000000000E+00  0.00000000000E+00  0.26397281944E+04  0.26397281944E+04  0.00000000000E+00 0. -1.
         -2   -1    0    0    0  501 -0.00000000000E+00 -0.00000000000E+00 -0.50992541119E+03  0.50992541119E+03  0.00000000000E+00 0.  1.
         23    2    1    2    0    0  0.17215914095E+02  0.10404477651E+04  0.37574145339E+03  0.11101538903E+04  0.91826362041E+02 0.  0.
         13    1    3    3    0    0  0.41618607326E+02  0.39296221771E+03  0.11334914217E+03  0.41109541600E+03  0.00000000000E+00 0.  1.
        -13    1    3    3    0    0 -0.24402693231E+02  0.64748554743E+03  0.26239231122E+03  0.69905847435E+03  0.00000000000E+00 0. -1.
         22    1    1    2    0    0 -0.17215914095E+02 -0.10404477651E+04  0.17540613298E+04  0.20394997153E+04  0.00000000000E+00 0. -1.
<mgrwt>
<rscale>  0 0.23204004E+04</rscale>
<asrwt>0</asrwt>
<pdfrwt beam="1">  1        2 0.40611202E+00 0.23204004E+04</pdfrwt>
<pdfrwt beam="2">  1       -2 0.78450065E-01 0.23204004E+04</pdfrwt>
<totfact> 0.37700436E+00</totfact>
</mgrwt>
</event>
<event>
 6    1  0.1585031E-006  0.1673572E+04  0.7818608E-02  0.8776582E-01
         -2   -1    0    0    0  501 -0.00000000000E+00  0.00000000000E+00  0.44075650087E+03  0.44075650087E+03  0.00000000000E+00 0.  1.
          2   -1    0    0  501    0  0.00000000000E+00 -0.00000000000E+00 -0.15886566066E+04  0.15886566066E+04  0.00000000000E+00 0. -1.
         23    2    1    2    0    0  0.34558775222E+03 -0.20049060431E+03 -0.14638117055E+04  0.15200728324E+04  0.90825820699E+02 0.  0.
         13    1    3    3    0    0  0.23739006314E+03 -0.10277471145E+03 -0.81435585019E+03  0.85445429025E+03  0.00000000000E+00 0.  1.
        -13    1    3    3    0    0  0.10819768909E+03 -0.97715892858E+02 -0.64945585534E+03  0.66561854217E+03  0.00000000000E+00 0. -1.
         22    1    1    2    0    0 -0.34558775222E+03  0.20049060431E+03  0.31591159979E+03  0.50934027505E+03  0.00000000000E+00 0.  1.
<mgrwt>
<rscale>  0 0.16735719E+04</rscale>
<asrwt>0</asrwt>
<pdfrwt beam="1">  1        2 0.24440871E+00 0.16735719E+04</pdfrwt>
<pdfrwt beam="2">  1       -2 0.67808693E-01 0.16735719E+04</pdfrwt>
<totfact> 0.21495555E+01</totfact>
</mgrwt>
</event>
<event>
 6    1  0.1585031E-006  0.2951926E+04  0.7818608E-02  0.8257593E-01
         -2   -1    0    0    0  501 -0.00000000000E+00  0.00000000000E+00  0.10851726531E+04  0.10851726531E+04  0.00000000000E+00 0.  1.
          2   -1    0    0  501    0  0.00000000000E+00 -0.00000000000E+00 -0.20074841668E+04  0.20074841668E+04  0.00000000000E+00 0. -1.
         23    2    1    2    0    0  0.64850752587E+02 -0.10370106030E+04 -0.15577623552E+04  0.18747100301E+04  0.91200497748E+02 0.  0.
         11    1    3    3    0    0  0.58091966502E+02 -0.96108450579E+03 -0.14814559143E+04  0.17668530583E+04  0.00000000000E+00 0. -1.
        -11    1    3    3    0    0  0.67587860850E+01 -0.75926097237E+02 -0.76306440952E+02  0.10785697178E+03  0.00000000000E+00 0.  1.
         22    1    1    2    0    0 -0.64850752587E+02  0.10370106030E+04  0.63545084149E+03  0.12179467898E+04  0.00000000000E+00 0.  1.
<mgrwt>
<rscale>  0 0.29519261E+04</rscale>
<asrwt>0</asrwt>
<pdfrwt beam="1">  1        2 0.30884372E+00 0.29519261E+04</pdfrwt>
<pdfrwt beam="2">  1       -2 0.16694964E+00 0.29519261E+04</pdfrwt>
<totfact> 0.12747103E+00</totfact>
</mgrwt>
</event>
<event>
 6    1  0.1585031E-006  0.1692857E+04  0.7818608E-02  0.8765449E-01
          2   -1    0    0  501    0  0.00000000000E+00  0.00000000000E+00  0.18227224636E+04  0.18227224636E+04  0.00000000000E+00 0. -1.
         -2   -1    0    0    0  501 -0.00000000000E+00 -0.00000000000E+00 -0.39306092634E+03  0.39306092634E+03  0.00000000000E+00 0.  1.
         23    2    1    2    0    0 -0.68302908231E+03 -0.24413509767E+03  0.12817103852E+04  0.14754995142E+04  0.90480007883E+02 0.  0.
         13    1    3    3    0    0 -0.61301330703E+03 -0.24539091839E+03  0.11397252085E+04  0.13171847131E+04  0.00000000000E+00 0. -1.
        -13    1    3    3    0    0 -0.70015775286E+02  0.12558207260E+01  0.14198517667E+03  0.15831480117E+03  0.00000000000E+00 0.  1.
         22    1    1    2    0    0  0.68302908231E+03  0.24413509767E+03  0.14795115206E+03  0.74028387568E+03  0.00000000000E+00 0.  1.
<mgrwt>
<rscale>  0 0.16928567E+04</rscale>
<asrwt>0</asrwt>
<pdfrwt beam="1">  1        2 0.28041884E+00 0.16928567E+04</pdfrwt>
<pdfrwt beam="2">  1       -2 0.60470913E-01 0.16928567E+04</pdfrwt>
<totfact> 0.20327034E+01</totfact>
</mgrwt>
</event>
<event>
 6    1  0.1585031E-006  0.2483296E+04  0.7818608E-02  0.8408961E-01
          1   -1    0    0  501    0  0.00000000000E+00  0.00000000000E+00  0.17378463109E+04  0.17378463109E+04  0.00000000000E+00 0. -1.
         -1   -1    0    0    0  501 -0.00000000000E+00 -0.00000000000E+00 -0.88712689411E+03  0.88712689411E+03  0.00000000000E+00 0.  1.
         23    2    1    2    0    0  0.77418814340E+03 -0.15715730060E+03  0.14363377862E+04  0.16416042137E+04  0.87934406949E+02 0.  0.
         13    1    3    3    0    0  0.53360271099E+03 -0.12440269460E+03  0.91514655047E+03  0.10666307198E+04  0.00000000000E+00 0.  1.
        -13    1    3    3    0    0  0.24058543241E+03 -0.32754606001E+02  0.52119123570E+03  0.57497349389E+03  0.00000000000E+00 0. -1.
         22    1    1    2    0    0 -0.77418814340E+03  0.15715730060E+03 -0.58561836939E+03  0.98336899131E+03  0.00000000000E+00 0.  1.
<mgrwt>
<rscale>  0 0.24832964E+04</rscale>
<asrwt>0</asrwt>
<pdfrwt beam="1">  1        1 0.26736097E+00 0.24832964E+04</pdfrwt>
<pdfrwt beam="2">  1       -1 0.13648106E+00 0.24832964E+04</pdfrwt>
<totfact> 0.17894706E+00</totfact>
</mgrwt>
</event>
<event>
 6    1  0.1585031E-006  0.1187232E+04  0.7818608E-02  0.9124106E-01
         -2   -1    0    0    0  501 -0.00000000000E+00  0.00000000000E+00  0.35678745086E+03  0.35678745086E+03  0.00000000000E+00 0.  1.
          2   -1    0    0  501    0  0.00000000000E+00 -0.00000000000E+00 -0.98764735378E+03  0.98764735378E+03  0.00000000000E+00 0. -1.
         23    2    1    2    0    0 -0.49744111925E+02 -0.44045042891E+03  0.12332214047E+03  0.46964247982E+03  0.94258429489E+02 0.  0.
         11    1    3    3    0    0 -0.69315679841E+02 -0.21393706628E+03  0.76268858239E+02  0.23746719887E+03  0.00000000000E+00 0. -1.
        -11    1    3    3    0    0  0.19571567916E+02 -0.22651336262E+03  0.47053282227E+02  0.23217528095E+03  0.00000000000E+00 0.  1.
         22    1    1    2    0    0  0.49744111925E+02  0.44045042891E+03 -0.75418204339E+03  0.87479232482E+03  0.00000000000E+00 0. -1.
<mgrwt>
<rscale>  0 0.11872324E+04</rscale>
<asrwt>0</asrwt>
<pdfrwt beam="1">  1        2 0.15194574E+00 0.11872324E+04</pdfrwt>
<pdfrwt beam="2">  1       -2 0.54890378E-01 0.11872324E+04</pdfrwt>
<totfact> 0.79096338E+01</totfact>
</mgrwt>
</event>
<event>
 6    1  0.1585031E-006  0.2629566E+04  0.7818608E-02  0.8358227E-01
          1   -1    0    0  501    0  0.00000000000E+00  0.00000000000E+00  0.17418494367E+04  0.17418494367E+04  0.00000000000E+00 0. -1.
         -1   -1    0    0    0  501 -0.00000000000E+00 -0.00000000000E+00 -0.99242461237E+03  0.99242461237E+03  0.00000000000E+00 0.  1.
         23    2    1    2    0    0 -0.63251266124E+03  0.10954614658E+04  0.74198294940E+03  0.14692983690E+04  0.90503647722E+02 0.  0.
         13    1    3    3    0    0 -0.49571098129E+03  0.77815824665E+03  0.54273512714E+03  0.10704303116E+04  0.00000000000E+00 0.  1.
        -13    1    3    3    0    0 -0.13680167995E+03  0.31730321915E+03  0.19924782225E+03  0.39886805738E+03  0.00000000000E+00 0. -1.
         22    1    1    2    0    0  0.63251266124E+03 -0.10954614658E+04  0.74418749267E+01  0.12649756801E+04  0.00000000000E+00 0.  1.
<mgrwt>
<rscale>  0 0.26295659E+04</rscale>
<asrwt>0</asrwt>
<pdfrwt beam="1">  1        1 0.26797684E+00 0.26295659E+04</pdfrwt>
<pdfrwt beam="2">  1       -1 0.15268071E+00 0.26295659E+04</pdfrwt>
<totfact> 0.13037218E+00</totfact>
</mgrwt>
</event>
<event>
 6    1  0.1585031E-006  0.2493088E+04  0.7818608E-02  0.8405452E-01
         -2   -1    0    0    0  501 -0.00000000000E+00  0.00000000000E+00  0.73509177761E+03  0.73509177761E+03  0.00000000000E+00 0.  1.
          2   -1    0    0  501    0  0.00000000000E+00 -0.00000000000E+00 -0.21138482606E+04  0.21138482606E+04  0.00000000000E+00 0. -1.
         23    2    1    2    0    0 -0.98991020805E+01 -0.96845302259E+03 -0.15840495040E+04  0.18589175771E+04  0.91446586372E+02 0.  0.
         11    1    3    3    0    0  0.24565043998E+02 -0.27531102462E+03 -0.51190933072E+03  0.58176521427E+03  0.00000000000E+00 0. -1.
        -11    1    3    3    0    0 -0.34464146079E+02 -0.69314199797E+03 -0.10721401732E+04  0.12771523628E+04  0.00000000000E+00 0.  1.
         22    1    1    2    0    0  0.98991020805E+01  0.96845302259E+03  0.20529302093E+03  0.99002246118E+03  0.00000000000E+00 0.  1.
<mgrwt>
<rscale>  0 0.24930884E+04</rscale>
<asrwt>0</asrwt>
<pdfrwt beam="1">  1        2 0.32520742E+00 0.24930884E+04</pdfrwt>
<pdfrwt beam="2">  1       -2 0.11309104E+00 0.24930884E+04</pdfrwt>
<totfact> 0.31635669E+00</totfact>
</mgrwt>
</event>
<event>
 6    1  0.1585031E-006  0.3505673E+04  0.7818608E-02  0.8112447E-01
         -2   -1    0    0    0  501 -0.00000000000E+00  0.00000000000E+00  0.17493052429E+04  0.17493052429E+04  0.00000000000E+00 0.  1.
          2   -1    0    0  501    0  0.00000000000E+00 -0.00000000000E+00 -0.17563746748E+04  0.17563746748E+04  0.00000000000E+00 0. -1.
         23    2    1    2    0    0 -0.12579908295E+04  0.23777955546E+03  0.11918865547E+04  0.17516629559E+04  0.93002729140E+02 0.  0.
         11    1    3    3    0    0 -0.46091729030E+03  0.13269698498E+03  0.45116811077E+03  0.65848758719E+03  0.00000000000E+00 0.  1.
        -11    1    3    3    0    0 -0.79707353923E+03  0.10508257048E+03  0.74071844394E+03  0.10931753687E+04  0.00000000000E+00 0. -1.
         22    1    1    2    0    0  0.12579908295E+04 -0.23777955546E+03 -0.11989559867E+04  0.17540169618E+04  0.00000000000E+00 0. -1.
<mgrwt>
<rscale>  0 0.35056728E+04</rscale>
<asrwt>0</asrwt>
<pdfrwt beam="1">  1        2 0.27021149E+00 0.35056728E+04</pdfrwt>
<pdfrwt beam="2">  1       -2 0.26912388E+00 0.35056728E+04</pdfrwt>
<totfact> 0.36770993E-01</totfact>
</mgrwt>
</event>
<event>
 6    1  0.1585031E-006  0.1165468E+04  0.7818608E-02  0.9143631E-01
         -1   -1    0    0    0  501 -0.00000000000E+00  0.00000000000E+00  0.36896556284E+03  0.36896556284E+03  0.00000000000E+00 0.  1.
          1   -1    0    0  501    0  0.00000000000E+00 -0.00000000000E+00 -0.92035425292E+03  0.92035425292E+03  0.00000000000E+00 0. -1.
         23    2    1    2    0    0  0.12635051969E+03 -0.51436184187E+03 -0.18248146705E+02  0.53780707656E+03  0.91492614693E+02 0.  0.
         11    1    3    3    0    0  0.10262941926E+03 -0.41372181689E+03 -0.51106450909E+02  0.42931388143E+03  0.00000000000E+00 0. -1.
        -11    1    3    3    0    0  0.23721100439E+02 -0.10064002498E+03  0.32858304203E+02  0.10849319513E+03  0.00000000000E+00 0.  1.
         22    1    1    2    0    0 -0.12635051969E+03  0.51436184187E+03 -0.53314054338E+03  0.75151273921E+03  0.00000000000E+00 0. -1.
<mgrwt>
<rscale>  0 0.11654682E+04</rscale>
<asrwt>0</asrwt>
<pdfrwt beam="1">  1        1 0.14159296E+00 0.11654682E+04</pdfrwt>
<pdfrwt beam="2">  1       -1 0.56763933E-01 0.11654682E+04</pdfrwt>
<totfact> 0.54581599E+01</totfact>
</mgrwt>
</event>
<event>
 6    1  0.1585031E-006  0.2080913E+04  0.7818608E-02  0.8569698E-01
          1   -1    0    0  501    0  0.00000000000E+00  0.00000000000E+00  0.34111943590E+04  0.34111943590E+04  0.00000000000E+00 0. -1.
         -1   -1    0    0    0  501 -0.00000000000E+00 -0.00000000000E+00 -0.31735204799E+03  0.31735204799E+03  0.00000000000E+00 0.  1.
         23    2    1    2    0    0  0.22612877557E+03 -0.68081358168E+03  0.20446029372E+03  0.75143878416E+03  0.90635966844E+02 0.  0.
         13    1    3    3    0    0  0.13494050022E+03 -0.43272003779E+03  0.84116850738E+02  0.46101107826E+03  0.00000000000E+00 0.  1.
        -13    1    3    3    0    0  0.91188275351E+02 -0.24809354389E+03  0.12034344298E+03  0.29042770589E+03  0.00000000000E+00 0. -1.
         22    1    1    2    0    0 -0.22612877557E+03  0.68081358168E+03  0.28893820173E+04  0.29771076229E+04  0.00000000000E+00 0. -1.
<mgrwt>
<rscale>  0 0.20809128E+04</rscale>
<asrwt>0</asrwt>
<pdfrwt beam="1">  1        1 0.52479911E+00 0.20809128E+04</pdfrwt>
<pdfrwt beam="2">  1       -1 0.48823394E-01 0.20809128E+04</pdfrwt>
<totfact> 0.11383207E+00</totfact>
</mgrwt>
</event>
<event>
 6    1  0.1585031E-006  0.3053145E+04  0.7818608E-02  0.8228716E-01
         -1   -1    0    0    0  501 -0.00000000000E+00  0.00000000000E+00  0.11245348870E+04  0.11245348870E+04  0.00000000000E+00 0.  1.
          1   -1    0    0  501    0  0.00000000000E+00 -0.00000000000E+00 -0.20723450184E+04  0.20723450184E+04  0.00000000000E+00 0. -1.
         23    2    1    2    0    0 -0.36826849853E+03  0.14217474669E+04 -0.90515257285E+03  0.17275919097E+04  0.91022413630E+02 0.  0.
         11    1    3    3    0    0 -0.20695844605E+03  0.88666346396E+03 -0.60557520023E+03  0.10934922130E+04  0.00000000000E+00 0.  1.
        -11    1    3    3    0    0 -0.16131005248E+03  0.53508400296E+03 -0.29957737262E+03  0.63409969677E+03  0.00000000000E+00 0. -1.
         22    1    1    2    0    0  0.36826849853E+03 -0.14217474669E+04 -0.42657558569E+02  0.14692879956E+04  0.00000000000E+00 0.  1.
<mgrwt>
<rscale>  0 0.30531454E+04</rscale>
<asrwt>0</asrwt>
<pdfrwt beam="1">  1        1 0.31882231E+00 0.30531454E+04</pdfrwt>
<pdfrwt beam="2">  1       -1 0.17300537E+00 0.30531454E+04</pdfrwt>
<totfact> 0.52731407E-01</totfact>
</mgrwt>
</event>
<event>
 6    1  0.1585031E-006  0.2642095E+04  0.7818608E-02  0.8354041E-01
          1   -1    0    0  501    0  0.00000000000E+00  0.00000000000E+00  0.24366233094E+04  0.24366233094E+04  0.00000000000E+00 0. -1.
         -1   -1    0    0    0  501 -0.00000000000E+00 -0.00000000000E+00 -0.71622340664E+03  0.71622340664E+03  0.00000000000E+00 0.  1.
         23    2    1    2    0    0 -0.11482749615E+03  0.93077338461E+03 -0.24641101656E+03  0.97388603724E+03  0.90615545420E+02 0.  0.
         13    1    3    3    0    0 -0.63978350351E+02  0.20786883306E+03 -0.54588822152E+02  0.22423786606E+03  0.00000000000E+00 0. -1.
        -13    1    3    3    0    0 -0.50849145797E+02  0.72290455155E+03 -0.19182219441E+03  0.74964817118E+03  0.00000000000E+00 0.  1.
         22    1    1    2    0    0  0.11482749615E+03 -0.93077338461E+03  0.19668109193E+04  0.21789606788E+04  0.00000000000E+00 0. -1.
<mgrwt>
<rscale>  0 0.26420951E+04</rscale>
<asrwt>0</asrwt>
<pdfrwt beam="1">  1        1 0.37486512E+00 0.26420951E+04</pdfrwt>
<pdfrwt beam="2">  1       -1 0.11018822E+00 0.26420951E+04</pdfrwt>
<totfact> 0.99935060E-01</totfact>
</mgrwt>
</event>
<event>
 6    1  0.1585031E-006  0.8747155E+03  0.7818608E-02  0.9457752E-01
          1   -1    0    0  501    0  0.00000000000E+00  0.00000000000E+00  0.49912094584E+03  0.49912094584E+03  0.00000000000E+00 0. -1.
         -1   -1    0    0    0  501 -0.00000000000E+00 -0.00000000000E+00 -0.38323740216E+03  0.38323740216E+03  0.00000000000E+00 0.  1.
         23    2    1    2    0    0 -0.37613241156E+03  0.48608173706E+02 -0.15100811748E+03  0.41860248079E+03  0.92661965240E+02 0.  0.
         13    1    3    3    0    0 -0.20648591518E+03  0.70510377319E+02 -0.10065598329E+03  0.24029101825E+03  0.00000000000E+00 0. -1.
        -13    1    3    3    0    0 -0.16964649638E+03 -0.21902203613E+02 -0.50352134182E+02  0.17831146254E+03  0.00000000000E+00 0.  1.
         22    1    1    2    0    0  0.37613241156E+03 -0.48608173706E+02  0.26689166116E+03  0.46375586721E+03  0.00000000000E+00 0. -1.
<mgrwt>
<rscale>  0 0.87471553E+03</rscale>
<asrwt>0</asrwt>
<pdfrwt beam="1">  1        1 0.76787838E-01 0.87471553E+03</pdfrwt>
<pdfrwt beam="2">  1       -1 0.58959600E-01 0.87471553E+03</pdfrwt>
<totfact> 0.13073676E+02</totfact>
</mgrwt>
</event>
<event>
 6    1  0.1585031E-006  0.6084449E+03  0.7818608E-02  0.9888039E-01
          2   -1    0    0  501    0  0.00000000000E+00  0.00000000000E+00  0.62302936503E+03  0.62302936503E+03  0.00000000000E+00 0. -1.
         -2   -1    0    0    0  501 -0.00000000000E+00 -0.00000000000E+00 -0.14855044118E+03  0.14855044118E+03  0.00000000000E+00 0.  1.
         23    2    1    2    0    0  0.25519620255E+03  0.15177568447E+03  0.26114192942E+03  0.40596575645E+03  0.91935455186E+02 0.  0.
         13    1    3    3    0    0  0.12726730454E+03  0.84942423029E+02  0.74948449761E+02  0.17038031623E+03  0.00000000000E+00 0.  1.
        -13    1    3    3    0    0  0.12792889800E+03  0.66833261437E+02  0.18619347966E+03  0.23558544022E+03  0.00000000000E+00 0. -1.
         22    1    1    2    0    0 -0.25519620255E+03 -0.15177568447E+03  0.21333699444E+03  0.36561404976E+03  0.00000000000E+00 0.  1.
<mgrwt>
<rscale>  0 0.60844486E+03</rscale>
<asrwt>0</asrwt>
<pdfrwt beam="1">  1        2 0.95850670E-01 0.60844486E+03</pdfrwt>
<pdfrwt beam="2">  1       -2 0.22853914E-01 0.60844486E+03</pdfrwt>
<totfact> 0.80200065E+02</totfact>
</mgrwt>
</event>
<event>
 6    1  0.1585031E-006  0.2057651E+04  0.7818608E-02  0.8580131E-01
         -1   -1    0    0    0  501 -0.00000000000E+00  0.00000000000E+00  0.13636383317E+04  0.13636383317E+04  0.00000000000E+00 0.  1.
          1   -1    0    0  501    0  0.00000000000E+00 -0.00000000000E+00 -0.77621914205E+03  0.77621914205E+03  0.00000000000E+00 0. -1.
         23    2    1    2    0    0  0.57849286547E+03  0.52939726512E+03 -0.39511687719E+03  0.88276058712E+03  0.90738348161E+02 0.  0.
         13    1    3    3    0    0  0.28662179942E+03  0.23454772233E+03 -0.23166101781E+03  0.43684266862E+03  0.00000000000E+00 0. -1.
        -13    1    3    3    0    0  0.29187106605E+03  0.29484954278E+03 -0.16345585938E+03  0.44591791850E+03  0.00000000000E+00 0.  1.
         22    1    1    2    0    0 -0.57849286547E+03 -0.52939726512E+03  0.98253606683E+03  0.12570968866E+04  0.00000000000E+00 0.  1.
<mgrwt>
<rscale>  0 0.20576513E+04</rscale>
<asrwt>0</asrwt>
<pdfrwt beam="1">  1        1 0.11941833E+00 0.20576513E+04</pdfrwt>
<pdfrwt beam="2">  1       -1 0.20979051E+00 0.20576513E+04</pdfrwt>
<totfact> 0.27620281E+00</totfact>
</mgrwt>
</event>
<event>
 6    1  0.1585031E-006  0.9655266E+03  0.7818608E-02  0.9347184E-01
          2   -1    0    0  501    0  0.00000000000E+00  0.00000000000E+00  0.85198675995E+03  0.85198675995E+03  0.00000000000E+00 0.  1.
         -2   -1    0    0    0  501 -0.00000000000E+00 -0.00000000000E+00 -0.27354932986E+03  0.27354932986E+03  0.00000000000E+00 0. -1.
         23    2    1    2    0    0  0.23406271167E+03  0.27690764948E+03  0.65561680556E+03  0.75483424825E+03  0.92076855224E+02 0.  0.
         13    1    3    3    0    0  0.17500767623E+03  0.15935363381E+03  0.48227645219E+03  0.53722606385E+03  0.00000000000E+00 0.  1.
        -13    1    3    3    0    0  0.59055035442E+02  0.11755401567E+03  0.17334035337E+03  0.21760818440E+03  0.00000000000E+00 0. -1.
         22    1    1    2    0    0 -0.23406271167E+03 -0.27690764948E+03 -0.77179375475E+02  0.37070184155E+03  0.00000000000E+00 0. -1.
<mgrwt>
<rscale>  0 0.96552661E+03</rscale>
<asrwt>0</asrwt>
<pdfrwt beam="1">  1        2 0.13107488E+00 0.96552661E+03</pdfrwt>
<pdfrwt beam="2">  1       -2 0.42084513E-01 0.96552661E+03</pdfrwt>
<totfact> 0.16920909E+02</totfact>
</mgrwt>
</event>
<event>
 6    1  0.1585031E-006  0.1910339E+04  0.7818608E-02  0.8649727E-01
          1   -1    0    0  501    0  0.00000000000E+00  0.00000000000E+00  0.10811391109E+04  0.10811391109E+04  0.00000000000E+00 0. -1.
         -1   -1    0    0    0  501 -0.00000000000E+00 -0.00000000000E+00 -0.84387708249E+03  0.84387708249E+03  0.00000000000E+00 0.  1.
         23    2    1    2    0    0 -0.81635830251E+03 -0.34634463989E+03 -0.23290292892E+03  0.92129781919E+03  0.90279619493E+02 0.  0.
         13    1    3    3    0    0 -0.22672876940E+03 -0.11900155189E+03 -0.10382926228E+03  0.27631109267E+03  0.00000000000E+00 0.  1.
        -13    1    3    3    0    0 -0.58962953310E+03 -0.22734308801E+03 -0.12907366664E+03  0.64498672652E+03  0.00000000000E+00 0. -1.
         22    1    1    2    0    0  0.81635830251E+03  0.34634463989E+03  0.47016495736E+03  0.10037183742E+04  0.00000000000E+00 0. -1.
<mgrwt>
<rscale>  0 0.19103387E+04</rscale>
<asrwt>0</asrwt>
<pdfrwt beam="1">  1        1 0.16632909E+00 0.19103387E+04</pdfrwt>
<pdfrwt beam="2">  1       -1 0.12982724E+00 0.19103387E+04</pdfrwt>
<totfact> 0.62331337E+00</totfact>
</mgrwt>
</event>
<event>
 6    1  0.1585031E-006  0.1130415E+04  0.7818608E-02  0.9176044E-01
          1   -1    0    0  501    0  0.00000000000E+00  0.00000000000E+00  0.86039443957E+03  0.86039443957E+03  0.00000000000E+00 0. -1.
         -1   -1    0    0    0  501 -0.00000000000E+00 -0.00000000000E+00 -0.37129435863E+03  0.37129435863E+03  0.00000000000E+00 0.  1.
         23    2    1    2    0    0  0.39732721346E+02 -0.53746897932E+03  0.42189687326E+03  0.68857935803E+03  0.75451757855E+02 0.  0.
         11    1    3    3    0    0 -0.21827424487E+02 -0.10234684469E+03  0.76308600517E+02  0.12951569631E+03  0.00000000000E+00 0.  1.
        -11    1    3    3    0    0  0.61560145833E+02 -0.43512213463E+03  0.34558827274E+03  0.55906366172E+03  0.00000000000E+00 0. -1.
         22    1    1    2    0    0 -0.39732721346E+02  0.53746897932E+03  0.67203207679E+02  0.54310944017E+03  0.00000000000E+00 0.  1.
<mgrwt>
<rscale>  0 0.11304151E+04</rscale>
<asrwt>0</asrwt>
<pdfrwt beam="1">  1        1 0.13236837E+00 0.11304151E+04</pdfrwt>
<pdfrwt beam="2">  1       -1 0.57122209E-01 0.11304151E+04</pdfrwt>
<totfact> 0.60570196E+01</totfact>
</mgrwt>
</event>
<event>
 6    1  0.1585031E-006  0.2218733E+04  0.7818608E-02  0.8510671E-01
          1   -1    0    0  501    0  0.00000000000E+00  0.00000000000E+00  0.33518898937E+04  0.33518898937E+04  0.00000000000E+00 0. -1.
         -1   -1    0    0    0  501 -0.00000000000E+00 -0.00000000000E+00 -0.36716419545E+03  0.36716419545E+03  0.00000000000E+00 0.  1.
         23    2    1    2    0    0  0.88660173245E+03  0.62289026075E+03  0.18788222781E+04  0.21708043407E+04  0.91451757705E+02 0.  0.
         11    1    3    3    0    0  0.30425033978E+03  0.20177187403E+03  0.55089665871E+03  0.66088371669E+03  0.00000000000E+00 0. -1.
        -11    1    3    3    0    0  0.58235139268E+03  0.42111838672E+03  0.13279256194E+04  0.15099206240E+04  0.00000000000E+00 0.  1.
         22    1    1    2    0    0 -0.88660173245E+03 -0.62289026075E+03  0.11059034202E+04  0.15482497485E+04  0.00000000000E+00 0.  1.
<mgrwt>
<rscale>  0 0.22187329E+04</rscale>
<asrwt>0</asrwt>
<pdfrwt beam="1">  1        1 0.51567535E+00 0.22187329E+04</pdfrwt>
<pdfrwt beam="2">  1       -1 0.56486802E-01 0.22187329E+04</pdfrwt>
<totfact> 0.94276480E-01</totfact>
</mgrwt>
</event>
<event>
 6    1  0.1585031E-006  0.1145755E+04  0.7818608E-02  0.9161709E-01
          2   -1    0    0  501    0  0.00000000000E+00  0.00000000000E+00  0.75150079104E+03  0.75150079104E+03  0.00000000000E+00 0. -1.
         -2   -1    0    0    0  501 -0.00000000000E+00 -0.00000000000E+00 -0.43671060313E+03  0.43671060313E+03  0.00000000000E+00 0.  1.
         23    2    1    2    0    0 -0.51910554953E+03 -0.11468318639E+03  0.36954044876E+03  0.65377674348E+03  0.90780406796E+02 0.  0.
         11    1    3    3    0    0 -0.35656863846E+03 -0.39673681750E+02  0.26944413672E+03  0.44868177785E+03  0.00000000000E+00 0. -1.
        -11    1    3    3    0    0 -0.16253691107E+03 -0.75009504644E+02  0.10009631204E+03  0.20509496564E+03  0.00000000000E+00 0.  1.
         22    1    1    2    0    0  0.51910554953E+03  0.11468318639E+03 -0.54750260842E+02  0.53443465069E+03  0.00000000000E+00 0. -1.
<mgrwt>
<rscale>  0 0.11457545E+04</rscale>
<asrwt>0</asrwt>
<pdfrwt beam="1">  1        2 0.11561551E+00 0.11457545E+04</pdfrwt>
<pdfrwt beam="2">  1       -2 0.67186247E-01 0.11457545E+04</pdfrwt>
<totfact> 0.75310833E+01</totfact>
</mgrwt>
</event>
<event>
 6    1  0.1585031E-006  0.2493151E+04  0.7818608E-02  0.8405430E-01
          1   -1    0    0  501    0  0.00000000000E+00  0.00000000000E+00  0.10790963216E+04  0.10790963216E+04  0.00000000000E+00 0. -1.
         -1   -1    0    0    0  501 -0.00000000000E+00 -0.00000000000E+00 -0.14400475471E+04  0.14400475471E+04  0.00000000000E+00 0.  1.
         23    2    1    2    0    0 -0.51500704406E+03  0.59766863586E+03 -0.11537284434E+04  0.14006914687E+04  0.91690869976E+02 0.  0.
         13    1    3    3    0    0 -0.43779553432E+03  0.45296539316E+03 -0.89981460621E+03  0.10984119914E+04  0.00000000000E+00 0. -1.
        -13    1    3    3    0    0 -0.77211509739E+02  0.14470324270E+03 -0.25391383722E+03  0.30227947733E+03  0.00000000000E+00 0.  1.
         22    1    1    2    0    0  0.51500704406E+03 -0.59766863586E+03  0.79277721799E+03  0.11184524000E+04  0.00000000000E+00 0. -1.
<mgrwt>
<rscale>  0 0.24931506E+04</rscale>
<asrwt>0</asrwt>
<pdfrwt beam="1">  1        1 0.16601482E+00 0.24931506E+04</pdfrwt>
<pdfrwt beam="2">  1       -1 0.22154578E+00 0.24931506E+04</pdfrwt>
<totfact> 0.12560029E+00</totfact>
</mgrwt>
</event>
<event>
 6    1  0.1585031E-006  0.1860345E+04  0.7818608E-02  0.8674851E-01
         -2   -1    0    0    0  501 -0.00000000000E+00  0.00000000000E+00  0.52459008721E+03  0.52459008721E+03  0.00000000000E+00 0.  1.
          2   -1    0    0  501    0  0.00000000000E+00 -0.00000000000E+00 -0.16493277986E+04  0.16493277986E+04  0.00000000000E+00 0. -1.
         23    2    1    2    0    0 -0.62470296411E+03 -0.57027860700E+03 -0.11969502035E+03  0.86030367539E+03  0.10160724884E+03 0.  0.
         13    1    3    3    0    0 -0.29613535181E+03 -0.32760003352E+03 -0.33815299240E+02  0.44290112104E+03  0.00000000000E+00 0. -1.
        -13    1    3    3    0    0 -0.32856761230E+03 -0.24267857348E+03 -0.85879721107E+02  0.41740255435E+03  0.00000000000E+00 0.  1.
         22    1    1    2    0    0  0.62470296411E+03  0.57027860700E+03 -0.10050426910E+04  0.13136142104E+04  0.00000000000E+00 0. -1.
<mgrwt>
<rscale>  0 0.18603451E+04</rscale>
<asrwt>0</asrwt>
<pdfrwt beam="1">  1        2 0.25374273E+00 0.18603451E+04</pdfrwt>
<pdfrwt beam="2">  1       -2 0.80706168E-01 0.18603451E+04</pdfrwt>
<totfact> 0.13324953E+01</totfact>
</mgrwt>
</event>
<event>
 6    1  0.1585031E-006  0.1846533E+04  0.7818608E-02  0.8681938E-01
          1   -1    0    0  501    0  0.00000000000E+00  0.00000000000E+00  0.11606067414E+04  0.11606067414E+04  0.00000000000E+00 0. -1.
         -1   -1    0    0    0  501 -0.00000000000E+00 -0.00000000000E+00 -0.73446142348E+03  0.73446142348E+03  0.00000000000E+00 0.  1.
         23    2    1    2    0    0  0.38861608091E+03 -0.22855210991E+03  0.10376719524E+04  0.11353160014E+04  0.94450076695E+02 0.  0.
         11    1    3    3    0    0  0.16507208690E+03 -0.11131974838E+03  0.57155117750E+03  0.60523683691E+03  0.00000000000E+00 0. -1.
        -11    1    3    3    0    0  0.22354399401E+03 -0.11723236153E+03  0.46612077487E+03  0.53007916447E+03  0.00000000000E+00 0.  1.
         22    1    1    2    0    0 -0.38861608091E+03  0.22855210991E+03 -0.61152663445E+03  0.75975216349E+03  0.00000000000E+00 0.  1.
<mgrwt>
<rscale>  0 0.18465328E+04</rscale>
<asrwt>0</asrwt>
<pdfrwt beam="1">  1        1 0.17855488E+00 0.18465328E+04</pdfrwt>
<pdfrwt beam="2">  1       -1 0.11299406E+00 0.18465328E+04</pdfrwt>
<totfact> 0.76879729E+00</totfact>
</mgrwt>
</event>
<event>
 6    1  0.1585031E-006  0.1678850E+04  0.7818608E-02  0.8773520E-01
          1   -1    0    0  501    0  0.00000000000E+00  0.00000000000E+00  0.94604820085E+03  0.94604820085E+03  0.00000000000E+00 0. -1.
         -1   -1    0    0    0  501 -0.00000000000E+00 -0.00000000000E+00 -0.74481892420E+03  0.74481892420E+03  0.00000000000E+00 0.  1.
         23    2    1    2    0    0 -0.65251256481E+02  0.70449302756E+03 -0.34929652653E+03  0.79440362199E+03  0.92200319085E+02 0.  0.
         11    1    3    3    0    0  0.14845823042E+02  0.17843331536E+03 -0.11630630779E+03  0.21350879075E+03  0.00000000000E+00 0.  1.
        -11    1    3    3    0    0 -0.80097079523E+02  0.52605971219E+03 -0.23299021874E+03  0.58089483125E+03  0.00000000000E+00 0. -1.
         22    1    1    2    0    0  0.65251256481E+02 -0.70449302756E+03  0.55052580318E+03  0.89646350306E+03  0.00000000000E+00 0. -1.
<mgrwt>
<rscale>  0 0.16788503E+04</rscale>
<asrwt>0</asrwt>
<pdfrwt beam="1">  1        1 0.14554588E+00 0.16788503E+04</pdfrwt>
<pdfrwt beam="2">  1       -1 0.11458753E+00 0.16788503E+04</pdfrwt>
<totfact> 0.11022152E+01</totfact>
</mgrwt>
</event>
<event>
 6    1  0.1585031E-006  0.3452842E+04  0.7818608E-02  0.8125058E-01
         -1   -1    0    0    0  501 -0.00000000000E+00  0.00000000000E+00  0.20628284119E+04  0.20628284119E+04  0.00000000000E+00 0.  1.
          1   -1    0    0  501    0  0.00000000000E+00 -0.00000000000E+00 -0.14448749321E+04  0.14448749321E+04  0.00000000000E+00 0. -1.
         23    2    1    2    0    0 -0.14452462651E+04 -0.16361528672E+02 -0.64777967372E+03  0.15864837100E+04  0.91145981453E+02 0.  0.
         13    1    3    3    0    0 -0.51310442205E+03 -0.20652631629E+02 -0.18548677847E+03  0.54599269602E+03  0.00000000000E+00 0. -1.
        -13    1    3    3    0    0 -0.93214184306E+03  0.42911029572E+01 -0.46229289524E+03  0.10404910140E+04  0.00000000000E+00 0.  1.
         22    1    1    2    0    0  0.14452462651E+04  0.16361528672E+02  0.12657331534E+04  0.19212196340E+04  0.00000000000E+00 0.  1.
<mgrwt>
<rscale>  0 0.34528418E+04</rscale>
<asrwt>0</asrwt>
<pdfrwt beam="1">  1        1 0.22228845E+00 0.34528418E+04</pdfrwt>
<pdfrwt beam="2">  1       -1 0.31735822E+00 0.34528418E+04</pdfrwt>
<totfact> 0.14902165E-01</totfact>
</mgrwt>
</event>
<event>
 6    1  0.1585031E-006  0.1448297E+04  0.7818608E-02  0.8919582E-01
          1   -1    0    0  501    0  0.00000000000E+00  0.00000000000E+00  0.10610982480E+04  0.10610982480E+04  0.00000000000E+00 0. -1.
         -1   -1    0    0    0  501 -0.00000000000E+00 -0.00000000000E+00 -0.49419671930E+03  0.49419671930E+03  0.00000000000E+00 0.  1.
         23    2    1    2    0    0 -0.28845823319E+02 -0.43334019416E+03  0.90306068407E+03  0.10060966578E+04  0.89978221299E+02 0.  0.
         11    1    3    3    0    0 -0.23661014753E+02 -0.37462874034E+03  0.69554368784E+03  0.79037178492E+03  0.00000000000E+00 0. -1.
        -11    1    3    3    0    0 -0.51848085662E+01 -0.58711453820E+02  0.20751699624E+03  0.21572487288E+03  0.00000000000E+00 0.  1.
         22    1    1    2    0    0  0.28845823319E+02  0.43334019416E+03 -0.33615915539E+03  0.54919830950E+03  0.00000000000E+00 0.  1.
<mgrwt>
<rscale>  0 0.14482973E+04</rscale>
<asrwt>0</asrwt>
<pdfrwt beam="1">  1        1 0.16324588E+00 0.14482973E+04</pdfrwt>
<pdfrwt beam="2">  1       -1 0.76030265E-01 0.14482973E+04</pdfrwt>
<totfact> 0.22907265E+01</totfact>
</mgrwt>
</event>
<event>
 6    1  0.1585031E-006  0.4327732E+04  0.7818608E-02  0.7941510E-01
         -2   -1    0    0    0  501 -0.00000000000E+00  0.00000000000E+00  0.19416387476E+04  0.19416387476E+04  0.00000000000E+00 0.  1.
          2   -1    0    0  501    0  0.00000000000E+00 -0.00000000000E+00 -0.24115279002E+04  0.24115279002E+04  0.00000000000E+00 0. -1.
         23    2    1    2    0    0  0.12253567316E+04  0.12590243606E+04 -0.15039896912E+04  0.23145383383E+04  0.91985151952E+02 0.  0.
         11    1    3    3    0    0  0.99684947365E+02  0.12500008558E+03 -0.10989035647E+03  0.19400515605E+03  0.00000000000E+00 0. -1.
        -11    1    3    3    0    0  0.11256717843E+04  0.11340242750E+04 -0.13940993347E+04  0.21205331823E+04  0.00000000000E+00 0.  1.
         22    1    1    2    0    0 -0.12253567316E+04 -0.12590243606E+04  0.10341005386E+04  0.20386283095E+04  0.00000000000E+00 0.  1.
<mgrwt>
<rscale>  0 0.43277320E+04</rscale>
<asrwt>0</asrwt>
<pdfrwt beam="1">  1        2 0.37100429E+00 0.43277320E+04</pdfrwt>
<pdfrwt beam="2">  1       -2 0.29871365E+00 0.43277320E+04</pdfrwt>
<totfact> 0.97365245E-02</totfact>
</mgrwt>
</event>
<event>
 6    1  0.1585031E-006  0.3969802E+04  0.7818608E-02  0.8010666E-01
         -2   -1    0    0    0  501 -0.00000000000E+00  0.00000000000E+00  0.43692764114E+04  0.43692764114E+04  0.00000000000E+00 0.  1.
          2   -1    0    0  501    0  0.00000000000E+00 -0.00000000000E+00 -0.90171254086E+03  0.90171254086E+03  0.00000000000E+00 0. -1.
         23    2    1    2    0    0 -0.97655601055E+03  0.14049974350E+04  0.30677484812E+04  0.35138515701E+04  0.91611562545E+02 0.  0.
         13    1    3    3    0    0 -0.69510729886E+03  0.96575032781E+03  0.22079675557E+04  0.25081803323E+04  0.00000000000E+00 0. -1.
        -13    1    3    3    0    0 -0.28144871170E+03  0.43924710723E+03  0.85978092558E+03  0.10056712378E+04  0.00000000000E+00 0.  1.
         22    1    1    2    0    0  0.97655601055E+03 -0.14049974350E+04  0.39981538929E+03  0.17571373821E+04  0.00000000000E+00 0. -1.
<mgrwt>
<rscale>  0 0.39698017E+04</rscale>
<asrwt>0</asrwt>
<pdfrwt beam="1">  1        2 0.13872501E+00 0.39698017E+04</pdfrwt>
<pdfrwt beam="2">  1       -2 0.67219636E+00 0.39698017E+04</pdfrwt>
<totfact> 0.65455584E-03</totfact>
</mgrwt>
</event>
<event>
 6    1  0.1585031E-006  0.5074825E+04  0.7818608E-02  0.7817067E-01
         -2   -1    0    0    0  501 -0.00000000000E+00  0.00000000000E+00  0.15078042103E+04  0.15078042103E+04  0.00000000000E+00 0.  1.
          2   -1    0    0  501    0  0.00000000000E+00 -0.00000000000E+00 -0.42700923815E+04  0.42700923815E+04  0.00000000000E+00 0. -1.
         23    2    1    2    0    0 -0.18320482857E+04 -0.16507072612E+04 -0.20586386896E+04  0.32134555267E+04  0.84070117254E+02 0.  0.
         13    1    3    3    0    0 -0.86725545962E+03 -0.72864835849E+03 -0.92587982561E+03  0.14629811735E+04  0.00000000000E+00 0. -1.
        -13    1    3    3    0    0 -0.96479282608E+03 -0.92205890273E+03 -0.11327588640E+04  0.17504743532E+04  0.00000000000E+00 0.  1.
         22    1    1    2    0    0  0.18320482857E+04  0.16507072612E+04 -0.70364948159E+03  0.25644410651E+04  0.00000000000E+00 0. -1.
<mgrwt>
<rscale>  0 0.50748254E+04</rscale>
<asrwt>0</asrwt>
<pdfrwt beam="1">  1        2 0.65693728E+00 0.50748254E+04</pdfrwt>
<pdfrwt beam="2">  1       -2 0.23196988E+00 0.50748254E+04</pdfrwt>
<totfact> 0.12048277E-02</totfact>
</mgrwt>
</event>
<event>
 6    1  0.1585031E-006  0.3646964E+04  0.7818608E-02  0.8079818E-01
          2   -1    0    0  501    0  0.00000000000E+00  0.00000000000E+00  0.24610000632E+04  0.24610000632E+04  0.00000000000E+00 0. -1.
         -2   -1    0    0    0  501 -0.00000000000E+00 -0.00000000000E+00 -0.13511123084E+04  0.13511123084E+04  0.00000000000E+00 0.  1.
         23    2    1    2    0    0 -0.16652397857E+04  0.51825591749E+03  0.11081261897E+04  0.20680894810E+04  0.86242153606E+02 0.  0.
         13    1    3    3    0    0 -0.77587590657E+03  0.28338243217E+03  0.54310481119E+03  0.98856049952E+03  0.00000000000E+00 0. -1.
        -13    1    3    3    0    0 -0.88936387914E+03  0.23487348532E+03  0.56502137850E+03  0.10795289814E+04  0.00000000000E+00 0.  1.
         22    1    1    2    0    0  0.16652397857E+04 -0.51825591749E+03  0.17615651911E+01  0.17440228906E+04  0.00000000000E+00 0.  1.
<mgrwt>
<rscale>  0 0.36469645E+04</rscale>
<asrwt>0</asrwt>
<pdfrwt beam="1">  1        2 0.37861539E+00 0.36469645E+04</pdfrwt>
<pdfrwt beam="2">  1       -2 0.20786343E+00 0.36469645E+04</pdfrwt>
<totfact> 0.35188053E-01</totfact>
</mgrwt>
</event>
<event>
 6    1  0.1585031E-006  0.2559460E+04  0.7818608E-02  0.8382104E-01
          1   -1    0    0  501    0  0.00000000000E+00  0.00000000000E+00  0.16874020350E+04  0.16874020350E+04  0.00000000000E+00 0. -1.
         -1   -1    0    0    0  501 -0.00000000000E+00 -0.00000000000E+00 -0.97055057574E+03  0.97055057574E+03  0.00000000000E+00 0.  1.
         23    2    1    2    0    0  0.64147646177E+03  0.97399736229E+03  0.90202602358E+03  0.14770832140E+04  0.89224218904E+02 0.  0.
         13    1    3    3    0    0  0.87846181464E+02  0.19584478494E+03  0.16199347541E+03  0.26891265768E+03  0.00000000000E+00 0.  1.
        -13    1    3    3    0    0  0.55363028031E+03  0.77815257735E+03  0.74003254817E+03  0.12081705564E+04  0.00000000000E+00 0. -1.
         22    1    1    2    0    0 -0.64147646177E+03 -0.97399736229E+03 -0.18517456432E+03  0.11808693967E+04  0.00000000000E+00 0.  1.
<mgrwt>
<rscale>  0 0.25594601E+04</rscale>
<asrwt>0</asrwt>
<pdfrwt beam="1">  1        1 0.25960031E+00 0.25594601E+04</pdfrwt>
<pdfrwt beam="2">  1       -1 0.14931547E+00 0.25594601E+04</pdfrwt>
<totfact> 0.15177137E+00</totfact>
</mgrwt>
</event>
<event>
 6    1  0.1585031E-006  0.2032955E+04  0.7818608E-02  0.8591366E-01
          2   -1    0    0  501    0  0.00000000000E+00  0.00000000000E+00  0.28901929143E+04  0.28901929143E+04  0.00000000000E+00 0. -1.
         -2   -1    0    0    0  501 -0.00000000000E+00 -0.00000000000E+00 -0.35749408172E+03  0.35749408172E+03  0.00000000000E+00 0.  1.
         23    2    1    2    0    0 -0.77269998209E+03 -0.51736661975E+03  0.62530472312E+03  0.11256865789E+04  0.10691489861E+03 0.  0.
         11    1    3    3    0    0 -0.44346265487E+03 -0.33765650491E+03  0.32515640349E+03  0.64528887198E+03  0.00000000000E+00 0. -1.
        -11    1    3    3    0    0 -0.32923732721E+03 -0.17971011485E+03  0.30014831963E+03  0.48039770689E+03  0.00000000000E+00 0.  1.
         22    1    1    2    0    0  0.77269998209E+03  0.51736661975E+03  0.19073941094E+04  0.21220004171E+04  0.00000000000E+00 0. -1.
<mgrwt>
<rscale>  0 0.20329553E+04</rscale>
<asrwt>0</asrwt>
<pdfrwt beam="1">  1        2 0.44464505E+00 0.20329553E+04</pdfrwt>
<pdfrwt beam="2">  1       -2 0.54999091E-01 0.20329553E+04</pdfrwt>
<totfact> 0.58787877E+00</totfact>
</mgrwt>
</event>
<event>
 6    1  0.1585031E-006  0.3163438E+04  0.7818608E-02  0.8198540E-01
         -1   -1    0    0    0  501 -0.00000000000E+00  0.00000000000E+00  0.92916085566E+03  0.92916085566E+03  0.00000000000E+00 0.  1.
          1   -1    0    0  501    0  0.00000000000E+00 -0.00000000000E+00 -0.26925741296E+04  0.26925741296E+04  0.00000000000E+00 0. -1.
         23    2    1    2    0    0 -0.13403872622E+04  0.29148983661E+03 -0.17811637569E+04  0.22499043043E+04  0.88998384825E+02 0.  0.
         11    1    3    3    0    0 -0.95263395964E+03  0.17529351268E+03 -0.12130077852E+04  0.15522973825E+04  0.00000000000E+00 0. -1.
        -11    1    3    3    0    0 -0.38775330254E+03  0.11619632393E+03 -0.56815597167E+03  0.69760692189E+03  0.00000000000E+00 0.  1.
         22    1    1    2    0    0  0.13403872622E+04 -0.29148983661E+03  0.17750482919E+02  0.13718306809E+04  0.00000000000E+00 0.  1.
<mgrwt>
<rscale>  0 0.31634377E+04</rscale>
<asrwt>0</asrwt>
<pdfrwt beam="1">  1        1 0.41424217E+00 0.31634377E+04</pdfrwt>
<pdfrwt beam="2">  1       -1 0.14294783E+00 0.31634377E+04</pdfrwt>
<totfact> 0.33061410E-01</totfact>
</mgrwt>
</event>
<event>
 6    1  0.1585031E-006  0.3291239E+04  0.7818608E-02  0.8165128E-01
          2   -1    0    0  501    0  0.00000000000E+00  0.00000000000E+00  0.14569118019E+04  0.14569118019E+04  0.00000000000E+00 0. -1.
         -2   -1    0    0    0  501 -0.00000000000E+00 -0.00000000000E+00 -0.18587693750E+04  0.18587693750E+04  0.00000000000E+00 0.  1.
         23    2    1    2    0    0  0.13586362158E+03 -0.81908840458E+03 -0.16308668611E+04  0.18324992703E+04  0.94668468166E+02 0.  0.
         13    1    3    3    0    0  0.17963994372E+02 -0.29345365438E+03 -0.50381654408E+03  0.58332569157E+03  0.00000000000E+00 0. -1.
        -13    1    3    3    0    0  0.11789962721E+03 -0.52563475020E+03 -0.11270503170E+04  0.12491735788E+04  0.00000000000E+00 0.  1.
         22    1    1    2    0    0 -0.13586362158E+03  0.81908840458E+03  0.12290092879E+04  0.14831819066E+04  0.00000000000E+00 0. -1.
<mgrwt>
<rscale>  0 0.32912387E+04</rscale>
<asrwt>0</asrwt>
<pdfrwt beam="1">  1        2 0.22414028E+00 0.32912387E+04</pdfrwt>
<pdfrwt beam="2">  1       -2 0.28596452E+00 0.32912387E+04</pdfrwt>
<totfact> 0.43461267E-01</totfact>
</mgrwt>
</event>
<event>
 6    1  0.1585031E-006  0.4779393E+03  0.7818608E-02  0.1019703E+00
          2   -1    0    0  501    0  0.00000000000E+00  0.00000000000E+00  0.13804871614E+03  0.13804871614E+03  0.00000000000E+00 0. -1.
         -2   -1    0    0    0  501 -0.00000000000E+00 -0.00000000000E+00 -0.41366908603E+03  0.41366908603E+03  0.00000000000E+00 0.  1.
         23    2    1    2    0    0  0.63877187715E+02  0.20586106998E+03 -0.23629724830E+03  0.33261649425E+03  0.91314114186E+02 0.  0.
         11    1    3    3    0    0  0.78037839522E+02  0.10073270661E+03 -0.14060807278E+03  0.18975671980E+03  0.00000000000E+00 0. -1.
        -11    1    3    3    0    0 -0.14160651807E+02  0.10512836337E+03 -0.95689175522E+02  0.14285977445E+03  0.00000000000E+00 0.  1.
         22    1    1    2    0    0 -0.63877187715E+02 -0.20586106998E+03 -0.39323121592E+02  0.21910130792E+03  0.00000000000E+00 0.  1.
<mgrwt>
<rscale>  0 0.47793927E+03</rscale>
<asrwt>0</asrwt>
<pdfrwt beam="1">  1        2 0.21238264E-01 0.47793927E+03</pdfrwt>
<pdfrwt beam="2">  1       -2 0.63641397E-01 0.47793927E+03</pdfrwt>
<totfact> 0.60903718E+02</totfact>
</mgrwt>
</event>
<event>
 6    1  0.1585031E-006  0.1497207E+04  0.7818608E-02  0.8886312E-01
         -2   -1    0    0    0  501 -0.00000000000E+00  0.00000000000E+00  0.13479217152E+03  0.13479217152E+03  0.00000000000E+00 0.  1.
          2   -1    0    0  501    0  0.00000000000E+00 -0.00000000000E+00 -0.41575649381E+04  0.41575649381E+04  0.00000000000E+00 0. -1.
         23    2    1    2    0    0 -0.46798941048E+03  0.57452222091E+03 -0.17784013915E+04  0.19288231581E+04  0.92506190585E+02 0.  0.
         13    1    3    3    0    0 -0.45348727503E+03  0.54133089978E+03 -0.16363488773E+04  0.17822254347E+04  0.00000000000E+00 0. -1.
        -13    1    3    3    0    0 -0.14502135455E+02  0.33191321137E+02 -0.14205251420E+03  0.14659772346E+03  0.00000000000E+00 0.  1.
         22    1    1    2    0    0  0.46798941048E+03 -0.57452222091E+03 -0.22443713750E+04  0.23635339514E+04  0.00000000000E+00 0.  1.
<mgrwt>
<rscale>  0 0.14972070E+04</rscale>
<asrwt>0</asrwt>
<pdfrwt beam="1">  1        2 0.63962526E+00 0.14972070E+04</pdfrwt>
<pdfrwt beam="2">  1       -2 0.20737261E-01 0.14972070E+04</pdfrwt>
<totfact> 0.50382375E+00</totfact>
</mgrwt>
</event>
<event>
 6    1  0.1585031E-006  0.2014885E+04  0.7818608E-02  0.8599693E-01
          1   -1    0    0  501    0  0.00000000000E+00  0.00000000000E+00  0.14906123382E+04  0.14906123382E+04  0.00000000000E+00 0. -1.
         -1   -1    0    0    0  501 -0.00000000000E+00 -0.00000000000E+00 -0.68088818999E+03  0.68088818999E+03  0.00000000000E+00 0.  1.
         23    2    1    2    0    0  0.18438724010E+03  0.33921007372E+03  0.14061555986E+04  0.14610129467E+04  0.90681500557E+02 0.  0.
         13    1    3    3    0    0  0.45108726307E+02  0.54134055114E+02  0.39538515917E+03  0.40161513568E+03  0.00000000000E+00 0.  1.
        -13    1    3    3    0    0  0.13927851379E+03  0.28507601861E+03  0.10107704394E+04  0.10593978110E+04  0.00000000000E+00 0. -1.
         22    1    1    2    0    0 -0.18438724010E+03 -0.33921007372E+03 -0.59643145039E+03  0.71048758148E+03  0.00000000000E+00 0.  1.
<mgrwt>
<rscale>  0 0.20148849E+04</rscale>
<asrwt>0</asrwt>
<pdfrwt beam="1">  1        1 0.22932497E+00 0.20148849E+04</pdfrwt>
<pdfrwt beam="2">  1       -1 0.10475203E+00 0.20148849E+04</pdfrwt>
<totfact> 0.52665993E+00</totfact>
</mgrwt>
</event>
<event>
 6    1  0.1585031E-006  0.3432569E+04  0.7818608E-02  0.8129959E-01
         -2   -1    0    0    0  501 -0.00000000000E+00  0.00000000000E+00  0.12144915154E+04  0.12144915154E+04  0.00000000000E+00 0.  1.
          2   -1    0    0  501    0  0.00000000000E+00 -0.00000000000E+00 -0.24254033577E+04  0.24254033577E+04  0.00000000000E+00 0. -1.
         23    2    1    2    0    0 -0.90174816181E+03  0.51079384477E+03 -0.20550112494E+04  0.23032708017E+04  0.89022758019E+02 0.  0.
         13    1    3    3    0    0 -0.40100597705E+03  0.27743309495E+03 -0.98052098531E+03  0.10950782248E+04  0.00000000000E+00 0. -1.
        -13    1    3    3    0    0 -0.50074218476E+03  0.23336074983E+03 -0.10744902641E+04  0.12081925769E+04  0.00000000000E+00 0.  1.
         22    1    1    2    0    0  0.90174816181E+03 -0.51079384477E+03  0.84409940712E+03  0.13366240714E+04  0.00000000000E+00 0.  1.
<mgrwt>
<rscale>  0 0.34325686E+04</rscale>
<asrwt>0</asrwt>
<pdfrwt beam="1">  1        2 0.37313898E+00 0.34325686E+04</pdfrwt>
<pdfrwt beam="2">  1       -2 0.18684485E+00 0.34325686E+04</pdfrwt>
<totfact> 0.51700061E-01</totfact>
</mgrwt>
</event>
<event>
 6    1  0.1585031E-006  0.1928059E+04  0.7818608E-02  0.8641014E-01
          2   -1    0    0  501    0  0.00000000000E+00  0.00000000000E+00  0.29057970345E+04  0.29057970345E+04  0.00000000000E+00 0. -1.
         -2   -1    0    0    0  501 -0.00000000000E+00 -0.00000000000E+00 -0.31982718412E+03  0.31982718412E+03  0.00000000000E+00 0.  1.
         23    2    1    2    0    0 -0.32974598079E+03  0.81514854141E+03  0.19481160808E+04  0.21393199391E+04  0.91290640270E+02 0.  0.
         11    1    3    3    0    0 -0.23665527391E+03  0.64678825193E+03  0.15912158860E+04  0.17338710325E+04  0.00000000000E+00 0.  1.
        -11    1    3    3    0    0 -0.93090706885E+02  0.16836028948E+03  0.35690019478E+03  0.40544890654E+03  0.00000000000E+00 0. -1.
         22    1    1    2    0    0  0.32974598079E+03 -0.81514854141E+03  0.63785376957E+03  0.10863042795E+04  0.00000000000E+00 0.  1.
<mgrwt>
<rscale>  0 0.19280590E+04</rscale>
<asrwt>0</asrwt>
<pdfrwt beam="1">  1        2 0.44704568E+00 0.19280590E+04</pdfrwt>
<pdfrwt beam="2">  1       -2 0.49204184E-01 0.19280590E+04</pdfrwt>
<totfact> 0.72979993E+00</totfact>
</mgrwt>
</event>
<event>
 6    1  0.1585031E-006  0.4131539E+04  0.7818608E-02  0.7978524E-01
         -1   -1    0    0    0  501 -0.00000000000E+00  0.00000000000E+00  0.18586370826E+04  0.18586370826E+04  0.00000000000E+00 0.  1.
          1   -1    0    0  501    0  0.00000000000E+00 -0.00000000000E+00 -0.22959852123E+04  0.22959852123E+04  0.00000000000E+00 0. -1.
         23    2    1    2    0    0  0.77636550612E+03 -0.63915123587E+03 -0.20321900081E+04  0.22692103190E+04  0.90893021752E+02 0.  0.
         11    1    3    3    0    0  0.15904397178E+03 -0.17987764479E+03 -0.46532002047E+03  0.52361595994E+03  0.00000000000E+00 0. -1.
        -11    1    3    3    0    0  0.61732153434E+03 -0.45927359108E+03 -0.15668699877E+04  0.17455943591E+04  0.00000000000E+00 0.  1.
         22    1    1    2    0    0 -0.77636550612E+03  0.63915123587E+03  0.15948418785E+04  0.18854119759E+04  0.00000000000E+00 0.  1.
<mgrwt>
<rscale>  0 0.41315388E+04</rscale>
<asrwt>0</asrwt>
<pdfrwt beam="1">  1        1 0.35322850E+00 0.41315388E+04</pdfrwt>
<pdfrwt beam="2">  1       -1 0.28594417E+00 0.41315388E+04</pdfrwt>
<totfact> 0.59074457E-02</totfact>
</mgrwt>
</event>
<event>
 6    1  0.1585031E-006  0.1586806E+04  0.7818608E-02  0.8828695E-01
         -2   -1    0    0    0  501 -0.00000000000E+00  0.00000000000E+00  0.93093865763E+03  0.93093865763E+03  0.00000000000E+00 0.  1.
          2   -1    0    0  501    0  0.00000000000E+00 -0.00000000000E+00 -0.67618639869E+03  0.67618639869E+03  0.00000000000E+00 0. -1.
         23    2    1    2    0    0  0.23952246566E+03 -0.57966275848E+03 -0.36012126050E+03  0.72880315062E+03  0.89926553200E+02 0.  0.
         11    1    3    3    0    0  0.88445511554E+02 -0.11587800309E+03 -0.87380449304E+02  0.16995782723E+03  0.00000000000E+00 0.  1.
        -11    1    3    3    0    0  0.15107695410E+03 -0.46378475539E+03 -0.27274081119E+03  0.55884532339E+03  0.00000000000E+00 0. -1.
         22    1    1    2    0    0 -0.23952246566E+03  0.57966275848E+03  0.61487351944E+03  0.87832190570E+03  0.00000000000E+00 0.  1.
<mgrwt>
<rscale>  0 0.15868057E+04</rscale>
<asrwt>0</asrwt>
<pdfrwt beam="1">  1        2 0.10402868E+00 0.15868057E+04</pdfrwt>
<pdfrwt beam="2">  1       -2 0.14322133E+00 0.15868057E+04</pdfrwt>
<totfact> 0.13898434E+01</totfact>
</mgrwt>
</event>
<event>
 6    1  0.1585031E-006  0.1102611E+04  0.7818608E-02  0.9202651E-01
          1   -1    0    0  501    0  0.00000000000E+00  0.00000000000E+00  0.76005069435E+03  0.76005069435E+03  0.00000000000E+00 0. -1.
         -1   -1    0    0    0  501 -0.00000000000E+00 -0.00000000000E+00 -0.39989111487E+03  0.39989111487E+03  0.00000000000E+00 0.  1.
         23    2    1    2    0    0  0.22116517372E+03  0.45253578781E+03 -0.46249557362E+02  0.51273932172E+03  0.84023313223E+02 0.  0.
         13    1    3    3    0    0  0.12760183146E+03  0.18291579199E+03 -0.44071001729E+02  0.22733822280E+03  0.00000000000E+00 0.  1.
        -13    1    3    3    0    0  0.93563342260E+02  0.26961999582E+03 -0.21785556326E+01  0.28540109892E+03  0.00000000000E+00 0. -1.
         22    1    1    2    0    0 -0.22116517372E+03 -0.45253578781E+03  0.40640913684E+03  0.64720248750E+03  0.00000000000E+00 0. -1.
<mgrwt>
<rscale>  0 0.11026106E+04</rscale>
<asrwt>0</asrwt>
<pdfrwt beam="1">  1        1 0.11693088E+00 0.11026106E+04</pdfrwt>
<pdfrwt beam="2">  1       -1 0.61521710E-01 0.11026106E+04</pdfrwt>
<totfact> 0.64049113E+01</totfact>
</mgrwt>
</event>
<event>
 6    1  0.1585031E-006  0.6856253E+03  0.7818608E-02  0.9742136E-01
         -2   -1    0    0    0  501 -0.00000000000E+00  0.00000000000E+00  0.90369864790E+02  0.90369864790E+02  0.00000000000E+00 0.  1.
          2   -1    0    0  501    0  0.00000000000E+00 -0.00000000000E+00 -0.13004391030E+04  0.13004391030E+04  0.00000000000E+00 0. -1.
         23    2    1    2    0    0  0.21051261370E+03  0.11129094329E+03 -0.13543477602E+03  0.29010898055E+03  0.95495588672E+02 0.  0.
         11    1    3    3    0    0  0.11415785707E+03  0.21945089053E+02 -0.10167227029E+03  0.15443721640E+03  0.00000000000E+00 0. -1.
        -11    1    3    3    0    0  0.96354756627E+02  0.89345854233E+02 -0.33762505731E+02  0.13567176415E+03  0.00000000000E+00 0.  1.
         22    1    1    2    0    0 -0.21051261370E+03 -0.11129094329E+03 -0.10746344622E+04  0.11006999873E+04  0.00000000000E+00 0. -1.
<mgrwt>
<rscale>  0 0.68562528E+03</rscale>
<asrwt>0</asrwt>
<pdfrwt beam="1">  1        2 0.20006755E+00 0.68562528E+03</pdfrwt>
<pdfrwt beam="2">  1       -2 0.13903057E-01 0.68562528E+03</pdfrwt>
<totfact> 0.66556176E+02</totfact>
</mgrwt>
</event>
<event>
 6    1  0.1585031E-006  0.2260634E+04  0.7818608E-02  0.8493606E-01
         -2   -1    0    0    0  501 -0.00000000000E+00  0.00000000000E+00  0.52914422215E+03  0.52914422215E+03  0.00000000000E+00 0.  1.
          2   -1    0    0  501    0  0.00000000000E+00 -0.00000000000E+00 -0.24144957187E+04  0.24144957187E+04  0.00000000000E+00 0. -1.
         23    2    1    2    0    0 -0.16251232574E+03  0.82753097862E+03  0.32055367704E+02  0.84896410443E+03  0.92166845568E+02 0.  0.
         11    1    3    3    0    0 -0.79601078318E+01  0.25931936075E+03  0.50876624110E+01  0.25949138422E+03  0.00000000000E+00 0. -1.
        -11    1    3    3    0    0 -0.15455221791E+03  0.56821161787E+03  0.26967705293E+02  0.58947272021E+03  0.00000000000E+00 0.  1.
         22    1    1    2    0    0  0.16251232574E+03 -0.82753097862E+03 -0.19174068642E+04  0.20946758364E+04  0.00000000000E+00 0. -1.
<mgrwt>
<rscale>  0 0.22606339E+04</rscale>
<asrwt>0</asrwt>
<pdfrwt beam="1">  1        2 0.37146088E+00 0.22606339E+04</pdfrwt>
<pdfrwt beam="2">  1       -2 0.81406803E-01 0.22606339E+04</pdfrwt>
<totfact> 0.47139941E+00</totfact>
</mgrwt>
</event>
<event>
 6    1  0.1585031E-006  0.1363156E+04  0.7818608E-02  0.8980929E-01
         -1   -1    0    0    0  501 -0.00000000000E+00  0.00000000000E+00  0.55705738771E+03  0.55705738771E+03  0.00000000000E+00 0.  1.
          1   -1    0    0  501    0  0.00000000000E+00 -0.00000000000E+00 -0.83393269172E+03  0.83393269172E+03  0.00000000000E+00 0. -1.
         23    2    1    2    0    0  0.58621067626E+03  0.32762993829E+03 -0.23807127620E+03  0.71831624613E+03  0.91191904699E+02 0.  0.
         13    1    3    3    0    0  0.24335841275E+03  0.85448924466E+02 -0.93993367498E+02  0.27451701019E+03  0.00000000000E+00 0.  1.
        -13    1    3    3    0    0  0.34285226351E+03  0.24218101382E+03 -0.14407790870E+03  0.44379923595E+03  0.00000000000E+00 0. -1.
         22    1    1    2    0    0 -0.58621067626E+03 -0.32762993829E+03 -0.38804027811E+02  0.67267383330E+03  0.00000000000E+00 0.  1.
<mgrwt>
<rscale>  0 0.13631557E+04</rscale>
<asrwt>0</asrwt>
<pdfrwt beam="1">  1        1 0.12829734E+00 0.13631557E+04</pdfrwt>
<pdfrwt beam="2">  1       -1 0.85701136E-01 0.13631557E+04</pdfrwt>
<totfact> 0.27189056E+01</totfact>
</mgrwt>
</event>
<event>
 6    1  0.1585031E-006  0.1956162E+04  0.7818608E-02  0.8627395E-01
          2   -1    0    0  501    0  0.00000000000E+00  0.00000000000E+00  0.20648664699E+04  0.20648664699E+04  0.00000000000E+00 0. -1.
         -2   -1    0    0    0  501 -0.00000000000E+00 -0.00000000000E+00 -0.46329492593E+03  0.46329492593E+03  0.00000000000E+00 0.  1.
         23    2    1    2    0    0  0.72073692302E+03 -0.52054319931E+03  0.13225540701E+04  0.15963472055E+04  0.93531799918E+02 0.  0.
         13    1    3    3    0    0  0.37718694488E+03 -0.27788256939E+03  0.61349457531E+03  0.77192247518E+03  0.00000000000E+00 0. -1.
        -13    1    3    3    0    0  0.34354997814E+03 -0.24266062993E+03  0.70905949481E+03  0.82442473033E+03  0.00000000000E+00 0.  1.
         22    1    1    2    0    0 -0.72073692302E+03  0.52054319931E+03  0.27901747383E+03  0.93181419030E+03  0.00000000000E+00 0.  1.
<mgrwt>
<rscale>  0 0.19561617E+04</rscale>
<asrwt>0</asrwt>
<pdfrwt beam="1">  1        2 0.31767176E+00 0.19561617E+04</pdfrwt>
<pdfrwt beam="2">  1       -2 0.71276143E-01 0.19561617E+04</pdfrwt>
<totfact> 0.10240742E+01</totfact>
</mgrwt>
</event>
<event>
 6    1  0.1585031E-006  0.2687999E+04  0.7818608E-02  0.8338909E-01
          1   -1    0    0  501    0  0.00000000000E+00  0.00000000000E+00  0.77590002612E+03  0.77590002612E+03  0.00000000000E+00 0. -1.
         -1   -1    0    0    0  501 -0.00000000000E+00 -0.00000000000E+00 -0.23280513441E+04  0.23280513441E+04  0.00000000000E+00 0.  1.
         23    2    1    2    0    0  0.56502867154E+03 -0.97352170863E+03  0.69854748667E+02  0.11296399467E+04  0.64844478748E+02 0.  0.
         13    1    3    3    0    0  0.13686130252E+03 -0.19139875498E+03  0.53455833028E+00  0.23529722754E+03  0.00000000000E+00 0.  1.
        -13    1    3    3    0    0  0.42816736902E+03 -0.78212295365E+03  0.69320190336E+02  0.89434271915E+03  0.00000000000E+00 0. -1.
         22    1    1    2    0    0 -0.56502867154E+03  0.97352170863E+03 -0.16220060667E+04  0.19743114235E+04  0.00000000000E+00 0.  1.
<mgrwt>
<rscale>  0 0.26879993E+04</rscale>
<asrwt>0</asrwt>
<pdfrwt beam="1">  1        1 0.11936924E+00 0.26879993E+04</pdfrwt>
<pdfrwt beam="2">  1       -1 0.35816174E+00 0.26879993E+04</pdfrwt>
<totfact> 0.27826374E-01</totfact>
</mgrwt>
</event>
<event>
 6    1  0.1585031E-006  0.3447679E+04  0.7818608E-02  0.8126303E-01
         -2   -1    0    0    0  501 -0.00000000000E+00  0.00000000000E+00  0.10499899013E+04  0.10499899013E+04  0.00000000000E+00 0.  1.
          2   -1    0    0  501    0  0.00000000000E+00 -0.00000000000E+00 -0.28301434705E+04  0.28301434705E+04  0.00000000000E+00 0. -1.
         23    2    1    2    0    0 -0.13798719291E+04 -0.32165703178E+03  0.21196554414E+03  0.14355376284E+04  0.91263923463E+02 0.  0.
         13    1    3    3    0    0 -0.41885836960E+03 -0.90467320105E+02  0.22465510684E+02  0.42910531220E+03  0.00000000000E+00 0. -1.
        -13    1    3    3    0    0 -0.96101355955E+03 -0.23118971168E+03  0.18950003345E+03  0.10064323162E+04  0.00000000000E+00 0.  1.
         22    1    1    2    0    0  0.13798719291E+04  0.32165703178E+03 -0.19921191134E+04  0.24445957434E+04  0.00000000000E+00 0. -1.
<mgrwt>
<rscale>  0 0.34476787E+04</rscale>
<asrwt>0</asrwt>
<pdfrwt beam="1">  1        2 0.43540669E+00 0.34476787E+04</pdfrwt>
<pdfrwt beam="2">  1       -2 0.16153691E+00 0.34476787E+04</pdfrwt>
<totfact> 0.44875232E-01</totfact>
</mgrwt>
</event>
<event>
 6    1  0.1585031E-006  0.2367465E+04  0.7818608E-02  0.8451785E-01
         -2   -1    0    0    0  501 -0.00000000000E+00  0.00000000000E+00  0.50789611796E+03  0.50789611796E+03  0.00000000000E+00 0.  1.
          2   -1    0    0  501    0  0.00000000000E+00 -0.00000000000E+00 -0.27588772604E+04  0.27588772604E+04  0.00000000000E+00 0. -1.
         23    2    1    2    0    0 -0.81741000606E+03 -0.76830411495E+03 -0.16405767156E+04  0.19896500893E+04  0.93622578186E+02 0.  0.
         13    1    3    3    0    0 -0.27291738072E+03 -0.24977690488E+03 -0.62027603097E+03  0.72222901735E+03  0.00000000000E+00 0.  1.
        -13    1    3    3    0    0 -0.54449262534E+03 -0.51852721008E+03 -0.10203006846E+04  0.12674210719E+04  0.00000000000E+00 0. -1.
         22    1    1    2    0    0  0.81741000606E+03  0.76830411495E+03 -0.61040442683E+03  0.12771232890E+04  0.00000000000E+00 0.  1.
<mgrwt>
<rscale>  0 0.23674654E+04</rscale>
<asrwt>0</asrwt>
<pdfrwt beam="1">  1        2 0.42444265E+00 0.23674654E+04</pdfrwt>
<pdfrwt beam="2">  1       -2 0.78137866E-01 0.23674654E+04</pdfrwt>
<totfact> 0.32177242E+00</totfact>
</mgrwt>
</event>
<event>
 6    1  0.1585031E-006  0.9149937E+03  0.7818608E-02  0.9407030E-01
         -2   -1    0    0    0  501 -0.00000000000E+00  0.00000000000E+00  0.19455620538E+03  0.19455620538E+03  0.00000000000E+00 0.  1.
          2   -1    0    0  501    0  0.00000000000E+00 -0.00000000000E+00 -0.10757990733E+04  0.10757990733E+04  0.00000000000E+00 0. -1.
         23    2    1    2    0    0  0.39216958309E+03  0.71895997894E+02 -0.14624959994E+03  0.43418476951E+03  0.90340755936E+02 0.  0.
         13    1    3    3    0    0  0.14473212898E+03  0.67056741025E+02 -0.77418233307E+02  0.17730645371E+03  0.00000000000E+00 0.  1.
        -13    1    3    3    0    0  0.24743745410E+03  0.48392568698E+01 -0.68831366629E+02  0.25687831581E+03  0.00000000000E+00 0. -1.
         22    1    1    2    0    0 -0.39216958309E+03 -0.71895997894E+02 -0.73499326802E+03  0.83617050919E+03  0.00000000000E+00 0. -1.
<mgrwt>
<rscale>  0 0.91499374E+03</rscale>
<asrwt>0</asrwt>
<pdfrwt beam="1">  1        2 0.16550755E+00 0.91499374E+03</pdfrwt>
<pdfrwt beam="2">  1       -2 0.29931724E-01 0.91499374E+03</pdfrwt>
<totfact> 0.23238025E+02</totfact>
</mgrwt>
</event>
<event>
 6    1  0.1585031E-006  0.2444118E+04  0.7818608E-02  0.8423169E-01
         -1   -1    0    0    0  501 -0.00000000000E+00  0.00000000000E+00  0.16491420247E+04  0.16491420247E+04  0.00000000000E+00 0.  1.
          1   -1    0    0  501    0  0.00000000000E+00 -0.00000000000E+00 -0.90557864575E+03  0.90557864575E+03  0.00000000000E+00 0. -1.
         23    2    1    2    0    0 -0.46732011343E+03  0.71976229416E+03  0.12793236086E+04  0.15430463789E+04  0.88754623833E+02 0.  0.
         13    1    3    3    0    0 -0.30811338039E+03  0.53876149139E+03  0.95480764392E+03  0.11387956079E+04  0.00000000000E+00 0. -1.
        -13    1    3    3    0    0 -0.15920673304E+03  0.18100080277E+03  0.32451596472E+03  0.40425077094E+03  0.00000000000E+00 0.  1.
         22    1    1    2    0    0  0.46732011343E+03 -0.71976229416E+03 -0.53576022968E+03  0.10116742916E+04  0.00000000000E+00 0. -1.
<mgrwt>
<rscale>  0 0.24441177E+04</rscale>
<asrwt>0</asrwt>
<pdfrwt beam="1">  1        1 0.13931979E+00 0.24441177E+04</pdfrwt>
<pdfrwt beam="2">  1       -1 0.25371416E+00 0.24441177E+04</pdfrwt>
<totfact> 0.10597494E+00</totfact>
</mgrwt>
</event>
<event>
 6    1  0.1585031E-006  0.9936072E+03  0.7818608E-02  0.9315584E-01
          3   -1    0    0  501    0  0.00000000000E+00  0.00000000000E+00  0.92134772835E+03  0.92134772835E+03  0.00000000000E+00 0. -1.
         -3   -1    0    0    0  501 -0.00000000000E+00 -0.00000000000E+00 -0.26788345953E+03  0.26788345953E+03  0.00000000000E+00 0.  1.
         23    2    1    2    0    0 -0.33796415704E+03 -0.27383678286E+03  0.54893117239E+02  0.44930296258E+03  0.98252444084E+02 0.  0.
         11    1    3    3    0    0 -0.27346366074E+03 -0.24299426769E+03  0.12197112462E+02  0.36602917565E+03  0.00000000000E+00 0. -1.
        -11    1    3    3    0    0 -0.64500496298E+02 -0.30842515171E+02  0.42696004777E+02  0.83273786924E+02  0.00000000000E+00 0.  1.
         22    1    1    2    0    0  0.33796415704E+03  0.27383678286E+03  0.59857115158E+03  0.73992822530E+03  0.00000000000E+00 0. -1.
<mgrwt>
<rscale>  0 0.99360720E+03</rscale>
<asrwt>0</asrwt>
<pdfrwt beam="1">  1        3 0.14174580E+00 0.99360720E+03</pdfrwt>
<pdfrwt beam="2">  1       -3 0.41212840E-01 0.99360720E+03</pdfrwt>
<totfact> 0.57398416E+00</totfact>
</mgrwt>
</event>
<event>
 6    1  0.1585031E-006  0.2174806E+04  0.7818608E-02  0.8528988E-01
         -1   -1    0    0    0  501 -0.00000000000E+00  0.00000000000E+00  0.84043451057E+03  0.84043451057E+03  0.00000000000E+00 0.  1.
          1   -1    0    0  501    0  0.00000000000E+00 -0.00000000000E+00 -0.14069453644E+04  0.14069453644E+04  0.00000000000E+00 0. -1.
         23    2    1    2    0    0 -0.57056569224E+03  0.30258520412E+03  0.61802871243E+03  0.89821828387E+03  0.87940782186E+02 0.  0.
         13    1    3    3    0    0 -0.49107397035E+03  0.22678568929E+03  0.53212276426E+03  0.75877534849E+03  0.00000000000E+00 0.  1.
        -13    1    3    3    0    0 -0.79491721886E+02  0.75799514827E+02  0.85905948166E+02  0.13944293538E+03  0.00000000000E+00 0. -1.
         22    1    1    2    0    0  0.57056569224E+03 -0.30258520412E+03 -0.11845395663E+04  0.13491615911E+04  0.00000000000E+00 0. -1.
<mgrwt>
<rscale>  0 0.21748061E+04</rscale>
<asrwt>0</asrwt>
<pdfrwt beam="1">  1        1 0.21645313E+00 0.21748061E+04</pdfrwt>
<pdfrwt beam="2">  1       -1 0.12929762E+00 0.21748061E+04</pdfrwt>
<totfact> 0.35690290E+00</totfact>
</mgrwt>
</event>
<event>
 6    1  0.1585031E-006  0.2477051E+04  0.7818608E-02  0.8411207E-01
         -2   -1    0    0    0  501 -0.00000000000E+00  0.00000000000E+00  0.20418011212E+04  0.20418011212E+04  0.00000000000E+00 0.  1.
          2   -1    0    0  501    0  0.00000000000E+00 -0.00000000000E+00 -0.75127058405E+03  0.75127058405E+03  0.00000000000E+00 0. -1.
         23    2    1    2    0    0  0.11006008907E+04  0.27323640697E+03  0.92139890253E+02  0.11431866797E+04  0.11138029717E+03 0.  0.
         11    1    3    3    0    0  0.64444766116E+03  0.18981613494E+03  0.10107997594E+03  0.67938215651E+03  0.00000000000E+00 0.  1.
        -11    1    3    3    0    0  0.45615322957E+03  0.83420272028E+02 -0.89400856893E+01  0.46380452323E+03  0.00000000000E+00 0. -1.
         22    1    1    2    0    0 -0.11006008907E+04 -0.27323640697E+03  0.11983906469E+04  0.16498850255E+04  0.00000000000E+00 0.  1.
<mgrwt>
<rscale>  0 0.24770508E+04</rscale>
<asrwt>0</asrwt>
<pdfrwt beam="1">  1        2 0.11558009E+00 0.24770508E+04</pdfrwt>
<pdfrwt beam="2">  1       -2 0.31412325E+00 0.24770508E+04</pdfrwt>
<totfact> 0.87055050E-01</totfact>
</mgrwt>
</event>
<event>
 6    1  0.1585031E-006  0.2138369E+04  0.7818608E-02  0.8544527E-01
          1   -1    0    0  501    0  0.00000000000E+00  0.00000000000E+00  0.11805827647E+04  0.11805827647E+04  0.00000000000E+00 0. -1.
         -1   -1    0    0    0  501 -0.00000000000E+00 -0.00000000000E+00 -0.96829744561E+03  0.96829744561E+03  0.00000000000E+00 0.  1.
         23    2    1    2    0    0  0.22192666306E+03 -0.74155050757E+03 -0.63228702229E+03  0.10032576551E+04  0.87123159874E+02 0.  0.
         13    1    3    3    0    0  0.42000098157E+02 -0.28110663289E+03 -0.24553179115E+03  0.37559394000E+03  0.00000000000E+00 0.  1.
        -13    1    3    3    0    0  0.17992656491E+03 -0.46044387469E+03 -0.38675523114E+03  0.62766371515E+03  0.00000000000E+00 0. -1.
         22    1    1    2    0    0 -0.22192666306E+03  0.74155050757E+03  0.84457234135E+03  0.11456225551E+04  0.00000000000E+00 0. -1.
<mgrwt>
<rscale>  0 0.21383688E+04</rscale>
<asrwt>0</asrwt>
<pdfrwt beam="1">  1        1 0.18162812E+00 0.21383688E+04</pdfrwt>
<pdfrwt beam="2">  1       -1 0.14896884E+00 0.21383688E+04</pdfrwt>
<totfact> 0.35980131E+00</totfact>
</mgrwt>
</event>
<event>
 6    1  0.1585031E-006  0.1847490E+04  0.7818608E-02  0.8681445E-01
          2   -1    0    0  501    0  0.00000000000E+00  0.00000000000E+00  0.22547000532E+04  0.22547000532E+04  0.00000000000E+00 0. -1.
         -2   -1    0    0    0  501 -0.00000000000E+00 -0.00000000000E+00 -0.37845605701E+03  0.37845605701E+03  0.00000000000E+00 0.  1.
         23    2    1    2    0    0  0.79865158693E+03 -0.41337304786E+03  0.12268185209E+04  0.15238882967E+04  0.91816249772E+02 0.  0.
         13    1    3    3    0    0  0.42849946437E+03 -0.19881736066E+03  0.71273252360E+03  0.85506010553E+03  0.00000000000E+00 0. -1.
        -13    1    3    3    0    0  0.37015212255E+03 -0.21455568720E+03  0.51408599730E+03  0.66882819121E+03  0.00000000000E+00 0.  1.
         22    1    1    2    0    0 -0.79865158693E+03  0.41337304786E+03  0.64942547525E+03  0.11092678134E+04  0.00000000000E+00 0. -1.
<mgrwt>
<rscale>  0 0.18474901E+04</rscale>
<asrwt>0</asrwt>
<pdfrwt beam="1">  1        2 0.34687692E+00 0.18474901E+04</pdfrwt>
<pdfrwt beam="2">  1       -2 0.58224010E-01 0.18474901E+04</pdfrwt>
<totfact> 0.12486280E+01</totfact>
</mgrwt>
</event>
<event>
 6    1  0.1585031E-006  0.1848774E+04  0.7818608E-02  0.8680784E-01
          1   -1    0    0  501    0  0.00000000000E+00  0.00000000000E+00  0.11740055179E+04  0.11740055179E+04  0.00000000000E+00 0. -1.
         -1   -1    0    0    0  501 -0.00000000000E+00 -0.00000000000E+00 -0.72784254555E+03  0.72784254555E+03  0.00000000000E+00 0.  1.
         23    2    1    2    0    0  0.38433988881E+03 -0.40425792219E+03  0.97905522235E+03  0.11304105949E+04  0.90207354347E+02 0.  0.
         11    1    3    3    0    0  0.44918643384E+02 -0.13198516290E+02  0.93718821925E+02  0.10476212550E+03  0.00000000000E+00 0. -1.
        -11    1    3    3    0    0  0.33942124543E+03 -0.39105940590E+03  0.88533640042E+03  0.10256484694E+04  0.00000000000E+00 0.  1.
         22    1    1    2    0    0 -0.38433988881E+03  0.40425792219E+03 -0.53289225002E+03  0.77143746857E+03  0.00000000000E+00 0.  1.
<mgrwt>
<rscale>  0 0.18487738E+04</rscale>
<asrwt>0</asrwt>
<pdfrwt beam="1">  1        1 0.18061623E+00 0.18487738E+04</pdfrwt>
<pdfrwt beam="2">  1       -1 0.11197578E+00 0.18487738E+04</pdfrwt>
<totfact> 0.76772459E+00</totfact>
</mgrwt>
</event>
<event>
 6    1  0.1585031E-006  0.3756702E+04  0.7818608E-02  0.8055511E-01
         -2   -1    0    0    0  501 -0.00000000000E+00  0.00000000000E+00  0.12928428749E+04  0.12928428749E+04  0.00000000000E+00 0.  1.
          2   -1    0    0  501    0  0.00000000000E+00 -0.00000000000E+00 -0.27290272264E+04  0.27290272264E+04  0.00000000000E+00 0. -1.
         23    2    1    2    0    0  0.74940532299E+03 -0.90554159720E+03  0.84850099572E+03  0.14525509195E+04  0.91303404674E+02 0.  0.
         11    1    3    3    0    0  0.29395234746E+03 -0.28702302841E+03  0.29756976620E+03  0.50728489744E+03  0.00000000000E+00 0. -1.
        -11    1    3    3    0    0  0.45545297554E+03 -0.61851856879E+03  0.55093122952E+03  0.94526602210E+03  0.00000000000E+00 0.  1.
         22    1    1    2    0    0 -0.74940532299E+03  0.90554159720E+03 -0.22846853472E+04  0.25693191818E+04  0.00000000000E+00 0. -1.
<mgrwt>
<rscale>  0 0.37567025E+04</rscale>
<asrwt>0</asrwt>
<pdfrwt beam="1">  1        2 0.41985034E+00 0.37567025E+04</pdfrwt>
<pdfrwt beam="2">  1       -2 0.19889890E+00 0.37567025E+04</pdfrwt>
<totfact> 0.27758836E-01</totfact>
</mgrwt>
</event>
<event>
 6    1  0.1585031E-006  0.2570755E+04  0.7818608E-02  0.8378203E-01
         -2   -1    0    0    0  501 -0.00000000000E+00  0.00000000000E+00  0.17825797292E+04  0.17825797292E+04  0.00000000000E+00 0.  1.
          2   -1    0    0  501    0  0.00000000000E+00 -0.00000000000E+00 -0.92685633456E+03  0.92685633456E+03  0.00000000000E+00 0. -1.
         23    2    1    2    0    0 -0.11399223626E+03 -0.12758488733E+04  0.51647547892E+03  0.13843422084E+04  0.94190510219E+02 0.  0.
         13    1    3    3    0    0 -0.29315729668E+02 -0.37704630931E+03  0.10694918269E+03  0.39301585089E+03  0.00000000000E+00 0.  1.
        -13    1    3    3    0    0 -0.84676506593E+02 -0.89880256394E+03  0.40952629623E+03  0.99132635747E+03  0.00000000000E+00 0. -1.
         22    1    1    2    0    0  0.11399223626E+03  0.12758488733E+04  0.33924791572E+03  0.13250938554E+04  0.00000000000E+00 0. -1.
<mgrwt>
<rscale>  0 0.25707550E+04</rscale>
<asrwt>0</asrwt>
<pdfrwt beam="1">  1        2 0.14259328E+00 0.25707550E+04</pdfrwt>
<pdfrwt beam="2">  1       -2 0.27424304E+00 0.25707550E+04</pdfrwt>
<totfact> 0.11387435E+00</totfact>
</mgrwt>
</event>
<event>
 6    1  0.1585031E-006  0.5978105E+03  0.7818608E-02  0.9909959E-01
          2   -1    0    0  501    0  0.00000000000E+00  0.00000000000E+00  0.16470233758E+04  0.16470233758E+04  0.00000000000E+00 0.  1.
         -2   -1    0    0    0  501 -0.00000000000E+00 -0.00000000000E+00 -0.54245956068E+02  0.54245956068E+02  0.00000000000E+00 0. -1.
         23    2    1    2    0    0  0.66199689445E+02  0.26337815964E+03  0.50949113727E+03  0.58446154911E+03  0.90904508016E+02 0.  0.
         11    1    3    3    0    0  0.32672664375E+02  0.20618214943E+03  0.44704866298E+03  0.49338736183E+03  0.00000000000E+00 0.  1.
        -11    1    3    3    0    0  0.33527025071E+02  0.57196010208E+02  0.62442474289E+02  0.91074187282E+02  0.00000000000E+00 0. -1.
         22    1    1    2    0    0 -0.66199689445E+02 -0.26337815964E+03  0.10832862825E+04  0.11168077828E+04  0.00000000000E+00 0.  1.
<mgrwt>
<rscale>  0 0.59781053E+03</rscale>
<asrwt>0</asrwt>
<pdfrwt beam="1">  1        2 0.25338817E+00 0.59781053E+03</pdfrwt>
<pdfrwt beam="2">  1       -2 0.83455329E-02 0.59781053E+03</pdfrwt>
<totfact> 0.98705160E+02</totfact>
</mgrwt>
</event>
<event>
 6    1  0.1585031E-006  0.1149537E+04  0.7818608E-02  0.9158210E-01
         -1   -1    0    0    0  501 -0.00000000000E+00  0.00000000000E+00  0.25745511662E+03  0.25745511662E+03  0.00000000000E+00 0.  1.
          1   -1    0    0  501    0  0.00000000000E+00 -0.00000000000E+00 -0.12831716532E+04  0.12831716532E+04  0.00000000000E+00 0. -1.
         23    2    1    2    0    0 -0.62676953030E+02 -0.30018445981E+03 -0.11619401915E+04  0.12050735036E+04  0.89766530807E+02 0.  0.
         13    1    3    3    0    0 -0.64506425947E+02 -0.24669062457E+03 -0.81289322258E+03  0.85194643878E+03  0.00000000000E+00 0. -1.
        -13    1    3    3    0    0  0.18294729166E+01 -0.53493835244E+02 -0.34904696890E+03  0.35312706477E+03  0.00000000000E+00 0.  1.
         22    1    1    2    0    0  0.62676953030E+02  0.30018445981E+03  0.13622365490E+03  0.33555326627E+03  0.00000000000E+00 0.  1.
<mgrwt>
<rscale>  0 0.11495375E+04</rscale>
<asrwt>0</asrwt>
<pdfrwt beam="1">  1        1 0.19741102E+00 0.11495375E+04</pdfrwt>
<pdfrwt beam="2">  1       -1 0.39608480E-01 0.11495375E+04</pdfrwt>
<totfact> 0.57254623E+01</totfact>
</mgrwt>
</event>
<event>
 6    1  0.1585031E-006  0.2199872E+04  0.7818608E-02  0.8518482E-01
         -1   -1    0    0    0  501 -0.00000000000E+00  0.00000000000E+00  0.52167117476E+03  0.52167117476E+03  0.00000000000E+00 0.  1.
          1   -1    0    0  501    0  0.00000000000E+00 -0.00000000000E+00 -0.23191979886E+04  0.23191979886E+04  0.00000000000E+00 0. -1.
         23    2    1    2    0    0 -0.75087393063E+03  0.25400584180E+03 -0.18815077389E+04  0.20437597460E+04  0.92476486606E+02 0.  0.
         11    1    3    3    0    0 -0.50421935315E+03  0.21570626260E+03 -0.12867798912E+04  0.13987740476E+04  0.00000000000E+00 0. -1.
        -11    1    3    3    0    0 -0.24665457748E+03  0.38299579199E+02 -0.59472784774E+03  0.64498569847E+03  0.00000000000E+00 0.  1.
         22    1    1    2    0    0  0.75087393063E+03 -0.25400584180E+03  0.83980925100E+02  0.79710941730E+03  0.00000000000E+00 0.  1.
<mgrwt>
<rscale>  0 0.21998716E+04</rscale>
<asrwt>0</asrwt>
<pdfrwt beam="1">  1        1 0.35679969E+00 0.21998716E+04</pdfrwt>
<pdfrwt beam="2">  1       -1 0.80257104E-01 0.21998716E+04</pdfrwt>
<totfact> 0.25501185E+00</totfact>
</mgrwt>
</event>
<event>
 6    1  0.1585031E-006  0.1653460E+04  0.7818608E-02  0.8788362E-01
          3   -1    0    0  501    0  0.00000000000E+00  0.00000000000E+00  0.60187597054E+03  0.60187597054E+03  0.00000000000E+00 0. -1.
         -3   -1    0    0    0  501 -0.00000000000E+00 -0.00000000000E+00 -0.11355874429E+04  0.11355874429E+04  0.00000000000E+00 0.  1.
         23    2    1    2    0    0  0.22618718708E+03  0.41175086189E+03 -0.97916937264E+03  0.10900592454E+04  0.93579283413E+02 0.  0.
         13    1    3    3    0    0  0.17085279813E+03  0.35302771385E+03 -0.73785759318E+03  0.83561538592E+03  0.00000000000E+00 0.  1.
        -13    1    3    3    0    0  0.55334388942E+02  0.58723148035E+02 -0.24131177947E+03  0.25444385947E+03  0.00000000000E+00 0. -1.
         22    1    1    2    0    0 -0.22618718708E+03 -0.41175086189E+03  0.44545790030E+03  0.64740416804E+03  0.00000000000E+00 0. -1.
<mgrwt>
<rscale>  0 0.16534604E+04</rscale>
<asrwt>0</asrwt>
<pdfrwt beam="1">  1        3 0.92596305E-01 0.16534604E+04</pdfrwt>
<pdfrwt beam="2">  1       -3 0.17470576E+00 0.16534604E+04</pdfrwt>
<totfact> 0.56098092E-01</totfact>
</mgrwt>
</event>
<event>
 6    1  0.1585031E-006  0.2179240E+04  0.7818608E-02  0.8527119E-01
          1   -1    0    0  501    0  0.00000000000E+00  0.00000000000E+00  0.12132479921E+04  0.12132479921E+04  0.00000000000E+00 0. -1.
         -1   -1    0    0    0  501 -0.00000000000E+00 -0.00000000000E+00 -0.97858959025E+03  0.97858959025E+03  0.00000000000E+00 0.  1.
         23    2    1    2    0    0  0.84752847578E+03 -0.67273448526E+03  0.22865932176E+03  0.11097506201E+04  0.91570456019E+02 0.  0.
         13    1    3    3    0    0  0.42215450632E+03 -0.39329362789E+03  0.12467663452E+03  0.59028685242E+03  0.00000000000E+00 0. -1.
        -13    1    3    3    0    0  0.42537396946E+03 -0.27944085737E+03  0.10398268724E+03  0.51946376765E+03  0.00000000000E+00 0.  1.
         22    1    1    2    0    0 -0.84752847578E+03  0.67273448526E+03  0.59990800688E+01  0.10820869623E+04  0.00000000000E+00 0.  1.
<mgrwt>
<rscale>  0 0.21792401E+04</rscale>
<asrwt>0</asrwt>
<pdfrwt beam="1">  1        1 0.18665354E+00 0.21792401E+04</pdfrwt>
<pdfrwt beam="2">  1       -1 0.15055224E+00 0.21792401E+04</pdfrwt>
<totfact> 0.32975322E+00</totfact>
</mgrwt>
</event>
<event>
 6    1  0.1585031E-006  0.1373409E+04  0.7818608E-02  0.8973295E-01
          2   -1    0    0  501    0  0.00000000000E+00  0.00000000000E+00  0.35603503329E+04  0.35603503329E+04  0.00000000000E+00 0. -1.
         -2   -1    0    0    0  501 -0.00000000000E+00 -0.00000000000E+00 -0.13244845609E+03  0.13244845609E+03  0.00000000000E+00 0.  1.
         23    2    1    2    0    0  0.13703899251E+03 -0.22430321301E+03  0.34184866228E+04  0.34297773757E+04  0.90721772816E+02 0.  0.
         13    1    3    3    0    0  0.68471178740E+02 -0.11369589366E+03  0.11648919178E+04  0.11724283512E+04  0.00000000000E+00 0. -1.
        -13    1    3    3    0    0  0.68567813772E+02 -0.11060731934E+03  0.22535947050E+04  0.22573490245E+04  0.00000000000E+00 0.  1.
         22    1    1    2    0    0 -0.13703899251E+03  0.22430321301E+03  0.94152540318E+01  0.26302141328E+03  0.00000000000E+00 0.  1.
<mgrwt>
<rscale>  0 0.13734088E+04</rscale>
<asrwt>0</asrwt>
<pdfrwt beam="1">  1        2 0.54774613E+00 0.13734088E+04</pdfrwt>
<pdfrwt beam="2">  1       -2 0.20376688E-01 0.13734088E+04</pdfrwt>
<totfact> 0.15155668E+01</totfact>
</mgrwt>
</event>
<event>
 6    1  0.1585031E-006  0.1033606E+04  0.7818608E-02  0.9272436E-01
         -2   -1    0    0    0  501 -0.00000000000E+00  0.00000000000E+00  0.11824022681E+04  0.11824022681E+04  0.00000000000E+00 0.  1.
          2   -1    0    0  501    0  0.00000000000E+00 -0.00000000000E+00 -0.22588353955E+03  0.22588353955E+03  0.00000000000E+00 0. -1.
         23    2    1    2    0    0  0.12116186609E+03 -0.24573402162E+03  0.10725858812E+04  0.11107341465E+04  0.90688833259E+02 0.  0.
         13    1    3    3    0    0  0.50713866936E+02 -0.13750521616E+03  0.73112802773E+03  0.74567269878E+03  0.00000000000E+00 0.  1.
        -13    1    3    3    0    0  0.70447999155E+02 -0.10822880546E+03  0.34145785344E+03  0.36506144769E+03  0.00000000000E+00 0. -1.
         22    1    1    2    0    0 -0.12116186609E+03  0.24573402162E+03 -0.11606715259E+03  0.29755166121E+03  0.00000000000E+00 0. -1.
<mgrwt>
<rscale>  0 0.10336057E+04</rscale>
<asrwt>0</asrwt>
<pdfrwt beam="1">  1        2 0.34751315E-01 0.10336057E+04</pdfrwt>
<pdfrwt beam="2">  1       -2 0.18190804E+00 0.10336057E+04</pdfrwt>
<totfact> 0.26431702E+01</totfact>
</mgrwt>
</event>
<event>
 6    1  0.1585031E-006  0.9744046E+03  0.7818608E-02  0.9337072E-01
          2   -1    0    0  501    0  0.00000000000E+00  0.00000000000E+00  0.27581075551E+04  0.27581075551E+04  0.00000000000E+00 0.  1.
         -2   -1    0    0    0  501 -0.00000000000E+00 -0.00000000000E+00 -0.86061207205E+02  0.86061207205E+02  0.00000000000E+00 0. -1.
         23    2    1    2    0    0  0.33235081332E+03 -0.34757588887E+03  0.15041183008E+04  0.15811081997E+04  0.79153109084E+02 0.  0.
         13    1    3    3    0    0  0.13326821797E+03 -0.12942236996E+03  0.70825539021E+03  0.73221326506E+03  0.00000000000E+00 0.  1.
        -13    1    3    3    0    0  0.19908259535E+03 -0.21815351891E+03  0.79586291059E+03  0.84889493463E+03  0.00000000000E+00 0. -1.
         22    1    1    2    0    0 -0.33235081332E+03  0.34757588887E+03  0.11679280471E+04  0.12630605626E+04  0.00000000000E+00 0.  1.
<mgrwt>
<rscale>  0 0.97440457E+03</rscale>
<asrwt>0</asrwt>
<pdfrwt beam="1">  1        2 0.42432417E+00 0.97440457E+03</pdfrwt>
<pdfrwt beam="2">  1       -2 0.13240188E-01 0.97440457E+03</pdfrwt>
<totfact> 0.10824632E+02</totfact>
</mgrwt>
</event>
<event>
 6    1  0.1585031E-006  0.2663275E+04  0.7818608E-02  0.8347020E-01
          3   -1    0    0  501    0  0.00000000000E+00  0.00000000000E+00  0.12037178887E+04  0.12037178887E+04  0.00000000000E+00 0. -1.
         -3   -1    0    0    0  501 -0.00000000000E+00 -0.00000000000E+00 -0.14731510201E+04  0.14731510201E+04  0.00000000000E+00 0.  1.
         23    2    1    2    0    0  0.86784727746E+03  0.20601135319E+03  0.85686313155E+03  0.12401563952E+04  0.90409533238E+02 0.  0.
         13    1    3    3    0    0  0.78729619259E+03  0.16007218541E+03  0.75660714418E+03  0.11035908526E+04  0.00000000000E+00 0. -1.
        -13    1    3    3    0    0  0.80551084865E+02  0.45939167776E+02  0.10025598737E+03  0.13656554255E+03  0.00000000000E+00 0.  1.
         22    1    1    2    0    0 -0.86784727746E+03 -0.20601135319E+03 -0.11262962630E+04  0.14367125136E+04  0.00000000000E+00 0.  1.
<mgrwt>
<rscale>  0 0.26632749E+04</rscale>
<asrwt>0</asrwt>
<pdfrwt beam="1">  1        3 0.18518737E+00 0.26632749E+04</pdfrwt>
<pdfrwt beam="2">  1       -3 0.22663862E+00 0.26632749E+04</pdfrwt>
<totfact> 0.42152110E-02</totfact>
</mgrwt>
</event>
<event>
 6    1  0.1585031E-006  0.1368218E+04  0.7818608E-02  0.8977151E-01
         -2   -1    0    0    0  501 -0.00000000000E+00  0.00000000000E+00  0.28150413439E+03  0.28150413439E+03  0.00000000000E+00 0.  1.
          2   -1    0    0  501    0  0.00000000000E+00 -0.00000000000E+00 -0.16625148567E+04  0.16625148567E+04  0.00000000000E+00 0. -1.
         23    2    1    2    0    0 -0.60201936807E+03 -0.31188201300E+03 -0.60322121808E+03  0.91219816245E+03  0.92368501567E+02 0.  0.
         11    1    3    3    0    0 -0.21061462033E+03 -0.79288735247E+02 -0.15474276428E+03  0.27311269639E+03  0.00000000000E+00 0.  1.
        -11    1    3    3    0    0 -0.39140474773E+03 -0.23259327775E+03 -0.44847845380E+03  0.63908546606E+03  0.00000000000E+00 0. -1.
         22    1    1    2    0    0  0.60201936807E+03  0.31188201300E+03 -0.77778950428E+03  0.10318208287E+04  0.00000000000E+00 0. -1.
<mgrwt>
<rscale>  0 0.13682175E+04</rscale>
<asrwt>0</asrwt>
<pdfrwt beam="1">  1        2 0.25577151E+00 0.13682175E+04</pdfrwt>
<pdfrwt beam="2">  1       -2 0.43308329E-01 0.13682175E+04</pdfrwt>
<totfact> 0.50737595E+01</totfact>
</mgrwt>
</event>
<event>
 6    1  0.1585031E-006  0.1610394E+04  0.7818608E-02  0.8814188E-01
          1   -1    0    0  501    0  0.00000000000E+00  0.00000000000E+00  0.47823899094E+03  0.47823899094E+03  0.00000000000E+00 0. -1.
         -1   -1    0    0    0  501 -0.00000000000E+00 -0.00000000000E+00 -0.13556859431E+04  0.13556859431E+04  0.00000000000E+00 0.  1.
         23    2    1    2    0    0 -0.19361711909E+03 -0.77180579411E+03 -0.56149843831E+03  0.97777352448E+03  0.87113697752E+02 0.  0.
         13    1    3    3    0    0 -0.65396424241E+01 -0.17210638761E+03 -0.11667402091E+03  0.20802933143E+03  0.00000000000E+00 0. -1.
        -13    1    3    3    0    0 -0.18707747666E+03 -0.59969940650E+03 -0.44482441740E+03  0.76974419306E+03  0.00000000000E+00 0.  1.
         22    1    1    2    0    0  0.19361711909E+03  0.77180579411E+03 -0.31594851382E+03  0.85615140951E+03  0.00000000000E+00 0. -1.
<mgrwt>
<rscale>  0 0.16103936E+04</rscale>
<asrwt>0</asrwt>
<pdfrwt beam="1">  1        1 0.73575230E-01 0.16103936E+04</pdfrwt>
<pdfrwt beam="2">  1       -1 0.20856707E+00 0.16103936E+04</pdfrwt>
<totfact> 0.59388818E+00</totfact>
</mgrwt>
</event>
<event>
 6    1  0.1585031E-006  0.5163060E+04  0.7818608E-02  0.7803834E-01
          2   -1    0    0  501    0  0.00000000000E+00  0.00000000000E+00  0.32686130301E+04  0.32686130301E+04  0.00000000000E+00 0. -1.
         -2   -1    0    0    0  501 -0.00000000000E+00 -0.00000000000E+00 -0.20388757917E+04  0.20388757917E+04  0.00000000000E+00 0.  1.
         23    2    1    2    0    0 -0.87251708730E+03  0.20823501157E+04  0.18997479115E+04  0.29524129474E+04  0.10115341048E+03 0.  0.
         11    1    3    3    0    0 -0.83656562954E+03  0.19375907667E+04  0.17604117408E+04  0.27482993885E+04  0.00000000000E+00 0. -1.
        -11    1    3    3    0    0 -0.35951457758E+02  0.14475934899E+03  0.13933617071E+03  0.20411355884E+03  0.00000000000E+00 0.  1.
         22    1    1    2    0    0  0.87251708730E+03 -0.20823501157E+04 -0.67001067308E+03  0.23550758744E+04  0.00000000000E+00 0.  1.
<mgrwt>
<rscale>  0 0.51630596E+04</rscale>
<asrwt>0</asrwt>
<pdfrwt beam="1">  1        2 0.50286354E+00 0.51630596E+04</pdfrwt>
<pdfrwt beam="2">  1       -2 0.31367320E+00 0.51630596E+04</pdfrwt>
<totfact> 0.21977270E-02</totfact>
</mgrwt>
</event>
<event>
 6    1  0.1585031E-006  0.2879921E+04  0.7818608E-02  0.8278877E-01
         -2   -1    0    0    0  501 -0.00000000000E+00  0.00000000000E+00  0.76543504354E+03  0.76543504354E+03  0.00000000000E+00 0.  1.
          2   -1    0    0  501    0  0.00000000000E+00 -0.00000000000E+00 -0.27088981909E+04  0.27088981909E+04  0.00000000000E+00 0. -1.
         23    2    1    2    0    0 -0.10617963648E+04 -0.84913878769E+03 -0.15394157354E+04  0.20559882439E+04  0.94014103672E+02 0.  0.
         13    1    3    3    0    0 -0.38773429884E+03 -0.34176041614E+03 -0.64327698150E+03  0.82519291288E+03  0.00000000000E+00 0. -1.
        -13    1    3    3    0    0 -0.67406206591E+03 -0.50737837155E+03 -0.89613875391E+03  0.12307953310E+04  0.00000000000E+00 0.  1.
         22    1    1    2    0    0  0.10617963648E+04  0.84913878769E+03 -0.40404741191E+03  0.14183449905E+04  0.00000000000E+00 0.  1.
<mgrwt>
<rscale>  0 0.28799206E+04</rscale>
<asrwt>0</asrwt>
<pdfrwt beam="1">  1        2 0.41675357E+00 0.28799206E+04</pdfrwt>
<pdfrwt beam="2">  1       -2 0.11775924E+00 0.28799206E+04</pdfrwt>
<totfact> 0.12612816E+00</totfact>
</mgrwt>
</event>
<event>
 6    1  0.1585031E-006  0.3686909E+04  0.7818608E-02  0.8070869E-01
         -2   -1    0    0    0  501 -0.00000000000E+00  0.00000000000E+00  0.23628289155E+04  0.23628289155E+04  0.00000000000E+00 0.  1.
          2   -1    0    0  501    0  0.00000000000E+00 -0.00000000000E+00 -0.14382436079E+04  0.14382436079E+04  0.00000000000E+00 0. -1.
         23    2    1    2    0    0  0.75775908079E+03 -0.93415797609E+03  0.19012610032E+04  0.22516386386E+04  0.90737024999E+02 0.  0.
         13    1    3    3    0    0  0.27012217647E+03 -0.35259707943E+03  0.78164768640E+03  0.89903492496E+03  0.00000000000E+00 0. -1.
        -13    1    3    3    0    0  0.48763690432E+03 -0.58156089666E+03  0.11196133168E+04  0.13526037136E+04  0.00000000000E+00 0.  1.
         22    1    1    2    0    0 -0.75775908079E+03  0.93415797609E+03 -0.97667569566E+03  0.15494338848E+04  0.00000000000E+00 0. -1.
<mgrwt>
<rscale>  0 0.36869085E+04</rscale>
<asrwt>0</asrwt>
<pdfrwt beam="1">  1        2 0.22126825E+00 0.36869085E+04</pdfrwt>
<pdfrwt beam="2">  1       -2 0.36351214E+00 0.36869085E+04</pdfrwt>
<totfact> 0.14216554E-01</totfact>
</mgrwt>
</event>
<event>
 6    1  0.1585031E-006  0.3034268E+04  0.7818608E-02  0.8234013E-01
          2   -1    0    0  501    0  0.00000000000E+00  0.00000000000E+00  0.93419699029E+03  0.93419699029E+03  0.00000000000E+00 0.  1.
         -2   -1    0    0    0  501 -0.00000000000E+00 -0.00000000000E+00 -0.24638229034E+04  0.24638229034E+04  0.00000000000E+00 0. -1.
         23    2    1    2    0    0  0.13766070157E+04 -0.61854830405E+03 -0.92361995899E+03  0.17717074709E+04  0.90689876491E+02 0.  0.
         11    1    3    3    0    0  0.10749491375E+04 -0.49008200710E+03 -0.67885991967E+03  0.13625515816E+04  0.00000000000E+00 0.  1.
        -11    1    3    3    0    0  0.30165787819E+03 -0.12846629696E+03 -0.24476003932E+03  0.40915588933E+03  0.00000000000E+00 0. -1.
         22    1    1    2    0    0 -0.13766070157E+04  0.61854830405E+03 -0.60600595414E+03  0.16263124228E+04  0.00000000000E+00 0.  1.
<mgrwt>
<rscale>  0 0.30342682E+04</rscale>
<asrwt>0</asrwt>
<pdfrwt beam="1">  1        2 0.14372261E+00 0.30342682E+04</pdfrwt>
<pdfrwt beam="2">  1       -2 0.37904968E+00 0.30342682E+04</pdfrwt>
<totfact> 0.24095202E-01</totfact>
</mgrwt>
</event>
<event>
 6    1  0.1585031E-006  0.6010913E+03  0.7818608E-02  0.9903144E-01
         -1   -1    0    0    0  501 -0.00000000000E+00  0.00000000000E+00  0.64882087011E+02  0.64882087011E+02  0.00000000000E+00 0.  1.
          1   -1    0    0  501    0  0.00000000000E+00 -0.00000000000E+00 -0.13921823204E+04  0.13921823204E+04  0.00000000000E+00 0. -1.
         23    2    1    2    0    0  0.80878599029E+02 -0.15855881438E+03 -0.12447992680E+04  0.12608791514E+04  0.92783465305E+02 0.  0.
         13    1    3    3    0    0  0.91868333145E+02 -0.12722986975E+03 -0.82665338835E+03  0.84141728937E+03  0.00000000000E+00 0. -1.
        -13    1    3    3    0    0 -0.10989734116E+02 -0.31328944627E+02 -0.41814587961E+03  0.41946186198E+03  0.00000000000E+00 0.  1.
         22    1    1    2    0    0 -0.80878599029E+02  0.15855881438E+03 -0.82500965452E+02  0.19618525607E+03  0.00000000000E+00 0.  1.
<mgrwt>
<rscale>  0 0.60109132E+03</rscale>
<asrwt>0</asrwt>
<pdfrwt beam="1">  1        1 0.21418188E+00 0.60109132E+03</pdfrwt>
<pdfrwt beam="2">  1       -1 0.99818605E-02 0.60109132E+03</pdfrwt>
<totfact> 0.50401278E+02</totfact>
</mgrwt>
</event>
<event>
 6    1  0.1585031E-006  0.2178613E+04  0.7818608E-02  0.8527383E-01
         -2   -1    0    0    0  501 -0.00000000000E+00  0.00000000000E+00  0.62614729818E+03  0.62614729818E+03  0.00000000000E+00 0.  1.
          2   -1    0    0  501    0  0.00000000000E+00 -0.00000000000E+00 -0.18950627223E+04  0.18950627223E+04  0.00000000000E+00 0. -1.
         23    2    1    2    0    0  0.26482220304E+03 -0.86295396728E+03 -0.13372785832E+04  0.16159510132E+04  0.90351088090E+02 0.  0.
         11    1    3    3    0    0  0.15142437880E+03 -0.63188916207E+03 -0.95375280011E+03  0.11540613759E+04  0.00000000000E+00 0.  1.
        -11    1    3    3    0    0  0.11339782424E+03 -0.23106480521E+03 -0.38352578306E+03  0.46188963728E+03  0.00000000000E+00 0. -1.
         22    1    1    2    0    0 -0.26482220304E+03  0.86295396728E+03  0.68363159008E+02  0.90525900734E+03  0.00000000000E+00 0.  1.
<mgrwt>
<rscale>  0 0.21786128E+04</rscale>
<asrwt>0</asrwt>
<pdfrwt beam="1">  1        2 0.29154810E+00 0.21786128E+04</pdfrwt>
<pdfrwt beam="2">  1       -2 0.96330356E-01 0.21786128E+04</pdfrwt>
<totfact> 0.63118777E+00</totfact>
</mgrwt>
</event>
<event>
 6    1  0.1585031E-006  0.2044389E+04  0.7818608E-02  0.8586144E-01
         -1   -1    0    0    0  501 -0.00000000000E+00  0.00000000000E+00  0.55735277157E+03  0.55735277157E+03  0.00000000000E+00 0.  1.
          1   -1    0    0  501    0  0.00000000000E+00 -0.00000000000E+00 -0.18747222040E+04  0.18747222040E+04  0.00000000000E+00 0. -1.
         23    2    1    2    0    0  0.49537538073E+03  0.38064810778E+03 -0.16192128169E+04  0.17382456172E+04  0.96736391137E+02 0.  0.
         11    1    3    3    0    0  0.98197469056E+02  0.12845033416E+03 -0.41810224353E+03  0.44827638497E+03  0.00000000000E+00 0. -1.
        -11    1    3    3    0    0  0.39717791168E+03  0.25219777362E+03 -0.12011105734E+04  0.12899692322E+04  0.00000000000E+00 0.  1.
         22    1    1    2    0    0 -0.49537538073E+03 -0.38064810778E+03  0.30184338450E+03  0.69382935838E+03  0.00000000000E+00 0.  1.
<mgrwt>
<rscale>  0 0.20443890E+04</rscale>
<asrwt>0</asrwt>
<pdfrwt beam="1">  1        1 0.28841880E+00 0.20443890E+04</pdfrwt>
<pdfrwt beam="2">  1       -1 0.85746579E-01 0.20443890E+04</pdfrwt>
<totfact> 0.44988013E+00</totfact>
</mgrwt>
</event>
<event>
 6    1  0.1585031E-006  0.1425309E+04  0.7818608E-02  0.8935700E-01
          2   -1    0    0  501    0  0.00000000000E+00  0.00000000000E+00  0.39169132040E+04  0.39169132040E+04  0.00000000000E+00 0. -1.
         -2   -1    0    0    0  501 -0.00000000000E+00 -0.00000000000E+00 -0.12966240300E+03  0.12966240300E+03  0.00000000000E+00 0.  1.
         23    2    1    2    0    0  0.29661930477E+00 -0.62073261540E+03  0.92504659820E+03  0.11178349277E+04  0.92383164183E+02 0.  0.
         11    1    3    3    0    0  0.28955389915E+02 -0.76804145833E+02  0.10288744307E+03  0.13161731407E+03  0.00000000000E+00 0. -1.
        -11    1    3    3    0    0 -0.28658770610E+02 -0.54392846957E+03  0.82215915513E+03  0.98621761366E+03  0.00000000000E+00 0.  1.
         22    1    1    2    0    0 -0.29661930477E+00  0.62073261540E+03  0.28622042028E+04  0.29287406792E+04  0.00000000000E+00 0. -1.
<mgrwt>
<rscale>  0 0.14253089E+04</rscale>
<asrwt>0</asrwt>
<pdfrwt beam="1">  1        2 0.60260194E+00 0.14253089E+04</pdfrwt>
<pdfrwt beam="2">  1       -2 0.19948065E-01 0.14253089E+04</pdfrwt>
<totfact> 0.85278211E+00</totfact>
</mgrwt>
</event>
<event>
 6    1  0.1912497E-006  0.2083325E+04  0.7818608E-02  0.8568625E-01
          2   -1    0    0  501    0  0.00000000000E+00  0.00000000000E+00  0.78782618960E+03  0.78782618960E+03  0.00000000000E+00 0. -1.
         -2   -1    0    0    0  501 -0.00000000000E+00 -0.00000000000E+00 -0.13772840737E+04  0.13772840737E+04  0.00000000000E+00 0.  1.
         23    2    1    2    0    0 -0.16588022246E+03  0.50091971804E+02 -0.13606479528E+04  0.13746929203E+04  0.91609606091E+02 0.  0.
         11    1    3    3    0    0 -0.86780519388E+02  0.72726797050E+02 -0.73881867401E+03  0.74744436490E+03  0.00000000000E+00 0. -1.
        -11    1    3    3    0    0 -0.79099703076E+02 -0.22634825246E+02 -0.62182927879E+03  0.62724855544E+03  0.00000000000E+00 0.  1.
         22    1    1    2    0    0  0.16588022246E+03 -0.50091971804E+02  0.77119006875E+03  0.79041734292E+03  0.00000000000E+00 0. -1.
<mgrwt>
<rscale>  0 0.20833247E+04</rscale>
<asrwt>0</asrwt>
<pdfrwt beam="1">  1        2 0.12120403E+00 0.20833247E+04</pdfrwt>
<pdfrwt beam="2">  1       -2 0.21188986E+00 0.20833247E+04</pdfrwt>
<totfact> 0.36105222E+00</totfact>
</mgrwt>
</event>
<event>
 6    1  0.1585031E-006  0.2226985E+04  0.7818608E-02  0.8507280E-01
          2   -1    0    0  501    0  0.00000000000E+00  0.00000000000E+00  0.14576198140E+04  0.14576198140E+04  0.00000000000E+00 0. -1.
         -2   -1    0    0    0  501 -0.00000000000E+00 -0.00000000000E+00 -0.85060981719E+03  0.85060981719E+03  0.00000000000E+00 0.  1.
         23    2    1    2    0    0  0.40819403175E+03  0.66722189723E+03  0.11227205918E+04  0.13713385780E+04  0.90887515429E+02 0.  0.
         13    1    3    3    0    0  0.28830084781E+03  0.52876420617E+03  0.90109627263E+03  0.10838281493E+04  0.00000000000E+00 0. -1.
        -13    1    3    3    0    0  0.11989318394E+03  0.13845769106E+03  0.22162431921E+03  0.28751042874E+03  0.00000000000E+00 0.  1.
         22    1    1    2    0    0 -0.40819403175E+03 -0.66722189723E+03 -0.51571059504E+03  0.93689105319E+03  0.00000000000E+00 0.  1.
<mgrwt>
<rscale>  0 0.22269852E+04</rscale>
<asrwt>0</asrwt>
<pdfrwt beam="1">  1        2 0.22424920E+00 0.22269852E+04</pdfrwt>
<pdfrwt beam="2">  1       -2 0.13086305E+00 0.22269852E+04</pdfrwt>
<totfact> 0.52263182E+00</totfact>
</mgrwt>
</event>
<event>
 6    1  0.1585031E-006  0.2958307E+04  0.7818608E-02  0.8255738E-01
         -2   -1    0    0    0  501 -0.00000000000E+00  0.00000000000E+00  0.16318363377E+04  0.16318363377E+04  0.00000000000E+00 0.  1.
          2   -1    0    0  501    0  0.00000000000E+00 -0.00000000000E+00 -0.13407561066E+04  0.13407561066E+04  0.00000000000E+00 0. -1.
         23    2    1    2    0    0 -0.55732752087E+03 -0.47858308401E+03  0.14340005497E+04  0.16139451066E+04  0.93837607555E+02 0.  0.
         13    1    3    3    0    0 -0.31387339170E+03 -0.22579447276E+03  0.67928939847E+03  0.78162250276E+03  0.00000000000E+00 0.  1.
        -13    1    3    3    0    0 -0.24345412918E+03 -0.25278861125E+03  0.75471115125E+03  0.83232260380E+03  0.00000000000E+00 0. -1.
         22    1    1    2    0    0  0.55732752087E+03  0.47858308401E+03 -0.11429203186E+04  0.13586473378E+04  0.00000000000E+00 0. -1.
<mgrwt>
<rscale>  0 0.29583066E+04</rscale>
<asrwt>0</asrwt>
<pdfrwt beam="1">  1        2 0.20627017E+00 0.29583066E+04</pdfrwt>
<pdfrwt beam="2">  1       -2 0.25105174E+00 0.29583066E+04</pdfrwt>
<totfact> 0.85126122E-01</totfact>
</mgrwt>
</event>
<event>
 6    1  0.1585031E-006  0.1516487E+04  0.7818608E-02  0.8873563E-01
          2   -1    0    0  501    0  0.00000000000E+00  0.00000000000E+00  0.18474765357E+04  0.18474765357E+04  0.00000000000E+00 0. -1.
         -2   -1    0    0    0  501 -0.00000000000E+00 -0.00000000000E+00 -0.31119904607E+03  0.31119904607E+03  0.00000000000E+00 0.  1.
         23    2    1    2    0    0  0.57883570727E+03 -0.20006161008E+03  0.14071476401E+03  0.63464449778E+03  0.88868272784E+02 0.  0.
         11    1    3    3    0    0  0.19316662675E+03 -0.24193313380E+02  0.53442845362E+02  0.20187818065E+03  0.00000000000E+00 0.  1.
        -11    1    3    3    0    0  0.38566908053E+03 -0.17586829670E+03  0.87271918649E+02  0.43276631713E+03  0.00000000000E+00 0. -1.
         22    1    1    2    0    0 -0.57883570727E+03  0.20006161008E+03  0.13955627256E+04  0.15240310840E+04  0.00000000000E+00 0. -1.
<mgrwt>
<rscale>  0 0.15164866E+04</rscale>
<asrwt>0</asrwt>
<pdfrwt beam="1">  1        2 0.28422715E+00 0.15164866E+04</pdfrwt>
<pdfrwt beam="2">  1       -2 0.47876777E-01 0.15164866E+04</pdfrwt>
<totfact> 0.32393608E+01</totfact>
</mgrwt>
</event>
<event>
 6    1  0.1585031E-006  0.1710331E+04  0.7818608E-02  0.8755494E-01
         -2   -1    0    0    0  501 -0.00000000000E+00  0.00000000000E+00  0.75428532663E+03  0.75428532663E+03  0.00000000000E+00 0.  1.
          2   -1    0    0  501    0  0.00000000000E+00 -0.00000000000E+00 -0.96953750517E+03  0.96953750517E+03  0.00000000000E+00 0. -1.
         23    2    1    2    0    0 -0.26098926343E+03  0.77951055376E+03  0.12025115698E+03  0.83595201507E+03  0.92754146547E+02 0.  0.
         13    1    3    3    0    0 -0.20726916530E+03  0.50835864128E+03  0.53538761237E+02  0.55159352244E+03  0.00000000000E+00 0. -1.
        -13    1    3    3    0    0 -0.53720098133E+02  0.27115191248E+03  0.66712395744E+02  0.28435849263E+03  0.00000000000E+00 0.  1.
         22    1    1    2    0    0  0.26098926343E+03 -0.77951055376E+03 -0.33550333552E+03  0.88787081672E+03  0.00000000000E+00 0.  1.
<mgrwt>
<rscale>  0 0.17103309E+04</rscale>
<asrwt>0</asrwt>
<pdfrwt beam="1">  1        2 0.14915962E+00 0.17103309E+04</pdfrwt>
<pdfrwt beam="2">  1       -2 0.11604390E+00 0.17103309E+04</pdfrwt>
<totfact> 0.14456276E+01</totfact>
</mgrwt>
</event>
<event>
 6    1  0.1585031E-006  0.2128170E+04  0.7818608E-02  0.8548935E-01
          2   -1    0    0  501    0  0.00000000000E+00  0.00000000000E+00  0.50002280472E+03  0.50002280472E+03  0.00000000000E+00 0. -1.
         -2   -1    0    0    0  501 -0.00000000000E+00 -0.00000000000E+00 -0.22644494379E+04  0.22644494379E+04  0.00000000000E+00 0.  1.
         23    2    1    2    0    0 -0.40757025220E+03 -0.34777669313E+03  0.30759354499E+03  0.62430174532E+03  0.89870693362E+02 0.  0.
         11    1    3    3    0    0 -0.17720953633E+03 -0.12222999297E+03  0.79964122026E+02  0.22964679784E+03  0.00000000000E+00 0.  1.
        -11    1    3    3    0    0 -0.23036071588E+03 -0.22554670016E+03  0.22762942296E+03  0.39465494748E+03  0.00000000000E+00 0. -1.
         22    1    1    2    0    0  0.40757025220E+03  0.34777669313E+03 -0.20720201781E+04  0.21401704973E+04  0.00000000000E+00 0.  1.
<mgrwt>
<rscale>  0 0.21281695E+04</rscale>
<asrwt>0</asrwt>
<pdfrwt beam="1">  1        2 0.76926585E-01 0.21281695E+04</pdfrwt>
<pdfrwt beam="2">  1       -2 0.34837684E+00 0.21281695E+04</pdfrwt>
<totfact> 0.90337576E-01</totfact>
</mgrwt>
</event>
<event>
 6    1  0.1585031E-006  0.3205211E+04  0.7818608E-02  0.8187442E-01
          2   -1    0    0  501    0  0.00000000000E+00  0.00000000000E+00  0.31885155836E+04  0.31885155836E+04  0.00000000000E+00 0. -1.
         -2   -1    0    0    0  501 -0.00000000000E+00 -0.00000000000E+00 -0.80549834666E+03  0.80549834666E+03  0.00000000000E+00 0.  1.
         23    2    1    2    0    0 -0.12606414029E+04  0.97799293622E+03  0.13620495374E+04  0.20997958928E+04  0.90977574177E+02 0.  0.
         13    1    3    3    0    0 -0.86374044057E+03  0.72064675720E+03  0.94392864126E+03  0.14684619767E+04  0.00000000000E+00 0.  1.
        -13    1    3    3    0    0 -0.39690096232E+03  0.25734617902E+03  0.41812089612E+03  0.63133391602E+03  0.00000000000E+00 0. -1.
         22    1    1    2    0    0  0.12606414029E+04 -0.97799293622E+03  0.10209676995E+04  0.18942180375E+04  0.00000000000E+00 0.  1.
<mgrwt>
<rscale>  0 0.32052108E+04</rscale>
<asrwt>0</asrwt>
<pdfrwt beam="1">  1        2 0.49054085E+00 0.32052108E+04</pdfrwt>
<pdfrwt beam="2">  1       -2 0.12392282E+00 0.32052108E+04</pdfrwt>
<totfact> 0.54363533E-01</totfact>
</mgrwt>
</event>
<event>
 6    1  0.1585031E-006  0.2320883E+04  0.7818608E-02  0.8469732E-01
         -2   -1    0    0    0  501 -0.00000000000E+00  0.00000000000E+00  0.15942419798E+04  0.15942419798E+04  0.00000000000E+00 0.  1.
          2   -1    0    0  501    0  0.00000000000E+00 -0.00000000000E+00 -0.84468036229E+03  0.84468036229E+03  0.00000000000E+00 0. -1.
         23    2    1    2    0    0 -0.51765768619E+03  0.10364314198E+04  0.34624439846E+03  0.12122095202E+04  0.86064913559E+02 0.  0.
         13    1    3    3    0    0 -0.37987038419E+03  0.82920233253E+03  0.25366788469E+03  0.94669182567E+03  0.00000000000E+00 0. -1.
        -13    1    3    3    0    0 -0.13778730200E+03  0.20722908730E+03  0.92576513767E+02  0.26551769455E+03  0.00000000000E+00 0.  1.
         22    1    1    2    0    0  0.51765768619E+03 -0.10364314198E+04  0.40331721901E+03  0.12267128218E+04  0.00000000000E+00 0. -1.
<mgrwt>
<rscale>  0 0.23208834E+04</rscale>
<asrwt>0</asrwt>
<pdfrwt beam="1">  1        2 0.12995083E+00 0.23208834E+04</pdfrwt>
<pdfrwt beam="2">  1       -2 0.24526800E+00 0.23208834E+04</pdfrwt>
<totfact> 0.19907686E+00</totfact>
</mgrwt>
</event>
<event>
 6    1  0.1585031E-006  0.2233615E+04  0.7818608E-02  0.8504566E-01
          2   -1    0    0  501    0  0.00000000000E+00  0.00000000000E+00  0.21194612513E+04  0.21194612513E+04  0.00000000000E+00 0. -1.
         -2   -1    0    0    0  501 -0.00000000000E+00 -0.00000000000E+00 -0.58847925346E+03  0.58847925346E+03  0.00000000000E+00 0.  1.
         23    2    1    2    0    0  0.64717463211E+03 -0.21190610169E+03 -0.30346607393E+03  0.75117303559E+03  0.91815418030E+02 0.  0.
         11    1    3    3    0    0  0.26291807151E+03 -0.41734598775E+02 -0.10142144703E+03  0.28487540957E+03  0.00000000000E+00 0. -1.
        -11    1    3    3    0    0  0.38425656060E+03 -0.17017150292E+03 -0.20204462690E+03  0.46629762602E+03  0.00000000000E+00 0.  1.
         22    1    1    2    0    0 -0.64717463211E+03  0.21190610169E+03  0.18344480717E+04  0.19567674691E+04  0.00000000000E+00 0. -1.
<mgrwt>
<rscale>  0 0.22336150E+04</rscale>
<asrwt>0</asrwt>
<pdfrwt beam="1">  1        2 0.32607096E+00 0.22336150E+04</pdfrwt>
<pdfrwt beam="2">  1       -2 0.90535271E-01 0.22336150E+04</pdfrwt>
<totfact> 0.54443400E+00</totfact>
</mgrwt>
</event>
<event>
 6    1  0.1585031E-006  0.1998826E+04  0.7818608E-02  0.8607170E-01
         -1   -1    0    0    0  501 -0.00000000000E+00  0.00000000000E+00  0.60877412369E+03  0.60877412369E+03  0.00000000000E+00 0.  1.
          1   -1    0    0  501    0  0.00000000000E+00 -0.00000000000E+00 -0.16407170493E+04  0.16407170493E+04  0.00000000000E+00 0. -1.
         23    2    1    2    0    0 -0.45455861822E+03  0.13167955110E+03  0.47071537065E+03  0.67407218210E+03  0.94006940886E+02 0.  0.
         13    1    3    3    0    0 -0.40482978973E+03  0.94991977414E+02  0.37385037665E+03  0.55917326344E+03  0.00000000000E+00 0. -1.
        -13    1    3    3    0    0 -0.49728828495E+02  0.36687573687E+02  0.96864994000E+02  0.11489891866E+03  0.00000000000E+00 0.  1.
         22    1    1    2    0    0  0.45455861822E+03 -0.13167955110E+03 -0.15026582963E+04  0.15754189909E+04  0.00000000000E+00 0. -1.
<mgrwt>
<rscale>  0 0.19988257E+04</rscale>
<asrwt>0</asrwt>
<pdfrwt beam="1">  1        1 0.25241801E+00 0.19988257E+04</pdfrwt>
<pdfrwt beam="2">  1       -1 0.93657558E-01 0.19988257E+04</pdfrwt>
<totfact> 0.53660367E+00</totfact>
</mgrwt>
</event>
<event>
 6    1  0.1585031E-006  0.5938861E+04  0.7818608E-02  0.7698029E-01
         -1   -1    0    0    0  501 -0.00000000000E+00  0.00000000000E+00  0.22268453042E+04  0.22268453042E+04  0.00000000000E+00 0.  1.
          1   -1    0    0  501    0  0.00000000000E+00 -0.00000000000E+00 -0.39596457178E+04  0.39596457178E+04  0.00000000000E+00 0. -1.
         23    2    1    2    0    0  0.17281637284E+04 -0.18041313886E+04 -0.25372253754E+04  0.35618882980E+04  0.89976121311E+02 0.  0.
         13    1    3    3    0    0  0.33933739692E+03 -0.40623812944E+03 -0.52648546876E+03  0.74656964549E+03  0.00000000000E+00 0.  1.
        -13    1    3    3    0    0  0.13888263315E+04 -0.13978932592E+04 -0.20107399067E+04  0.28153186526E+04  0.00000000000E+00 0. -1.
         22    1    1    2    0    0 -0.17281637284E+04  0.18041313886E+04  0.80442496178E+03  0.26246027240E+04  0.00000000000E+00 0.  1.
<mgrwt>
<rscale>  0 0.59388613E+04</rscale>
<asrwt>0</asrwt>
<pdfrwt beam="1">  1        1 0.60917625E+00 0.59388613E+04</pdfrwt>
<pdfrwt beam="2">  1       -1 0.34259159E+00 0.59388613E+04</pdfrwt>
<totfact> 0.12110478E-03</totfact>
</mgrwt>
</event>
<event>
 6    1  0.1585031E-006  0.6168578E+04  0.7818608E-02  0.7669845E-01
         -2   -1    0    0    0  501 -0.00000000000E+00  0.00000000000E+00  0.27720972571E+04  0.27720972571E+04  0.00000000000E+00 0.  1.
          2   -1    0    0  501    0  0.00000000000E+00 -0.00000000000E+00 -0.34316395480E+04  0.34316395480E+04  0.00000000000E+00 0. -1.
         23    2    1    2    0    0  0.18280329634E+04 -0.80452100156E+03  0.20330076395E+04  0.28513072853E+04  0.88739030898E+02 0.  0.
         13    1    3    3    0    0  0.17514673985E+03 -0.78901027000E+02  0.23445707115E+03  0.30310372936E+03  0.00000000000E+00 0. -1.
        -13    1    3    3    0    0  0.16528862236E+04 -0.72561997456E+03  0.17985505684E+04  0.25482035559E+04  0.00000000000E+00 0.  1.
         22    1    1    2    0    0 -0.18280329634E+04  0.80452100156E+03 -0.26925499304E+04  0.33524295198E+04  0.00000000000E+00 0. -1.
<mgrwt>
<rscale>  0 0.61685780E+04</rscale>
<asrwt>0</asrwt>
<pdfrwt beam="1">  1        2 0.52794454E+00 0.61685780E+04</pdfrwt>
<pdfrwt beam="2">  1       -2 0.42647650E+00 0.61685780E+04</pdfrwt>
<totfact> 0.29970327E-03</totfact>
</mgrwt>
</event>
<event>
 6    1  0.1585031E-006  0.1518343E+04  0.7818608E-02  0.8872346E-01
          1   -1    0    0  501    0  0.00000000000E+00  0.00000000000E+00  0.51355770261E+03  0.51355770261E+03  0.00000000000E+00 0. -1.
         -1   -1    0    0    0  501 -0.00000000000E+00 -0.00000000000E+00 -0.11222527557E+04  0.11222527557E+04  0.00000000000E+00 0.  1.
         23    2    1    2    0    0 -0.46211935152E+03  0.57129810691E+03 -0.49868919962E+03  0.89281845981E+03  0.92184935627E+02 0.  0.
         11    1    3    3    0    0 -0.24147448011E+03  0.23948449675E+03 -0.26236875866E+03  0.42953476489E+03  0.00000000000E+00 0. -1.
        -11    1    3    3    0    0 -0.22064487141E+03  0.33181361016E+03 -0.23632044096E+03  0.46328369493E+03  0.00000000000E+00 0.  1.
         22    1    1    2    0    0  0.46211935152E+03 -0.57129810691E+03 -0.11000585345E+03  0.74299199848E+03  0.00000000000E+00 0.  1.
<mgrwt>
<rscale>  0 0.15183432E+04</rscale>
<asrwt>0</asrwt>
<pdfrwt beam="1">  1        1 0.79008878E-01 0.15183432E+04</pdfrwt>
<pdfrwt beam="2">  1       -1 0.17265427E+00 0.15183432E+04</pdfrwt>
<totfact> 0.97045433E+00</totfact>
</mgrwt>
</event>
<event>
 6    1  0.1585031E-006  0.1415335E+04  0.7818608E-02  0.8942793E-01
          2   -1    0    0  501    0  0.00000000000E+00  0.00000000000E+00  0.96126852019E+03  0.96126852019E+03  0.00000000000E+00 0. -1.
         -2   -1    0    0    0  501 -0.00000000000E+00 -0.00000000000E+00 -0.52097102015E+03  0.52097102015E+03  0.00000000000E+00 0.  1.
         23    2    1    2    0    0  0.49456478685E+03 -0.37404249385E+03 -0.12984788777E+03  0.63988101879E+03  0.89917343445E+02 0.  0.
         11    1    3    3    0    0  0.39197355250E+03 -0.32156727217E+03 -0.75916302679E+02  0.51265198859E+03  0.00000000000E+00 0. -1.
        -11    1    3    3    0    0  0.10259123435E+03 -0.52475221676E+02 -0.53931585088E+02  0.12722903020E+03  0.00000000000E+00 0.  1.
         22    1    1    2    0    0 -0.49456478685E+03  0.37404249385E+03  0.57014538780E+03  0.84235852155E+03  0.00000000000E+00 0. -1.
<mgrwt>
<rscale>  0 0.14153346E+04</rscale>
<asrwt>0</asrwt>
<pdfrwt beam="1">  1        2 0.14788746E+00 0.14153346E+04</pdfrwt>
<pdfrwt beam="2">  1       -2 0.80149388E-01 0.14153346E+04</pdfrwt>
<totfact> 0.35729680E+01</totfact>
</mgrwt>
</event>
<event>
 6    1  0.1585031E-006  0.1001180E+04  0.7818608E-02  0.9307251E-01
         -1   -1    0    0    0  501 -0.00000000000E+00  0.00000000000E+00  0.40091483812E+03  0.40091483812E+03  0.00000000000E+00 0.  1.
          1   -1    0    0  501    0  0.00000000000E+00 -0.00000000000E+00 -0.62504679297E+03  0.62504679297E+03  0.00000000000E+00 0. -1.
         23    2    1    2    0    0  0.44832838788E+03 -0.19502973550E+02  0.10474989525E+03  0.46959666034E+03  0.90386799323E+02 0.  0.
         13    1    3    3    0    0  0.30000621433E+03 -0.19302688788E+02  0.11271091724E+03  0.32106085606E+03  0.00000000000E+00 0.  1.
        -13    1    3    3    0    0  0.14832217356E+03 -0.20028476142E+00 -0.79610219945E+01  0.14853580428E+03  0.00000000000E+00 0. -1.
         22    1    1    2    0    0 -0.44832838788E+03  0.19502973550E+02 -0.32888185009E+03  0.55636497075E+03  0.00000000000E+00 0.  1.
<mgrwt>
<rscale>  0 0.10011804E+04</rscale>
<asrwt>0</asrwt>
<pdfrwt beam="1">  1        1 0.96161045E-01 0.10011804E+04</pdfrwt>
<pdfrwt beam="2">  1       -1 0.61679206E-01 0.10011804E+04</pdfrwt>
<totfact> 0.86264525E+01</totfact>
</mgrwt>
</event>
<event>
 6    1  0.1585031E-006  0.3803811E+04  0.7818608E-02  0.8045338E-01
         -2   -1    0    0    0  501 -0.00000000000E+00  0.00000000000E+00  0.18565648366E+04  0.18565648366E+04  0.00000000000E+00 0.  1.
          2   -1    0    0  501    0  0.00000000000E+00 -0.00000000000E+00 -0.19483533802E+04  0.19483533802E+04  0.00000000000E+00 0. -1.
         23    2    1    2    0    0  0.12862704427E+04 -0.63512425547E+03  0.12015952924E+04  0.18734120121E+04  0.89257204707E+02 0.  0.
         13    1    3    3    0    0  0.65341450247E+03 -0.27289960770E+03  0.59000019104E+03  0.92169676865E+03  0.00000000000E+00 0.  1.
        -13    1    3    3    0    0  0.63285594020E+03 -0.36222464777E+03  0.61159510138E+03  0.95171524341E+03  0.00000000000E+00 0. -1.
         22    1    1    2    0    0 -0.12862704427E+04  0.63512425547E+03 -0.12933838361E+04  0.19315062047E+04  0.00000000000E+00 0. -1.
<mgrwt>
<rscale>  0 0.38038109E+04</rscale>
<asrwt>0</asrwt>
<pdfrwt beam="1">  1        2 0.29974668E+00 0.38038109E+04</pdfrwt>
<pdfrwt beam="2">  1       -2 0.28562536E+00 0.38038109E+04</pdfrwt>
<totfact> 0.22264648E-01</totfact>
</mgrwt>
</event>
<event>
 6    1  0.1585031E-006  0.2957690E+04  0.7818608E-02  0.8255917E-01
         -2   -1    0    0    0  501 -0.00000000000E+00  0.00000000000E+00  0.97982127437E+03  0.97982127437E+03  0.00000000000E+00 0.  1.
          2   -1    0    0  501    0  0.00000000000E+00 -0.00000000000E+00 -0.22320225811E+04  0.22320225811E+04  0.00000000000E+00 0. -1.
         23    2    1    2    0    0  0.11221391478E+04  0.10690035288E+03 -0.16638413065E+04  0.20118140883E+04  0.91673770389E+02 0.  0.
         11    1    3    3    0    0  0.15277815682E+03  0.45049201265E+02 -0.25159643777E+03  0.29777737193E+03  0.00000000000E+00 0. -1.
        -11    1    3    3    0    0  0.96936099101E+03  0.61851151619E+02 -0.14122448688E+04  0.17140367164E+04  0.00000000000E+00 0.  1.
         22    1    1    2    0    0 -0.11221391478E+04 -0.10690035288E+03  0.41163999981E+03  0.12000297671E+04  0.00000000000E+00 0.  1.
<mgrwt>
<rscale>  0 0.29576905E+04</rscale>
<asrwt>0</asrwt>
<pdfrwt beam="1">  1        2 0.34338809E+00 0.29576905E+04</pdfrwt>
<pdfrwt beam="2">  1       -2 0.15074173E+00 0.29576905E+04</pdfrwt>
<totfact> 0.12582593E+00</totfact>
</mgrwt>
</event>
<event>
 6    1  0.1585031E-006  0.4648820E+04  0.7818608E-02  0.7885088E-01
         -1   -1    0    0    0  501 -0.00000000000E+00  0.00000000000E+00  0.46941458986E+04  0.46941458986E+04  0.00000000000E+00 0.  1.
          1   -1    0    0  501    0  0.00000000000E+00 -0.00000000000E+00 -0.11509831422E+04  0.11509831422E+04  0.00000000000E+00 0. -1.
         23    2    1    2    0    0 -0.11814870144E+03 -0.19371825955E+04  0.16594841753E+03  0.19499766414E+04  0.90744148177E+02 0.  0.
         13    1    3    3    0    0 -0.97018379668E+02 -0.13703120570E+04  0.78204332219E+02  0.13759664302E+04  0.00000000000E+00 0. -1.
        -13    1    3    3    0    0 -0.21130321777E+02 -0.56687053858E+03  0.87744085312E+02  0.57401021116E+03  0.00000000000E+00 0.  1.
         22    1    1    2    0    0  0.11814870144E+03  0.19371825955E+04  0.33772143389E+04  0.38951523995E+04  0.00000000000E+00 0. -1.
<mgrwt>
<rscale>  0 0.46488204E+04</rscale>
<asrwt>0</asrwt>
<pdfrwt beam="1">  1        1 0.17707433E+00 0.46488204E+04</pdfrwt>
<pdfrwt beam="2">  1       -1 0.72217628E+00 0.46488204E+04</pdfrwt>
<totfact> 0.14396357E-03</totfact>
</mgrwt>
</event>
<event>
 6    1  0.1585031E-006  0.2752438E+04  0.7818608E-02  0.8318188E-01
         -2   -1    0    0    0  501 -0.00000000000E+00  0.00000000000E+00  0.19484896944E+04  0.19484896944E+04  0.00000000000E+00 0.  1.
          2   -1    0    0  501    0  0.00000000000E+00 -0.00000000000E+00 -0.97202412872E+03  0.97202412872E+03  0.00000000000E+00 0. -1.
         23    2    1    2    0    0  0.90304956974E+02 -0.74861735598E+03  0.17084061260E+04  0.18696475544E+04  0.91364957573E+02 0.  0.
         13    1    3    3    0    0 -0.70288913667E+01 -0.20903239587E+03  0.53624709388E+03  0.57559090814E+03  0.00000000000E+00 0. -1.
        -13    1    3    3    0    0  0.97333848341E+02 -0.53958496011E+03  0.11721590321E+04  0.12940566463E+04  0.00000000000E+00 0.  1.
         22    1    1    2    0    0 -0.90304956974E+02  0.74861735598E+03 -0.73194056030E+03  0.10508662687E+04  0.00000000000E+00 0. -1.
<mgrwt>
<rscale>  0 0.27524382E+04</rscale>
<asrwt>0</asrwt>
<pdfrwt beam="1">  1        2 0.14954217E+00 0.27524382E+04</pdfrwt>
<pdfrwt beam="2">  1       -2 0.29976764E+00 0.27524382E+04</pdfrwt>
<totfact> 0.73154386E-01</totfact>
</mgrwt>
</event>
<event>
 6    1  0.1585031E-006  0.2682690E+04  0.7818608E-02  0.8340643E-01
         -1   -1    0    0    0  501 -0.00000000000E+00  0.00000000000E+00  0.12642841283E+04  0.12642841283E+04  0.00000000000E+00 0.  1.
          1   -1    0    0  501    0  0.00000000000E+00 -0.00000000000E+00 -0.14231029890E+04  0.14231029890E+04  0.00000000000E+00 0. -1.
         23    2    1    2    0    0  0.71543479289E+03 -0.70956868323E+03  0.80509398727E+03  0.12929472162E+04  0.90562224881E+02 0.  0.
         13    1    3    3    0    0  0.97008665814E+02 -0.56408619555E+02  0.89024200891E+02  0.14324078311E+03  0.00000000000E+00 0. -1.
        -13    1    3    3    0    0  0.61842612707E+03 -0.65316006367E+03  0.71606978638E+03  0.11497064331E+04  0.00000000000E+00 0.  1.
         22    1    1    2    0    0 -0.71543479289E+03  0.70956868323E+03 -0.96391284800E+03  0.13944399010E+04  0.00000000000E+00 0. -1.
<mgrwt>
<rscale>  0 0.26826901E+04</rscale>
<asrwt>0</asrwt>
<pdfrwt beam="1">  1        1 0.21893892E+00 0.26826901E+04</pdfrwt>
<pdfrwt beam="2">  1       -1 0.19450525E+00 0.26826901E+04</pdfrwt>
<totfact> 0.10635220E+00</totfact>
</mgrwt>
</event>
<event>
 6    1  0.1585031E-006  0.3401910E+04  0.7818608E-02  0.8137438E-01
         -2   -1    0    0    0  501 -0.00000000000E+00  0.00000000000E+00  0.10457975212E+04  0.10457975212E+04  0.00000000000E+00 0.  1.
          2   -1    0    0  501    0  0.00000000000E+00 -0.00000000000E+00 -0.27665476879E+04  0.27665476879E+04  0.00000000000E+00 0. -1.
         23    2    1    2    0    0  0.15901304027E+04 -0.31634814253E+02 -0.15322951378E+04  0.22107738690E+04  0.10038551489E+03 0.  0.
         11    1    3    3    0    0  0.44725409038E+03 -0.17066133273E+02 -0.49409094561E+03  0.66667333590E+03  0.00000000000E+00 0. -1.
        -11    1    3    3    0    0  0.11428763124E+04 -0.14568680980E+02 -0.10382041921E+04  0.15441005331E+04  0.00000000000E+00 0.  1.
         22    1    1    2    0    0 -0.15901304027E+04  0.31634814253E+02 -0.18845502895E+03  0.16015713400E+04  0.00000000000E+00 0. -1.
<mgrwt>
<rscale>  0 0.34019105E+04</rscale>
<asrwt>0</asrwt>
<pdfrwt beam="1">  1        2 0.42562272E+00 0.34019105E+04</pdfrwt>
<pdfrwt beam="2">  1       -2 0.16089193E+00 0.34019105E+04</pdfrwt>
<totfact> 0.49763393E-01</totfact>
</mgrwt>
</event>
<event>
 6    1  0.1585031E-006  0.2505643E+04  0.7818608E-02  0.8400978E-01
          3   -1    0    0  501    0  0.00000000000E+00  0.00000000000E+00  0.13184133175E+04  0.13184133175E+04  0.00000000000E+00 0. -1.
         -3   -1    0    0    0  501 -0.00000000000E+00 -0.00000000000E+00 -0.11904928281E+04  0.11904928281E+04  0.00000000000E+00 0.  1.
         23    2    1    2    0    0  0.39377171813E+03  0.18271480584E+03  0.12385719797E+04  0.13164349305E+04  0.10246712204E+03 0.  0.
         11    1    3    3    0    0  0.30001204249E+03  0.10982469567E+03  0.10024619943E+04  0.10521400760E+04  0.00000000000E+00 0.  1.
        -11    1    3    3    0    0  0.93759675641E+02  0.72890110166E+02  0.23610998534E+03  0.26429485449E+03  0.00000000000E+00 0. -1.
         22    1    1    2    0    0 -0.39377171813E+03 -0.18271480584E+03 -0.11106514903E+04  0.11924712152E+04  0.00000000000E+00 0.  1.
<mgrwt>
<rscale>  0 0.25056429E+04</rscale>
<asrwt>0</asrwt>
<pdfrwt beam="1">  1        3 0.20283282E+00 0.25056429E+04</pdfrwt>
<pdfrwt beam="2">  1       -3 0.18315274E+00 0.25056429E+04</pdfrwt>
<totfact> 0.61798586E-02</totfact>
</mgrwt>
</event>
<event>
 6    1  0.1585031E-006  0.2333148E+04  0.7818608E-02  0.8464965E-01
          2   -1    0    0  501    0  0.00000000000E+00  0.00000000000E+00  0.21919860077E+04  0.21919860077E+04  0.00000000000E+00 0. -1.
         -2   -1    0    0    0  501 -0.00000000000E+00 -0.00000000000E+00 -0.62085023711E+03  0.62085023711E+03  0.00000000000E+00 0.  1.
         23    2    1    2    0    0  0.10691218364E+04  0.33077310638E+03  0.11763832153E+04  0.16261341218E+04  0.89455932076E+02 0.  0.
         13    1    3    3    0    0  0.48140615484E+03  0.11109595773E+03  0.55574620841E+03  0.74360476458E+03  0.00000000000E+00 0. -1.
        -13    1    3    3    0    0  0.58771568153E+03  0.21967714864E+03  0.62063700690E+03  0.88252935718E+03  0.00000000000E+00 0.  1.
         22    1    1    2    0    0 -0.10691218364E+04 -0.33077310638E+03  0.39475255526E+03  0.11867021230E+04  0.00000000000E+00 0.  1.
<mgrwt>
<rscale>  0 0.23331481E+04</rscale>
<asrwt>0</asrwt>
<pdfrwt beam="1">  1        2 0.33722861E+00 0.23331481E+04</pdfrwt>
<pdfrwt beam="2">  1       -2 0.95515422E-01 0.23331481E+04</pdfrwt>
<totfact> 0.43410172E+00</totfact>
</mgrwt>
</event>
<event>
 6    1  0.1585031E-006  0.1685707E+04  0.7818608E-02  0.8769559E-01
         -2   -1    0    0    0  501 -0.00000000000E+00  0.00000000000E+00  0.25849040739E+03  0.25849040739E+03  0.00000000000E+00 0.  1.
          2   -1    0    0  501    0  0.00000000000E+00 -0.00000000000E+00 -0.27482714790E+04  0.27482714790E+04  0.00000000000E+00 0. -1.
         23    2    1    2    0    0  0.24837945775E+03 -0.48345529306E+01 -0.26806064679E+04  0.26935047081E+04  0.87182845801E+02 0.  0.
         11    1    3    3    0    0  0.19655557373E+03 -0.70311308837E+01 -0.16653438965E+04  0.16769179539E+04  0.00000000000E+00 0. -1.
        -11    1    3    3    0    0  0.51823884024E+02  0.21965779531E+01 -0.10152625714E+04  0.10165867541E+04  0.00000000000E+00 0.  1.
         22    1    1    2    0    0 -0.24837945775E+03  0.48345529306E+01  0.19082539627E+03  0.31325717836E+03  0.00000000000E+00 0.  1.
<mgrwt>
<rscale>  0 0.16857068E+04</rscale>
<asrwt>0</asrwt>
<pdfrwt beam="1">  1        2 0.42281100E+00 0.16857068E+04</pdfrwt>
<pdfrwt beam="2">  1       -2 0.39767755E-01 0.16857068E+04</pdfrwt>
<totfact> 0.14203310E+01</totfact>
</mgrwt>
</event>
<event>
 6    1  0.1585031E-006  0.1681750E+04  0.7818608E-02  0.8771842E-01
         -2   -1    0    0    0  501 -0.00000000000E+00  0.00000000000E+00  0.76187191149E+03  0.76187191149E+03  0.00000000000E+00 0.  1.
          2   -1    0    0  501    0  0.00000000000E+00 -0.00000000000E+00 -0.92807010647E+03  0.92807010647E+03  0.00000000000E+00 0. -1.
         23    2    1    2    0    0 -0.53504735242E+03  0.61670691161E+03 -0.27496512593E+03  0.86627137418E+03  0.90648712586E+02 0.  0.
         11    1    3    3    0    0 -0.15618733216E+03  0.12105888455E+03 -0.67289637325E+02  0.20875256058E+03  0.00000000000E+00 0. -1.
        -11    1    3    3    0    0 -0.37886002025E+03  0.49564802706E+03 -0.20767548860E+03  0.65751881360E+03  0.00000000000E+00 0.  1.
         22    1    1    2    0    0  0.53504735242E+03 -0.61670691161E+03  0.10876693095E+03  0.82367064378E+03  0.00000000000E+00 0.  1.
<mgrwt>
<rscale>  0 0.16817497E+04</rscale>
<asrwt>0</asrwt>
<pdfrwt beam="1">  1        2 0.14278002E+00 0.16817497E+04</pdfrwt>
<pdfrwt beam="2">  1       -2 0.11721106E+00 0.16817497E+04</pdfrwt>
<totfact> 0.15056561E+01</totfact>
</mgrwt>
</event>
<event>
 6    1  0.1585031E-006  0.1659058E+04  0.7818608E-02  0.8785066E-01
         -1   -1    0    0    0  501 -0.00000000000E+00  0.00000000000E+00  0.42306700440E+03  0.42306700440E+03  0.00000000000E+00 0.  1.
          1   -1    0    0  501    0  0.00000000000E+00 -0.00000000000E+00 -0.16265003175E+04  0.16265003175E+04  0.00000000000E+00 0. -1.
         23    2    1    2    0    0 -0.25811977257E+03  0.71478697419E+03 -0.20066203978E+03  0.79135570930E+03  0.91827931348E+02 0.  0.
         13    1    3    3    0    0 -0.52304122683E+02  0.20238554192E+03 -0.18316374140E+02  0.20983593208E+03  0.00000000000E+00 0.  1.
        -13    1    3    3    0    0 -0.20581564989E+03  0.51240143227E+03 -0.18234566564E+03  0.58151977723E+03  0.00000000000E+00 0. -1.
         22    1    1    2    0    0  0.25811977257E+03 -0.71478697419E+03 -0.10027712733E+04  0.12582116126E+04  0.00000000000E+00 0. -1.
<mgrwt>
<rscale>  0 0.16590583E+04</rscale>
<asrwt>0</asrwt>
<pdfrwt beam="1">  1        1 0.25023082E+00 0.16590583E+04</pdfrwt>
<pdfrwt beam="2">  1       -1 0.65087231E-01 0.16590583E+04</pdfrwt>
<totfact> 0.12227942E+01</totfact>
</mgrwt>
</event>
<event>
 6    1  0.1585031E-006  0.4181338E+04  0.7818608E-02  0.7968932E-01
          2   -1    0    0  501    0  0.00000000000E+00  0.00000000000E+00  0.41767712956E+04  0.41767712956E+04  0.00000000000E+00 0. -1.
         -2   -1    0    0    0  501 -0.00000000000E+00 -0.00000000000E+00 -0.10464772106E+04  0.10464772106E+04  0.00000000000E+00 0.  1.
         23    2    1    2    0    0  0.14729152373E+03  0.14900768946E+04 -0.25499392125E+03  0.15216003828E+04  0.90674583325E+02 0.  0.
         11    1    3    3    0    0  0.36246156340E+02  0.75530692730E+03 -0.15332644015E+03  0.77156421348E+03  0.00000000000E+00 0.  1.
        -11    1    3    3    0    0  0.11104536739E+03  0.73476996735E+03 -0.10166748110E+03  0.75003616929E+03  0.00000000000E+00 0. -1.
         22    1    1    2    0    0 -0.14729152373E+03 -0.14900768946E+04  0.33852880062E+04  0.37016481235E+04  0.00000000000E+00 0. -1.
<mgrwt>
<rscale>  0 0.41813376E+04</rscale>
<asrwt>0</asrwt>
<pdfrwt beam="1">  1        2 0.64258019E+00 0.41813376E+04</pdfrwt>
<pdfrwt beam="2">  1       -2 0.16099650E+00 0.41813376E+04</pdfrwt>
<totfact> 0.46657447E-02</totfact>
</mgrwt>
</event>
<event>
 6    1  0.1585031E-006  0.1959665E+04  0.7818608E-02  0.8625714E-01
          2   -1    0    0  501    0  0.00000000000E+00  0.00000000000E+00  0.10637495505E+04  0.10637495505E+04  0.00000000000E+00 0.  1.
         -2   -1    0    0    0  501 -0.00000000000E+00 -0.00000000000E+00 -0.90253576692E+03  0.90253576692E+03  0.00000000000E+00 0. -1.
         23    2    1    2    0    0 -0.23174737272E+03 -0.68227845849E+03 -0.58225812325E+03  0.93092971864E+03  0.91623573713E+02 0.  0.
         11    1    3    3    0    0 -0.13560720859E+03 -0.28296302302E+03 -0.21938444030E+03  0.38286671319E+03  0.00000000000E+00 0. -1.
        -11    1    3    3    0    0 -0.96140164128E+02 -0.39931543548E+03 -0.36287368295E+03  0.54806300545E+03  0.00000000000E+00 0.  1.
         22    1    1    2    0    0  0.23174737272E+03  0.68227845849E+03  0.74347190683E+03  0.10353555988E+04  0.00000000000E+00 0.  1.
<mgrwt>
<rscale>  0 0.19596653E+04</rscale>
<asrwt>0</asrwt>
<pdfrwt beam="1">  1        2 0.16365378E+00 0.19596653E+04</pdfrwt>
<pdfrwt beam="2">  1       -2 0.13885166E+00 0.19596653E+04</pdfrwt>
<totfact> 0.78483595E+00</totfact>
</mgrwt>
</event>
<event>
 6    1  0.1585031E-006  0.3632541E+04  0.7818608E-02  0.8083078E-01
         -2   -1    0    0    0  501 -0.00000000000E+00  0.00000000000E+00  0.94553208519E+03  0.94553208519E+03  0.00000000000E+00 0. -1.
          2   -1    0    0  501    0  0.00000000000E+00 -0.00000000000E+00 -0.34888699035E+04  0.34888699035E+04  0.00000000000E+00 0.  1.
         23    2    1    2    0    0  0.39583224908E+03  0.77126345339E+03 -0.32192260911E+04  0.33351497695E+04  0.90977333823E+02 0.  0.
         11    1    3    3    0    0  0.18992203678E+03  0.31878091373E+03 -0.15248336955E+04  0.15693340785E+04  0.00000000000E+00 0. -1.
        -11    1    3    3    0    0  0.20591021230E+03  0.45248253967E+03 -0.16943923957E+04  0.17658156910E+04  0.00000000000E+00 0.  1.
         22    1    1    2    0    0 -0.39583224908E+03 -0.77126345339E+03  0.67588827284E+03  0.10992522192E+04  0.00000000000E+00 0. -1.
<mgrwt>
<rscale>  0 0.36325409E+04</rscale>
<asrwt>0</asrwt>
<pdfrwt beam="1">  1        2 0.53674922E+00 0.36325409E+04</pdfrwt>
<pdfrwt beam="2">  1       -2 0.14546647E+00 0.36325409E+04</pdfrwt>
<totfact> 0.21824265E-01</totfact>
</mgrwt>
</event>
<event>
 6    1  0.1585031E-006  0.1455572E+04  0.7818608E-02  0.8914547E-01
          1   -1    0    0  501    0  0.00000000000E+00  0.00000000000E+00  0.42659600791E+03  0.42659600791E+03  0.00000000000E+00 0. -1.
         -1   -1    0    0    0  501 -0.00000000000E+00 -0.00000000000E+00 -0.12416249692E+04  0.12416249692E+04  0.00000000000E+00 0.  1.
         23    2    1    2    0    0  0.39379774794E+03 -0.95272694853E+02  0.27999561716E+03  0.50064554911E+03  0.89971481840E+02 0.  0.
         13    1    3    3    0    0  0.16020848340E+03 -0.32883012300E+02  0.61381165155E+02  0.17468742967E+03  0.00000000000E+00 0.  1.
        -13    1    3    3    0    0  0.23358926454E+03 -0.62389682553E+02  0.21861445201E+03  0.32595811943E+03  0.00000000000E+00 0. -1.
         22    1    1    2    0    0 -0.39379774794E+03  0.95272694853E+02 -0.10950245785E+04  0.11675754280E+04  0.00000000000E+00 0.  1.
<mgrwt>
<rscale>  0 0.14555717E+04</rscale>
<asrwt>0</asrwt>
<pdfrwt beam="1">  1        1 0.65630156E-01 0.14555717E+04</pdfrwt>
<pdfrwt beam="2">  1       -1 0.19101922E+00 0.14555717E+04</pdfrwt>
<totfact> 0.92853367E+00</totfact>
</mgrwt>
</event>
<event>
 6    1  0.1585031E-006  0.3557136E+04  0.7818608E-02  0.8100381E-01
         -3   -1    0    0    0  501 -0.00000000000E+00  0.00000000000E+00  0.10437225139E+04  0.10437225139E+04  0.00000000000E+00 0. -1.
          3   -1    0    0  501    0  0.00000000000E+00 -0.00000000000E+00 -0.30307908335E+04  0.30307908335E+04  0.00000000000E+00 0.  1.
         23    2    1    2    0    0  0.25259438305E+03  0.12831290495E+04 -0.23730073560E+04  0.27109983971E+04  0.90134995597E+02 0.  0.
         13    1    3    3    0    0  0.18561432976E+03  0.86739434356E+03 -0.16890894667E+04  0.19078387912E+04  0.00000000000E+00 0. -1.
        -13    1    3    3    0    0  0.66980053289E+02  0.41573470589E+03 -0.68391788923E+03  0.80315960583E+03  0.00000000000E+00 0.  1.
         22    1    1    2    0    0 -0.25259438305E+03 -0.12831290495E+04  0.38593903639E+03  0.13635149503E+04  0.00000000000E+00 0. -1.
<mgrwt>
<rscale>  0 0.35571363E+04</rscale>
<asrwt>0</asrwt>
<pdfrwt beam="1">  1        3 0.46627551E+00 0.35571363E+04</pdfrwt>
<pdfrwt beam="2">  1       -3 0.16057270E+00 0.35571363E+04</pdfrwt>
<totfact> 0.28771378E-03</totfact>
</mgrwt>
</event>
<event>
 6    1  0.1763637E-006  0.3184804E+04  0.7818608E-02  0.8192842E-01
          2   -1    0    0  501    0  0.00000000000E+00  0.00000000000E+00  0.22232160561E+04  0.22232160561E+04  0.00000000000E+00 0. -1.
         -2   -1    0    0    0  501 -0.00000000000E+00 -0.00000000000E+00 -0.11405750764E+04  0.11405750764E+04  0.00000000000E+00 0.  1.
         23    2    1    2    0    0 -0.14934958103E+04  0.45614688596E+03  0.21984718244E+03  0.15796911202E+04  0.92149523417E+02 0.  0.
         13    1    3    3    0    0 -0.11599277988E+04  0.35128326588E+03  0.13169833325E+03  0.12190885458E+04  0.00000000000E+00 0.  1.
        -13    1    3    3    0    0 -0.33356801147E+03  0.10486362008E+03  0.88148849187E+02  0.36060257446E+03  0.00000000000E+00 0. -1.
         22    1    1    2    0    0  0.14934958103E+04 -0.45614688596E+03  0.86279379730E+03  0.17841000122E+04  0.00000000000E+00 0. -1.
<mgrwt>
<rscale>  0 0.31848044E+04</rscale>
<asrwt>0</asrwt>
<pdfrwt beam="1">  1        2 0.34203324E+00 0.31848044E+04</pdfrwt>
<pdfrwt beam="2">  1       -2 0.17547309E+00 0.31848044E+04</pdfrwt>
<totfact> 0.82369465E-01</totfact>
</mgrwt>
</event>
<event>
 6    1  0.1585031E-006  0.6316034E+04  0.7818608E-02  0.7652406E-01
         -1   -1    0    0    0  501 -0.00000000000E+00  0.00000000000E+00  0.23475848944E+04  0.23475848944E+04  0.00000000000E+00 0.  1.
          1   -1    0    0  501    0  0.00000000000E+00 -0.00000000000E+00 -0.42482266903E+04  0.42482266903E+04  0.00000000000E+00 0. -1.
         23    2    1    2    0    0 -0.76377272582E+03 -0.23779197485E+04 -0.29676859252E+04  0.38798524022E+04  0.90795404395E+02 0.  0.
         11    1    3    3    0    0 -0.46117732539E+03 -0.13888515759E+04 -0.18042083838E+04  0.23230930066E+04  0.00000000000E+00 0. -1.
        -11    1    3    3    0    0 -0.30259540043E+03 -0.98906817262E+03 -0.11634775414E+04  0.15567593956E+04  0.00000000000E+00 0.  1.
         22    1    1    2    0    0  0.76377272582E+03  0.23779197485E+04  0.10670441294E+04  0.27159591825E+04  0.00000000000E+00 0.  1.
<mgrwt>
<rscale>  0 0.63160345E+04</rscale>
<asrwt>0</asrwt>
<pdfrwt beam="1">  1        1 0.65357333E+00 0.63160345E+04</pdfrwt>
<pdfrwt beam="2">  1       -1 0.36116691E+00 0.63160345E+04</pdfrwt>
<totfact> 0.48389925E-04</totfact>
</mgrwt>
</event>
<event>
 6    1  0.1585031E-006  0.5915283E+03  0.7818608E-02  0.9923140E-01
         -1   -1    0    0    0  501 -0.00000000000E+00  0.00000000000E+00  0.21258354010E+03  0.21258354010E+03  0.00000000000E+00 0.  1.
          1   -1    0    0  501    0  0.00000000000E+00 -0.00000000000E+00 -0.41149198897E+03  0.41149198897E+03  0.00000000000E+00 0. -1.
         23    2    1    2    0    0  0.28895487615E+03 -0.88486753399E+01 -0.99062419519E+02  0.31822842825E+03  0.88784852757E+02 0.  0.
         11    1    3    3    0    0  0.25778479760E+03  0.14398674400E+02 -0.64305523873E+02  0.26607428305E+03  0.00000000000E+00 0.  1.
        -11    1    3    3    0    0  0.31170078545E+02 -0.23247349739E+02 -0.34756895647E+02  0.52154145199E+02  0.00000000000E+00 0. -1.
         22    1    1    2    0    0 -0.28895487615E+03  0.88486753399E+01 -0.99846029349E+02  0.30584710082E+03  0.00000000000E+00 0. -1.
<mgrwt>
<rscale>  0 0.59152827E+03</rscale>
<asrwt>0</asrwt>
<pdfrwt beam="1">  1        1 0.63306459E-01 0.59152827E+03</pdfrwt>
<pdfrwt beam="2">  1       -1 0.32705160E-01 0.59152827E+03</pdfrwt>
<totfact> 0.51135983E+02</totfact>
</mgrwt>
</event>
<event>
 6    1  0.1585031E-006  0.1927027E+04  0.7818608E-02  0.8641519E-01
          1   -1    0    0  501    0  0.00000000000E+00  0.00000000000E+00  0.80996903624E+03  0.80996903624E+03  0.00000000000E+00 0.  1.
         -1   -1    0    0    0  501 -0.00000000000E+00 -0.00000000000E+00 -0.11461649837E+04  0.11461649837E+04  0.00000000000E+00 0. -1.
         23    2    1    2    0    0  0.21689521017E+03  0.42199393893E+03  0.68029434125E+03  0.83436090397E+03  0.90748612327E+02 0.  0.
         13    1    3    3    0    0  0.90919254145E+02  0.12630066633E+03  0.28663506872E+03  0.32615614620E+03  0.00000000000E+00 0.  1.
        -13    1    3    3    0    0  0.12597595603E+03  0.29569327260E+03  0.39365927254E+03  0.50820475776E+03  0.00000000000E+00 0. -1.
         22    1    1    2    0    0 -0.21689521017E+03 -0.42199393893E+03 -0.10164902887E+04  0.11217731160E+04  0.00000000000E+00 0. -1.
<mgrwt>
<rscale>  0 0.19270269E+04</rscale>
<asrwt>0</asrwt>
<pdfrwt beam="1">  1        1 0.12461062E+00 0.19270269E+04</pdfrwt>
<pdfrwt beam="2">  1       -1 0.17633307E+00 0.19270269E+04</pdfrwt>
<totfact> 0.44746649E+00</totfact>
</mgrwt>
</event>
<event>
 6    1  0.2316988E-006  0.3623321E+04  0.7818608E-02  0.8085170E-01
          2   -1    0    0  501    0  0.00000000000E+00  0.00000000000E+00  0.17682411244E+04  0.17682411244E+04  0.00000000000E+00 0. -1.
         -2   -1    0    0    0  501 -0.00000000000E+00 -0.00000000000E+00 -0.18561463826E+04  0.18561463826E+04  0.00000000000E+00 0.  1.
         23    2    1    2    0    0 -0.23612371021E+03 -0.11659271190E+04 -0.14092478776E+04  0.18464429715E+04  0.90728237616E+02 0.  0.
         13    1    3    3    0    0 -0.14307969896E+03 -0.73801606358E+03 -0.95649828376E+03  0.12165642101E+04  0.00000000000E+00 0. -1.
        -13    1    3    3    0    0 -0.93044011259E+02 -0.42791105542E+03 -0.45274959382E+03  0.62987876142E+03  0.00000000000E+00 0.  1.
         22    1    1    2    0    0  0.23612371021E+03  0.11659271190E+04  0.13213426194E+04  0.17779445355E+04  0.00000000000E+00 0. -1.
<mgrwt>
<rscale>  0 0.36233213E+04</rscale>
<asrwt>0</asrwt>
<pdfrwt beam="1">  1        2 0.27203710E+00 0.36233213E+04</pdfrwt>
<pdfrwt beam="2">  1       -2 0.28556098E+00 0.36233213E+04</pdfrwt>
<totfact> 0.28471345E-01</totfact>
</mgrwt>
</event>
<event>
 6    1  0.1585031E-006  0.2419860E+04  0.7818608E-02  0.8432106E-01
         -2   -1    0    0    0  501 -0.00000000000E+00  0.00000000000E+00  0.53142380297E+03  0.53142380297E+03  0.00000000000E+00 0.  1.
          2   -1    0    0  501    0  0.00000000000E+00 -0.00000000000E+00 -0.27547319402E+04  0.27547319402E+04  0.00000000000E+00 0. -1.
         23    2    1    2    0    0 -0.11420920132E+04  0.25838577707E+03 -0.70790861648E+03  0.13710648618E+04  0.86872720358E+02 0.  0.
         13    1    3    3    0    0 -0.44417917487E+03  0.14394925017E+03 -0.27771792353E+03  0.54327136043E+03  0.00000000000E+00 0. -1.
        -13    1    3    3    0    0 -0.69791283834E+03  0.11443652690E+03 -0.43019069294E+03  0.82779350137E+03  0.00000000000E+00 0.  1.
         22    1    1    2    0    0  0.11420920132E+04 -0.25838577707E+03 -0.15153995208E+04  0.19150908814E+04  0.00000000000E+00 0. -1.
<mgrwt>
<rscale>  0 0.24198596E+04</rscale>
<asrwt>0</asrwt>
<pdfrwt beam="1">  1        2 0.42380493E+00 0.24198596E+04</pdfrwt>
<pdfrwt beam="2">  1       -2 0.81757506E-01 0.24198596E+04</pdfrwt>
<totfact> 0.29098559E+00</totfact>
</mgrwt>
</event>
<event>
 6    1  0.1585031E-006  0.6646780E+04  0.7818608E-02  0.7615002E-01
         -2   -1    0    0    0  501 -0.00000000000E+00  0.00000000000E+00  0.34934875165E+04  0.34934875165E+04  0.00000000000E+00 0.  1.
          2   -1    0    0  501    0  0.00000000000E+00 -0.00000000000E+00 -0.31615745997E+04  0.31615745997E+04  0.00000000000E+00 0. -1.
         23    2    1    2    0    0  0.32112182989E+03  0.12096217478E+04 -0.29158261958E+04  0.31745286304E+04  0.96361916737E+02 0.  0.
         11    1    3    3    0    0  0.95111541061E+02  0.49531533499E+03 -0.10940772887E+04  0.12047359046E+04  0.00000000000E+00 0. -1.
        -11    1    3    3    0    0  0.22601028883E+03  0.71430641284E+03 -0.18217489071E+04  0.19697927258E+04  0.00000000000E+00 0.  1.
         22    1    1    2    0    0 -0.32112182989E+03 -0.12096217478E+04  0.32477391125E+04  0.34805334858E+04  0.00000000000E+00 0.  1.
<mgrwt>
<rscale>  0 0.66467801E+04</rscale>
<asrwt>0</asrwt>
<pdfrwt beam="1">  1        2 0.48639609E+00 0.66467801E+04</pdfrwt>
<pdfrwt beam="2">  1       -2 0.53745962E+00 0.66467801E+04</pdfrwt>
<totfact> 0.89280018E-04</totfact>
</mgrwt>
</event>
<event>
 6    1  0.1585031E-006  0.1446374E+04  0.7818608E-02  0.8920918E-01
         -2   -1    0    0    0  501 -0.00000000000E+00  0.00000000000E+00  0.24138297305E+03  0.24138297305E+03  0.00000000000E+00 0.  1.
          2   -1    0    0  501    0  0.00000000000E+00 -0.00000000000E+00 -0.21666787356E+04  0.21666787356E+04  0.00000000000E+00 0. -1.
         23    2    1    2    0    0 -0.49607582541E+03  0.39720783865E+03 -0.40046754962E+03  0.75610336456E+03  0.86329299562E+02 0.  0.
         11    1    3    3    0    0 -0.28880565275E+03  0.25286197825E+03 -0.19524422402E+03  0.43066018172E+03  0.00000000000E+00 0. -1.
        -11    1    3    3    0    0 -0.20727017266E+03  0.14434586040E+03 -0.20522332560E+03  0.32544318284E+03  0.00000000000E+00 0.  1.
         22    1    1    2    0    0  0.49607582541E+03 -0.39720783865E+03 -0.15248282129E+04  0.16519583441E+04  0.00000000000E+00 0. -1.
<mgrwt>
<rscale>  0 0.14463739E+04</rscale>
<asrwt>0</asrwt>
<pdfrwt beam="1">  1        2 0.33333519E+00 0.14463739E+04</pdfrwt>
<pdfrwt beam="2">  1       -2 0.37135842E-01 0.14463739E+04</pdfrwt>
<totfact> 0.35788458E+01</totfact>
</mgrwt>
</event>
<event>
 6    1  0.2196224E-006  0.2623091E+04  0.7818608E-02  0.8360400E-01
          2   -1    0    0  501    0  0.00000000000E+00  0.00000000000E+00  0.19800855748E+04  0.19800855748E+04  0.00000000000E+00 0. -1.
         -2   -1    0    0    0  501 -0.00000000000E+00 -0.00000000000E+00 -0.86872561962E+03  0.86872561962E+03  0.00000000000E+00 0.  1.
         23    2    1    2    0    0  0.98023956187E+03 -0.86091632803E+03  0.42797044068E+03  0.13760356681E+04  0.90933707694E+02 0.  0.
         11    1    3    3    0    0  0.42787809801E+03 -0.37059744942E+03  0.13857964138E+03  0.58277478778E+03  0.00000000000E+00 0.  1.
        -11    1    3    3    0    0  0.55236146386E+03 -0.49031887861E+03  0.28939079930E+03  0.79326088029E+03  0.00000000000E+00 0. -1.
         22    1    1    2    0    0 -0.98023956187E+03  0.86091632803E+03  0.68338951452E+03  0.14727755264E+04  0.00000000000E+00 0.  1.
<mgrwt>
<rscale>  0 0.26230906E+04</rscale>
<asrwt>0</asrwt>
<pdfrwt beam="1">  1        2 0.30462855E+00 0.26230906E+04</pdfrwt>
<pdfrwt beam="2">  1       -2 0.13365010E+00 0.26230906E+04</pdfrwt>
<totfact> 0.24494547E+00</totfact>
</mgrwt>
</event>
<event>
 6    1  0.1585031E-006  0.1435969E+04  0.7818608E-02  0.8928186E-01
          2   -1    0    0  501    0  0.00000000000E+00  0.00000000000E+00  0.53106650741E+03  0.53106650741E+03  0.00000000000E+00 0. -1.
         -2   -1    0    0    0  501 -0.00000000000E+00 -0.00000000000E+00 -0.97069112166E+03  0.97069112166E+03  0.00000000000E+00 0.  1.
         23    2    1    2    0    0  0.48601833337E+03  0.52018963701E+03 -0.29139401929E+03  0.77458269267E+03  0.90866905304E+02 0.  0.
         11    1    3    3    0    0  0.34406780591E+03  0.37819347755E+03 -0.25183554214E+03  0.56994219164E+03  0.00000000000E+00 0.  1.
        -11    1    3    3    0    0  0.14195052747E+03  0.14199615946E+03 -0.39558477155E+02  0.20464050104E+03  0.00000000000E+00 0. -1.
         22    1    1    2    0    0 -0.48601833337E+03 -0.52018963701E+03 -0.14823059496E+03  0.72717493639E+03  0.00000000000E+00 0. -1.
<mgrwt>
<rscale>  0 0.14359687E+04</rscale>
<asrwt>0</asrwt>
<pdfrwt beam="1">  1        2 0.81702540E-01 0.14359687E+04</pdfrwt>
<pdfrwt beam="2">  1       -2 0.14933710E+00 0.14359687E+04</pdfrwt>
<totfact> 0.16872973E+01</totfact>
</mgrwt>
</event>
<event>
 6    1  0.1585031E-006  0.1793706E+04  0.7818608E-02  0.8709654E-01
         -1   -1    0    0    0  501 -0.00000000000E+00  0.00000000000E+00  0.58380411122E+03  0.58380411122E+03  0.00000000000E+00 0.  1.
          1   -1    0    0  501    0  0.00000000000E+00 -0.00000000000E+00 -0.13777660627E+04  0.13777660627E+04  0.00000000000E+00 0. -1.
         23    2    1    2    0    0 -0.66391101134E+03 -0.55016281994E+03 -0.13620473289E+03  0.87708803111E+03  0.85292002207E+02 0.  0.
         13    1    3    3    0    0 -0.53030195238E+03 -0.39829083906E+03 -0.86877597544E+02  0.66888225431E+03  0.00000000000E+00 0.  1.
        -13    1    3    3    0    0 -0.13360905896E+03 -0.15187198088E+03 -0.49327135347E+02  0.20820577680E+03  0.00000000000E+00 0. -1.
         22    1    1    2    0    0  0.66391101134E+03  0.55016281994E+03 -0.65775721855E+03  0.10844821428E+04  0.00000000000E+00 0. -1.
<mgrwt>
<rscale>  0 0.17937062E+04</rscale>
<asrwt>0</asrwt>
<pdfrwt beam="1">  1        1 0.21196401E+00 0.17937062E+04</pdfrwt>
<pdfrwt beam="2">  1       -1 0.89816017E-01 0.17937062E+04</pdfrwt>
<totfact> 0.91248118E+00</totfact>
</mgrwt>
</event>
<event>
 6    1  0.1585031E-006  0.4569357E+04  0.7818608E-02  0.7898606E-01
         -2   -1    0    0    0  501 -0.00000000000E+00  0.00000000000E+00  0.23928832364E+04  0.23928832364E+04  0.00000000000E+00 0.  1.
          2   -1    0    0  501    0  0.00000000000E+00 -0.00000000000E+00 -0.21813666146E+04  0.21813666146E+04  0.00000000000E+00 0. -1.
         23    2    1    2    0    0 -0.37877841839E+03  0.55631234106E+03 -0.20786600451E+04  0.21872296005E+04  0.10094172213E+03 0.  0.
         13    1    3    3    0    0 -0.16912850737E+03  0.26897576345E+03 -0.11395870216E+04  0.11830515598E+04  0.00000000000E+00 0. -1.
        -13    1    3    3    0    0 -0.20964991102E+03  0.28733657761E+03 -0.93907302345E+03  0.10041780407E+04  0.00000000000E+00 0.  1.
         22    1    1    2    0    0  0.37877841839E+03 -0.55631234106E+03  0.22901766669E+04  0.23870202505E+04  0.00000000000E+00 0.  1.
<mgrwt>
<rscale>  0 0.45693569E+04</rscale>
<asrwt>0</asrwt>
<pdfrwt beam="1">  1        2 0.33559486E+00 0.45693569E+04</pdfrwt>
<pdfrwt beam="2">  1       -2 0.36813588E+00 0.45693569E+04</pdfrwt>
<totfact> 0.47565761E-02</totfact>
</mgrwt>
</event>
<event>
 6    1  0.1585031E-006  0.1757261E+04  0.7818608E-02  0.8729363E-01
          2   -1    0    0  501    0  0.00000000000E+00  0.00000000000E+00  0.12609571096E+04  0.12609571096E+04  0.00000000000E+00 0. -1.
         -2   -1    0    0    0  501 -0.00000000000E+00 -0.00000000000E+00 -0.61222691105E+03  0.61222691105E+03  0.00000000000E+00 0.  1.
         23    2    1    2    0    0  0.49394609349E+03 -0.61494824818E+03 -0.81871015724E+02  0.79804578512E+03  0.89610940832E+02 0.  0.
         11    1    3    3    0    0  0.37648221764E+02 -0.39047431604E+02 -0.28700885323E+02  0.61366369741E+02  0.00000000000E+00 0.  1.
        -11    1    3    3    0    0  0.45629787172E+03 -0.57590081658E+03 -0.53170130401E+02  0.73667941538E+03  0.00000000000E+00 0. -1.
         22    1    1    2    0    0 -0.49394609349E+03  0.61494824818E+03  0.73060121426E+03  0.10751382355E+04  0.00000000000E+00 0. -1.
<mgrwt>
<rscale>  0 0.17572614E+04</rscale>
<asrwt>0</asrwt>
<pdfrwt beam="1">  1        2 0.19399340E+00 0.17572614E+04</pdfrwt>
<pdfrwt beam="2">  1       -2 0.94188756E-01 0.17572614E+04</pdfrwt>
<totfact> 0.15699025E+01</totfact>
</mgrwt>
</event>
<event>
 6    1  0.1771457E-006  0.3932843E+04  0.7818608E-02  0.8018233E-01
         -2   -1    0    0    0  501 -0.00000000000E+00  0.00000000000E+00  0.18922207312E+04  0.18922207312E+04  0.00000000000E+00 0.  1.
          2   -1    0    0  501    0  0.00000000000E+00 -0.00000000000E+00 -0.20435321009E+04  0.20435321009E+04  0.00000000000E+00 0. -1.
         23    2    1    2    0    0  0.10322149191E+04  0.60038870193E+02  0.15970574127E+04  0.19045301205E+04  0.87007442826E+02 0.  0.
         13    1    3    3    0    0  0.46042116207E+03  0.51603681021E+02  0.65009280487E+03  0.79829270404E+03  0.00000000000E+00 0. -1.
        -13    1    3    3    0    0  0.57179375706E+03  0.84351891720E+01  0.94696460784E+03  0.11062374164E+04  0.00000000000E+00 0.  1.
         22    1    1    2    0    0 -0.10322149191E+04 -0.60038870193E+02 -0.17483687824E+04  0.20312227117E+04  0.00000000000E+00 0. -1.
<mgrwt>
<rscale>  0 0.39328431E+04</rscale>
<asrwt>0</asrwt>
<pdfrwt beam="1">  1        2 0.31438955E+00 0.39328431E+04</pdfrwt>
<pdfrwt beam="2">  1       -2 0.29111088E+00 0.39328431E+04</pdfrwt>
<totfact> 0.18053357E-01</totfact>
</mgrwt>
</event>
<event>
 6    1  0.1585031E-006  0.2235369E+04  0.7818608E-02  0.8503849E-01
          1   -1    0    0  501    0  0.00000000000E+00  0.00000000000E+00  0.19328928934E+04  0.19328928934E+04  0.00000000000E+00 0. -1.
         -1   -1    0    0    0  501 -0.00000000000E+00 -0.00000000000E+00 -0.64629497131E+03  0.64629497131E+03  0.00000000000E+00 0.  1.
         23    2    1    2    0    0 -0.97144538691E+03 -0.53970851099E+03  0.52712768627E+03  0.12331616927E+04  0.88502803647E+02 0.  0.
         13    1    3    3    0    0 -0.82559446458E+03 -0.45372497070E+03  0.41073666500E+03  0.10277048102E+04  0.00000000000E+00 0. -1.
        -13    1    3    3    0    0 -0.14585092233E+03 -0.85983540285E+02  0.11639102127E+03  0.20545688252E+03  0.00000000000E+00 0.  1.
         22    1    1    2    0    0  0.97144538691E+03  0.53970851099E+03  0.75947023587E+03  0.13460261720E+04  0.00000000000E+00 0.  1.
<mgrwt>
<rscale>  0 0.22353693E+04</rscale>
<asrwt>0</asrwt>
<pdfrwt beam="1">  1        1 0.29736814E+00 0.22353693E+04</pdfrwt>
<pdfrwt beam="2">  1       -1 0.99429996E-01 0.22353693E+04</pdfrwt>
<totfact> 0.29043547E+00</totfact>
</mgrwt>
</event>
<event>
 6    1  0.1585031E-006  0.3305071E+04  0.7818608E-02  0.8161606E-01
          2   -1    0    0  501    0  0.00000000000E+00  0.00000000000E+00  0.16016614384E+04  0.16016614384E+04  0.00000000000E+00 0. -1.
         -2   -1    0    0    0  501 -0.00000000000E+00 -0.00000000000E+00 -0.17050253318E+04  0.17050253318E+04  0.00000000000E+00 0.  1.
         23    2    1    2    0    0  0.45866453906E+03  0.58733187823E+03  0.14227786509E+04  0.16083219801E+04  0.84075011515E+02 0.  0.
         13    1    3    3    0    0  0.35761921750E+03  0.50894001462E+03  0.11753522138E+04  0.13297985824E+04  0.00000000000E+00 0. -1.
        -13    1    3    3    0    0  0.10104532156E+03  0.78391863605E+02  0.24742643712E+03  0.27852339771E+03  0.00000000000E+00 0.  1.
         22    1    1    2    0    0 -0.45866453906E+03 -0.58733187823E+03 -0.15261425443E+04  0.16983647901E+04  0.00000000000E+00 0.  1.
<mgrwt>
<rscale>  0 0.33050708E+04</rscale>
<asrwt>0</asrwt>
<pdfrwt beam="1">  1        2 0.24640945E+00 0.33050708E+04</pdfrwt>
<pdfrwt beam="2">  1       -2 0.26231159E+00 0.33050708E+04</pdfrwt>
<totfact> 0.50173663E-01</totfact>
</mgrwt>
</event>
<event>
 6    1  0.1585031E-006  0.3218945E+04  0.7818608E-02  0.8183832E-01
          1   -1    0    0  501    0  0.00000000000E+00  0.00000000000E+00  0.12651580569E+04  0.12651580569E+04  0.00000000000E+00 0. -1.
         -1   -1    0    0    0  501 -0.00000000000E+00 -0.00000000000E+00 -0.20474931213E+04  0.20474931213E+04  0.00000000000E+00 0.  1.
         23    2    1    2    0    0 -0.83651366079E+03  0.61078152682E+03 -0.16572770187E+04  0.19567999320E+04  0.98436168138E+02 0.  0.
         13    1    3    3    0    0 -0.43133436670E+03  0.36099414110E+03 -0.83725198015E+03  0.10086411572E+04  0.00000000000E+00 0.  1.
        -13    1    3    3    0    0 -0.40517929409E+03  0.24978738572E+03 -0.82002503852E+03  0.94815877480E+03  0.00000000000E+00 0. -1.
         22    1    1    2    0    0  0.83651366079E+03 -0.61078152682E+03  0.87494195432E+03  0.13558512461E+04  0.00000000000E+00 0. -1.
<mgrwt>
<rscale>  0 0.32189454E+04</rscale>
<asrwt>0</asrwt>
<pdfrwt beam="1">  1        1 0.19463970E+00 0.32189454E+04</pdfrwt>
<pdfrwt beam="2">  1       -1 0.31499894E+00 0.32189454E+04</pdfrwt>
<totfact> 0.21113133E-01</totfact>
</mgrwt>
</event>
<event>
 6    1  0.1585031E-006  0.1932759E+04  0.7818608E-02  0.8638720E-01
         -2   -1    0    0    0  501 -0.00000000000E+00  0.00000000000E+00  0.11329534141E+04  0.11329534141E+04  0.00000000000E+00 0.  1.
          2   -1    0    0  501    0  0.00000000000E+00 -0.00000000000E+00 -0.82429663529E+03  0.82429663529E+03  0.00000000000E+00 0. -1.
         23    2    1    2    0    0  0.22303655520E+03 -0.82046457599E+03 -0.30589101109E+03  0.90816644383E+03  0.91046985763E+02 0.  0.
         13    1    3    3    0    0  0.97770064281E+02 -0.50676444557E+03 -0.20836202620E+03  0.55658235934E+03  0.00000000000E+00 0.  1.
        -13    1    3    3    0    0  0.12526649092E+03 -0.31370013042E+03 -0.97528984895E+02  0.35158408449E+03  0.00000000000E+00 0. -1.
         22    1    1    2    0    0 -0.22303655520E+03  0.82046457599E+03  0.61454778992E+03  0.10490836056E+04  0.00000000000E+00 0.  1.
<mgrwt>
<rscale>  0 0.19327594E+04</rscale>
<asrwt>0</asrwt>
<pdfrwt beam="1">  1        2 0.12681487E+00 0.19327594E+04</pdfrwt>
<pdfrwt beam="2">  1       -2 0.17430052E+00 0.19327594E+04</pdfrwt>
<totfact> 0.61395898E+00</totfact>
</mgrwt>
</event>
<event>
 6    1  0.1585031E-006  0.2830398E+04  0.7818608E-02  0.8293893E-01
         -1   -1    0    0    0  501 -0.00000000000E+00  0.00000000000E+00  0.49896549348E+03  0.49896549348E+03  0.00000000000E+00 0.  1.
          1   -1    0    0  501    0  0.00000000000E+00 -0.00000000000E+00 -0.40138823017E+04  0.40138823017E+04  0.00000000000E+00 0. -1.
         23    2    1    2    0    0 -0.38682608331E+03  0.28749510638E+03 -0.38782724884E+04  0.39092625028E+04  0.95120803388E+02 0.  0.
         11    1    3    3    0    0 -0.64259710053E+02  0.15165242468E+02 -0.69280525727E+03  0.69594426459E+03  0.00000000000E+00 0. -1.
        -11    1    3    3    0    0 -0.32256637326E+03  0.27232986391E+03 -0.31854672311E+04  0.32133182382E+04  0.00000000000E+00 0.  1.
         22    1    1    2    0    0  0.38682608331E+03 -0.28749510638E+03  0.36335568010E+03  0.60358529238E+03  0.00000000000E+00 0.  1.
<mgrwt>
<rscale>  0 0.28303984E+04</rscale>
<asrwt>0</asrwt>
<pdfrwt beam="1">  1        1 0.61752038E+00 0.28303984E+04</pdfrwt>
<pdfrwt beam="2">  1       -1 0.76763919E-01 0.28303984E+04</pdfrwt>
<totfact> 0.13717389E-01</totfact>
</mgrwt>
</event>
<event>
 6    1  0.1585031E-006  0.1950952E+04  0.7818608E-02  0.8629902E-01
         -2   -1    0    0    0  501 -0.00000000000E+00  0.00000000000E+00  0.62461001006E+03  0.62461001006E+03  0.00000000000E+00 0.  1.
          2   -1    0    0  501    0  0.00000000000E+00 -0.00000000000E+00 -0.15234358737E+04  0.15234358737E+04  0.00000000000E+00 0. -1.
         23    2    1    2    0    0  0.85836897315E+03  0.32919782870E+03 -0.98367726836E+02  0.92907019357E+03  0.91250810533E+02 0.  0.
         11    1    3    3    0    0  0.59588635808E+03  0.22662884159E+03 -0.11033703268E+03  0.64700498017E+03  0.00000000000E+00 0.  1.
        -11    1    3    3    0    0  0.26248261507E+03  0.10256898711E+03  0.11969305846E+02  0.28206521340E+03  0.00000000000E+00 0. -1.
         22    1    1    2    0    0 -0.85836897315E+03 -0.32919782870E+03 -0.80045813681E+03  0.12189756902E+04  0.00000000000E+00 0. -1.
<mgrwt>
<rscale>  0 0.19509519E+04</rscale>
<asrwt>0</asrwt>
<pdfrwt beam="1">  1        2 0.23437475E+00 0.19509519E+04</pdfrwt>
<pdfrwt beam="2">  1       -2 0.96093848E-01 0.19509519E+04</pdfrwt>
<totfact> 0.10421557E+01</totfact>
</mgrwt>
</event>
<event>
 6    1  0.1585031E-006  0.3798166E+04  0.7818608E-02  0.8046549E-01
          2   -1    0    0  501    0  0.00000000000E+00  0.00000000000E+00  0.22016082378E+04  0.22016082378E+04  0.00000000000E+00 0. -1.
         -2   -1    0    0    0  501 -0.00000000000E+00 -0.00000000000E+00 -0.16381279444E+04  0.16381279444E+04  0.00000000000E+00 0.  1.
         23    2    1    2    0    0  0.16477788138E+04 -0.86076936035E+03 -0.10455520777E+03  0.18642943730E+04  0.92535435931E+02 0.  0.
         11    1    3    3    0    0  0.13997979395E+04 -0.74172727100E+03 -0.57408671801E+02  0.15852095671E+04  0.00000000000E+00 0. -1.
        -11    1    3    3    0    0  0.24798087422E+03 -0.11904208935E+03 -0.47146535966E+02  0.27908480588E+03  0.00000000000E+00 0.  1.
         22    1    1    2    0    0 -0.16477788138E+04  0.86076936035E+03  0.66803550116E+03  0.19754418092E+04  0.00000000000E+00 0. -1.
<mgrwt>
<rscale>  0 0.37981659E+04</rscale>
<asrwt>0</asrwt>
<pdfrwt beam="1">  1        2 0.33870896E+00 0.37981659E+04</pdfrwt>
<pdfrwt beam="2">  1       -2 0.25201968E+00 0.37981659E+04</pdfrwt>
<totfact> 0.25808388E-01</totfact>
</mgrwt>
</event>
<event>
 6    1  0.1585031E-006  0.2672607E+04  0.7818608E-02  0.8343948E-01
         -1   -1    0    0    0  501 -0.00000000000E+00  0.00000000000E+00  0.47497743460E+03  0.47497743460E+03  0.00000000000E+00 0.  1.
          1   -1    0    0  501    0  0.00000000000E+00 -0.00000000000E+00 -0.37595632032E+04  0.37595632032E+04  0.00000000000E+00 0. -1.
         23    2    1    2    0    0  0.77356748801E+03  0.16237352565E+03  0.59983324599E+02  0.79783956854E+03  0.90433166293E+02 0.  0.
         11    1    3    3    0    0  0.54187784446E+03  0.84013736540E+02  0.71459012247E+02  0.55298851405E+03  0.00000000000E+00 0. -1.
        -11    1    3    3    0    0  0.23168964355E+03  0.78359789113E+02 -0.11475687648E+02  0.24485105449E+03  0.00000000000E+00 0.  1.
         22    1    1    2    0    0 -0.77356748801E+03 -0.16237352565E+03 -0.33445690932E+04  0.34367010693E+04  0.00000000000E+00 0. -1.
<mgrwt>
<rscale>  0 0.26726075E+04</rscale>
<asrwt>0</asrwt>
<pdfrwt beam="1">  1        1 0.57839432E+00 0.26726075E+04</pdfrwt>
<pdfrwt beam="2">  1       -1 0.73073454E-01 0.26726075E+04</pdfrwt>
<totfact> 0.25466601E-01</totfact>
</mgrwt>
</event>
<event>
 6    1  0.1585031E-006  0.1335733E+04  0.7818608E-02  0.9001699E-01
          1   -1    0    0  501    0  0.00000000000E+00  0.00000000000E+00  0.16079832979E+04  0.16079832979E+04  0.00000000000E+00 0. -1.
         -1   -1    0    0    0  501 -0.00000000000E+00 -0.00000000000E+00 -0.27739448646E+03  0.27739448646E+03  0.00000000000E+00 0.  1.
         23    2    1    2    0    0  0.51007933455E+03 -0.21780172668E+03  0.15145891297E+03  0.58231760265E+03  0.92387598519E+02 0.  0.
         13    1    3    3    0    0  0.15100966946E+03 -0.10318655620E+03  0.75246450273E+02  0.19777111500E+03  0.00000000000E+00 0.  1.
        -13    1    3    3    0    0  0.35906966510E+03 -0.11461517048E+03  0.76212462694E+02  0.38454648766E+03  0.00000000000E+00 0. -1.
         22    1    1    2    0    0 -0.51007933455E+03  0.21780172668E+03  0.11791298985E+04  0.13030601817E+04  0.00000000000E+00 0. -1.
<mgrwt>
<rscale>  0 0.13357331E+04</rscale>
<asrwt>0</asrwt>
<pdfrwt beam="1">  1        1 0.24738204E+00 0.13357331E+04</pdfrwt>
<pdfrwt beam="2">  1       -1 0.42676076E-01 0.13357331E+04</pdfrwt>
<totfact> 0.29186286E+01</totfact>
</mgrwt>
</event>
<event>
 6    1  0.1585031E-006  0.2246140E+04  0.7818608E-02  0.8499465E-01
         -2   -1    0    0    0  501 -0.00000000000E+00  0.00000000000E+00  0.10550625170E+04  0.10550625170E+04  0.00000000000E+00 0.  1.
          2   -1    0    0  501    0  0.00000000000E+00 -0.00000000000E+00 -0.11954609515E+04  0.11954609515E+04  0.00000000000E+00 0. -1.
         23    2    1    2    0    0 -0.95431108220E+03 -0.56980333650E+03  0.76978087453E+02  0.11179873604E+04  0.92653268689E+02 0.  0.
         13    1    3    3    0    0 -0.40169251040E+03 -0.24569538224E+03 -0.12968266528E+02  0.47105336184E+03  0.00000000000E+00 0.  1.
        -13    1    3    3    0    0 -0.55261857180E+03 -0.32410795426E+03  0.89946353981E+02  0.64693399857E+03  0.00000000000E+00 0. -1.
         22    1    1    2    0    0  0.95431108220E+03  0.56980333650E+03 -0.21737652195E+03  0.11325361081E+04  0.00000000000E+00 0. -1.
<mgrwt>
<rscale>  0 0.22461398E+04</rscale>
<asrwt>0</asrwt>
<pdfrwt beam="1">  1        2 0.18391707E+00 0.22461398E+04</pdfrwt>
<pdfrwt beam="2">  1       -2 0.16231731E+00 0.22461398E+04</pdfrwt>
<totfact> 0.42035231E+00</totfact>
</mgrwt>
</event>
<event>
 6    1  0.1995337E-006  0.3274054E+04  0.7818608E-02  0.8169529E-01
          1   -1    0    0  501    0  0.00000000000E+00  0.00000000000E+00  0.17426515961E+04  0.17426515961E+04  0.00000000000E+00 0. -1.
         -1   -1    0    0    0  501 -0.00000000000E+00 -0.00000000000E+00 -0.15378043266E+04  0.15378043266E+04  0.00000000000E+00 0.  1.
         23    2    1    2    0    0 -0.20549637102E+03  0.15842067759E+04 -0.24996546383E+03  0.16194940057E+04  0.91313931121E+02 0.  0.
         11    1    3    3    0    0 -0.78078526480E+02  0.56869303719E+03 -0.13407173203E+03  0.58947710403E+03  0.00000000000E+00 0.  1.
        -11    1    3    3    0    0 -0.12741784454E+03  0.10155137387E+04 -0.11589373180E+03  0.10300169017E+04  0.00000000000E+00 0. -1.
         22    1    1    2    0    0  0.20549637102E+03 -0.15842067759E+04  0.45481273334E+03  0.16609619170E+04  0.00000000000E+00 0. -1.
<mgrwt>
<rscale>  0 0.32740539E+04</rscale>
<asrwt>0</asrwt>
<pdfrwt beam="1">  1        1 0.26810025E+00 0.32740539E+04</pdfrwt>
<pdfrwt beam="2">  1       -1 0.23658528E+00 0.32740539E+04</pdfrwt>
<totfact> 0.31642853E-01</totfact>
</mgrwt>
</event>
<event>
 6    1  0.1585031E-006  0.1384425E+04  0.7818608E-02  0.8965170E-01
          1   -1    0    0  501    0  0.00000000000E+00  0.00000000000E+00  0.10124032952E+04  0.10124032952E+04  0.00000000000E+00 0. -1.
         -1   -1    0    0    0  501 -0.00000000000E+00 -0.00000000000E+00 -0.47328764398E+03  0.47328764398E+03  0.00000000000E+00 0.  1.
         23    2    1    2    0    0 -0.51911299522E+03 -0.43704985350E+03  0.14195761602E+03  0.69941784336E+03  0.92425530085E+02 0.  0.
         13    1    3    3    0    0 -0.93036104866E+02 -0.11620740596E+03  0.59435635412E+01  0.14898054892E+03  0.00000000000E+00 0. -1.
        -13    1    3    3    0    0 -0.42607689036E+03 -0.32084244753E+03  0.13601405248E+03  0.55043729444E+03  0.00000000000E+00 0.  1.
         22    1    1    2    0    0  0.51911299522E+03  0.43704985350E+03  0.39715803516E+03  0.78627309578E+03  0.00000000000E+00 0. -1.
<mgrwt>
<rscale>  0 0.13844247E+04</rscale>
<asrwt>0</asrwt>
<pdfrwt beam="1">  1        1 0.15575435E+00 0.13844247E+04</pdfrwt>
<pdfrwt beam="2">  1       -1 0.72813484E-01 0.13844247E+04</pdfrwt>
<totfact> 0.27477527E+01</totfact>
</mgrwt>
</event>
<event>
 6    1  0.1585031E-006  0.1923566E+04  0.7818608E-02  0.8643214E-01
          1   -1    0    0  501    0  0.00000000000E+00  0.00000000000E+00  0.91236196438E+03  0.91236196438E+03  0.00000000000E+00 0. -1.
         -1   -1    0    0    0  501 -0.00000000000E+00 -0.00000000000E+00 -0.10138809079E+04  0.10138809079E+04  0.00000000000E+00 0.  1.
         23    2    1    2    0    0 -0.66449555767E+03 -0.12164686258E+03  0.63171663237E+03  0.92925404832E+03  0.89971536473E+02 0.  0.
         13    1    3    3    0    0 -0.33772062877E+03 -0.10327277604E+03  0.35364834245E+03  0.49978759437E+03  0.00000000000E+00 0. -1.
        -13    1    3    3    0    0 -0.32677492890E+03 -0.18374086543E+02  0.27806828992E+03  0.42946645395E+03  0.00000000000E+00 0.  1.
         22    1    1    2    0    0  0.66449555767E+03  0.12164686258E+03 -0.73323557589E+03  0.99698882395E+03  0.00000000000E+00 0.  1.
<mgrwt>
<rscale>  0 0.19235658E+04</rscale>
<asrwt>0</asrwt>
<pdfrwt beam="1">  1        1 0.14036338E+00 0.19235658E+04</pdfrwt>
<pdfrwt beam="2">  1       -1 0.15598168E+00 0.19235658E+04</pdfrwt>
<totfact> 0.52063287E+00</totfact>
</mgrwt>
</event>
<event>
 6    1  0.1585031E-006  0.4886548E+04  0.7818608E-02  0.7846251E-01
          2   -1    0    0  501    0  0.00000000000E+00  0.00000000000E+00  0.32678331073E+04  0.32678331073E+04  0.00000000000E+00 0. -1.
         -2   -1    0    0    0  501 -0.00000000000E+00 -0.00000000000E+00 -0.18267721881E+04  0.18267721881E+04  0.00000000000E+00 0.  1.
         23    2    1    2    0    0  0.18634644295E+04 -0.34888772921E+03  0.23261384009E+04  0.30023375122E+04  0.94278041332E+02 0.  0.
         13    1    3    3    0    0  0.89750990742E+03 -0.12349401551E+03  0.10829961731E+04  0.14119686670E+04  0.00000000000E+00 0.  1.
        -13    1    3    3    0    0  0.96595452211E+03 -0.22539371370E+03  0.12431422279E+04  0.15903688452E+04  0.00000000000E+00 0. -1.
         22    1    1    2    0    0 -0.18634644295E+04  0.34888772921E+03 -0.88507748174E+03  0.20922677832E+04  0.00000000000E+00 0.  1.
<mgrwt>
<rscale>  0 0.48865475E+04</rscale>
<asrwt>0</asrwt>
<pdfrwt beam="1">  1        2 0.50274356E+00 0.48865475E+04</pdfrwt>
<pdfrwt beam="2">  1       -2 0.28104187E+00 0.48865475E+04</pdfrwt>
<totfact> 0.35631412E-02</totfact>
</mgrwt>
</event>
<event>
 6    1  0.1585031E-006  0.3747069E+04  0.7818608E-02  0.8057610E-01
          2   -1    0    0  501    0  0.00000000000E+00  0.00000000000E+00  0.23149595913E+04  0.23149595913E+04  0.00000000000E+00 0. -1.
         -2   -1    0    0    0  501 -0.00000000000E+00 -0.00000000000E+00 -0.15162818840E+04  0.15162818840E+04  0.00000000000E+00 0.  1.
         23    2    1    2    0    0 -0.87764016926E+02 -0.10795151968E+04 -0.11621732123E+04  0.15911539967E+04  0.89826960951E+02 0.  0.
         13    1    3    3    0    0 -0.36529143042E+02 -0.87932969861E+03 -0.93408535502E+03  0.12833824635E+04  0.00000000000E+00 0. -1.
        -13    1    3    3    0    0 -0.51234873884E+02 -0.20018549820E+03 -0.22808785730E+03  0.30777153319E+03  0.00000000000E+00 0.  1.
         22    1    1    2    0    0  0.87764016926E+02  0.10795151968E+04  0.19608509197E+04  0.22400874786E+04  0.00000000000E+00 0. -1.
<mgrwt>
<rscale>  0 0.37470689E+04</rscale>
<asrwt>0</asrwt>
<pdfrwt beam="1">  1        2 0.35614763E+00 0.37470689E+04</pdfrwt>
<pdfrwt beam="2">  1       -2 0.23327414E+00 0.37470689E+04</pdfrwt>
<totfact> 0.29201571E-01</totfact>
</mgrwt>
</event>
<event>
 6    1  0.1585031E-006  0.1441283E+04  0.7818608E-02  0.8924466E-01
          1   -1    0    0  501    0  0.00000000000E+00  0.00000000000E+00  0.11755331854E+04  0.11755331854E+04  0.00000000000E+00 0. -1.
         -1   -1    0    0    0  501 -0.00000000000E+00 -0.00000000000E+00 -0.44177775344E+03  0.44177775344E+03  0.00000000000E+00 0.  1.
         23    2    1    2    0    0  0.36354955238E+03 -0.50462957776E+03 -0.33924451731E+02  0.62930704634E+03  0.89761920432E+02 0.  0.
         13    1    3    3    0    0  0.53184344012E+02 -0.79187705725E+02  0.27098454748E+02  0.99164476682E+02  0.00000000000E+00 0. -1.
        -13    1    3    3    0    0  0.31036520837E+03 -0.42544187203E+03 -0.61022906479E+02  0.53014256965E+03  0.00000000000E+00 0.  1.
         22    1    1    2    0    0 -0.36354955238E+03  0.50462957776E+03  0.76767988369E+03  0.98800389251E+03  0.00000000000E+00 0. -1.
<mgrwt>
<rscale>  0 0.14412833E+04</rscale>
<asrwt>0</asrwt>
<pdfrwt beam="1">  1        1 0.18085126E+00 0.14412833E+04</pdfrwt>
<pdfrwt beam="2">  1       -1 0.67965809E-01 0.14412833E+04</pdfrwt>
<totfact> 0.23725869E+01</totfact>
</mgrwt>
</event>
<event>
 6    1  0.1585031E-006  0.1940204E+04  0.7818608E-02  0.8635099E-01
          1   -1    0    0  501    0  0.00000000000E+00  0.00000000000E+00  0.15882098510E+04  0.15882098510E+04  0.00000000000E+00 0. -1.
         -1   -1    0    0    0  501 -0.00000000000E+00 -0.00000000000E+00 -0.59255291358E+03  0.59255291358E+03  0.00000000000E+00 0.  1.
         23    2    1    2    0    0 -0.66151117535E+03 -0.21837892353E+02  0.12927164542E+04  0.14552847944E+04  0.93081003844E+02 0.  0.
         13    1    3    3    0    0 -0.25783251108E+03 -0.45368408349E+02  0.45096038813E+03  0.52144143286E+03  0.00000000000E+00 0.  1.
        -13    1    3    3    0    0 -0.40367866427E+03  0.23530515996E+02  0.84175606603E+03  0.93384336153E+03  0.00000000000E+00 0. -1.
         22    1    1    2    0    0  0.66151117535E+03  0.21837892353E+02 -0.29705951679E+03  0.72547797015E+03  0.00000000000E+00 0.  1.
<mgrwt>
<rscale>  0 0.19402045E+04</rscale>
<asrwt>0</asrwt>
<pdfrwt beam="1">  1        1 0.24433998E+00 0.19402045E+04</pdfrwt>
<pdfrwt beam="2">  1       -1 0.91161987E-01 0.19402045E+04</pdfrwt>
<totfact> 0.62235150E+00</totfact>
</mgrwt>
</event>
<event>
 6    1  0.1585031E-006  0.4543046E+04  0.7818608E-02  0.7903144E-01
         -2   -1    0    0    0  501 -0.00000000000E+00  0.00000000000E+00  0.22707500579E+04  0.22707500579E+04  0.00000000000E+00 0. -1.
          2   -1    0    0  501    0  0.00000000000E+00 -0.00000000000E+00 -0.22722963546E+04  0.22722963546E+04  0.00000000000E+00 0.  1.
         23    2    1    2    0    0  0.70320804738E+03 -0.17337091633E+04 -0.12873856574E+04  0.22728852106E+04  0.91631482842E+02 0.  0.
         13    1    3    3    0    0  0.57741734256E+03 -0.13784091675E+04 -0.98780588038E+03  0.17914192915E+04  0.00000000000E+00 0.  1.
        -13    1    3    3    0    0  0.12579070482E+03 -0.35529999583E+03 -0.29957977707E+03  0.48146591913E+03  0.00000000000E+00 0. -1.
         22    1    1    2    0    0 -0.70320804738E+03  0.17337091633E+04  0.12858393608E+04  0.22701612019E+04  0.00000000000E+00 0. -1.
<mgrwt>
<rscale>  0 0.45430461E+04</rscale>
<asrwt>0</asrwt>
<pdfrwt beam="1">  1        2 0.34958405E+00 0.45430461E+04</pdfrwt>
<pdfrwt beam="2">  1       -2 0.34934616E+00 0.45430461E+04</pdfrwt>
<totfact> 0.55747780E-02</totfact>
</mgrwt>
</event>
<event>
 6    1  0.1585031E-006  0.6137928E+04  0.7818608E-02  0.7673532E-01
          2   -1    0    0  501    0  0.00000000000E+00  0.00000000000E+00  0.33416385246E+04  0.33416385246E+04  0.00000000000E+00 0. -1.
         -2   -1    0    0    0  501 -0.00000000000E+00 -0.00000000000E+00 -0.28185396119E+04  0.28185396119E+04  0.00000000000E+00 0.  1.
         23    2    1    2    0    0 -0.10829696585E+03  0.28958061701E+04  0.12737548712E+04  0.31667008982E+04  0.90119359612E+02 0.  0.
         11    1    3    3    0    0 -0.77411499840E+02  0.99487164029E+03  0.45461838079E+03  0.10965582488E+04  0.00000000000E+00 0. -1.
        -11    1    3    3    0    0 -0.30885466007E+02  0.19009345299E+04  0.81913649038E+03  0.20701426494E+04  0.00000000000E+00 0.  1.
         22    1    1    2    0    0  0.10829696585E+03 -0.28958061701E+04 -0.75065595846E+03  0.29934772382E+04  0.00000000000E+00 0. -1.
<mgrwt>
<rscale>  0 0.61379282E+04</rscale>
<asrwt>0</asrwt>
<pdfrwt beam="1">  1        2 0.51409824E+00 0.61379282E+04</pdfrwt>
<pdfrwt beam="2">  1       -2 0.43362148E+00 0.61379282E+04</pdfrwt>
<totfact> 0.31054938E-03</totfact>
</mgrwt>
</event>
<event>
 6    1  0.1585031E-006  0.5035484E+04  0.7818608E-02  0.7823057E-01
         -2   -1    0    0    0  501 -0.00000000000E+00  0.00000000000E+00  0.15894107452E+04  0.15894107452E+04  0.00000000000E+00 0.  1.
          2   -1    0    0  501    0  0.00000000000E+00 -0.00000000000E+00 -0.39882858348E+04  0.39882858348E+04  0.00000000000E+00 0. -1.
         23    2    1    2    0    0 -0.16044142192E+04  0.72944112891E+03  0.79022582946E+03  0.19339904970E+04  0.98148018048E+02 0.  0.
         11    1    3    3    0    0 -0.47762952532E+03  0.26089617823E+03  0.22012229007E+03  0.58706950342E+03  0.00000000000E+00 0.  1.
        -11    1    3    3    0    0 -0.11267846939E+04  0.46854495068E+03  0.57010353939E+03  0.13469209935E+04  0.00000000000E+00 0. -1.
         22    1    1    2    0    0  0.16044142192E+04 -0.72944112891E+03 -0.31891009191E+04  0.36437060830E+04  0.00000000000E+00 0. -1.
<mgrwt>
<rscale>  0 0.50354838E+04</rscale>
<asrwt>0</asrwt>
<pdfrwt beam="1">  1        2 0.61358243E+00 0.50354838E+04</pdfrwt>
<pdfrwt beam="2">  1       -2 0.24452473E+00 0.50354838E+04</pdfrwt>
<totfact> 0.17550089E-02</totfact>
</mgrwt>
</event>
<event>
 6    1  0.1585031E-006  0.2591298E+04  0.7818608E-02  0.8371163E-01
          2   -1    0    0  501    0  0.00000000000E+00  0.00000000000E+00  0.16148898465E+04  0.16148898465E+04  0.00000000000E+00 0.  1.
         -2   -1    0    0    0  501 -0.00000000000E+00 -0.00000000000E+00 -0.10395178276E+04  0.10395178276E+04  0.00000000000E+00 0. -1.
         23    2    1    2    0    0 -0.11115352151E+04  0.11930185843E+03 -0.37956894282E+03  0.11841506529E+04  0.91633611183E+02 0.  0.
         11    1    3    3    0    0 -0.13665077321E+03 -0.98780672107E+00 -0.74210840011E+02  0.15550452841E+03  0.00000000000E+00 0. -1.
        -11    1    3    3    0    0 -0.97488444186E+03  0.12028966516E+03 -0.30535810281E+03  0.10286461245E+04  0.00000000000E+00 0.  1.
         22    1    1    2    0    0  0.11115352151E+04 -0.11930185843E+03  0.95494096171E+03  0.14702570211E+04  0.00000000000E+00 0.  1.
<mgrwt>
<rscale>  0 0.25912984E+04</rscale>
<asrwt>0</asrwt>
<pdfrwt beam="1">  1        2 0.24844459E+00 0.25912984E+04</pdfrwt>
<pdfrwt beam="2">  1       -2 0.15992582E+00 0.25912984E+04</pdfrwt>
<totfact> 0.24428208E+00</totfact>
</mgrwt>
</event>
<event>
 6    1  0.1585031E-006  0.1425394E+04  0.7818608E-02  0.8935640E-01
          1   -1    0    0  501    0  0.00000000000E+00  0.00000000000E+00  0.14952871525E+04  0.14952871525E+04  0.00000000000E+00 0. -1.
         -1   -1    0    0    0  501 -0.00000000000E+00 -0.00000000000E+00 -0.33969173600E+03  0.33969173600E+03  0.00000000000E+00 0.  1.
         23    2    1    2    0    0  0.54453539046E+03 -0.44329155639E+03  0.44585147131E+03  0.83659886906E+03  0.89932962912E+02 0.  0.
         13    1    3    3    0    0  0.37098089864E+03 -0.24967130015E+03  0.26382686863E+03  0.51919861507E+03  0.00000000000E+00 0. -1.
        -13    1    3    3    0    0  0.17355449182E+03 -0.19362025624E+03  0.18202460268E+03  0.31740025400E+03  0.00000000000E+00 0.  1.
         22    1    1    2    0    0 -0.54453539046E+03  0.44329155639E+03  0.70974394515E+03  0.99838001939E+03  0.00000000000E+00 0. -1.
<mgrwt>
<rscale>  0 0.14253935E+04</rscale>
<asrwt>0</asrwt>
<pdfrwt beam="1">  1        1 0.23004417E+00 0.14253935E+04</pdfrwt>
<pdfrwt beam="2">  1       -1 0.52260268E-01 0.14253935E+04</pdfrwt>
<totfact> 0.23653063E+01</totfact>
</mgrwt>
</event>
<event>
 6    1  0.1585031E-006  0.3503387E+04  0.7818608E-02  0.8112988E-01
          2   -1    0    0  501    0  0.00000000000E+00  0.00000000000E+00  0.13866472408E+04  0.13866472408E+04  0.00000000000E+00 0.  1.
         -2   -1    0    0    0  501 -0.00000000000E+00 -0.00000000000E+00 -0.22128406355E+04  0.22128406355E+04  0.00000000000E+00 0. -1.
         23    2    1    2    0    0 -0.13481993503E+04 -0.11606340812E+03  0.72764549749E+03  0.15390200882E+04  0.89457582580E+02 0.  0.
         13    1    3    3    0    0 -0.99840129712E+03 -0.96788772717E+02  0.49581945771E+03  0.11189325946E+04  0.00000000000E+00 0.  1.
        -13    1    3    3    0    0 -0.34979805319E+03 -0.19274635402E+02  0.23182603978E+03  0.42008749363E+03  0.00000000000E+00 0. -1.
         22    1    1    2    0    0  0.13481993503E+04  0.11606340812E+03 -0.15538388922E+04  0.20604677881E+04  0.00000000000E+00 0. -1.
<mgrwt>
<rscale>  0 0.35033866E+04</rscale>
<asrwt>0</asrwt>
<pdfrwt beam="1">  1        2 0.21333035E+00 0.35033866E+04</pdfrwt>
<pdfrwt beam="2">  1       -2 0.34043702E+00 0.35033866E+04</pdfrwt>
<totfact> 0.21610666E-01</totfact>
</mgrwt>
</event>
<event>
 6    1  0.1585031E-006  0.1374701E+04  0.7818608E-02  0.8972338E-01
         -1   -1    0    0    0  501 -0.00000000000E+00  0.00000000000E+00  0.30326547172E+03  0.30326547172E+03  0.00000000000E+00 0.  1.
          1   -1    0    0  501    0  0.00000000000E+00 -0.00000000000E+00 -0.15578772125E+04  0.15578772125E+04  0.00000000000E+00 0. -1.
         23    2    1    2    0    0 -0.40506274373E+03  0.51096346899E+03 -0.34885017693E+03  0.74509452060E+03  0.91158684105E+02 0.  0.
         11    1    3    3    0    0 -0.18755370098E+03  0.27772491526E+03 -0.22138243531E+03  0.40164375007E+03  0.00000000000E+00 0. -1.
        -11    1    3    3    0    0 -0.21750904275E+03  0.23323855373E+03 -0.12746774161E+03  0.34345077053E+03  0.00000000000E+00 0.  1.
         22    1    1    2    0    0  0.40506274373E+03 -0.51096346899E+03 -0.90576156387E+03  0.11160481636E+04  0.00000000000E+00 0. -1.
<mgrwt>
<rscale>  0 0.13747005E+04</rscale>
<asrwt>0</asrwt>
<pdfrwt beam="1">  1        1 0.23967341E+00 0.13747005E+04</pdfrwt>
<pdfrwt beam="2">  1       -1 0.46656227E-01 0.13747005E+04</pdfrwt>
<totfact> 0.26670117E+01</totfact>
</mgrwt>
</event>
<event>
 6    1  0.1585031E-006  0.5787603E+03  0.7818608E-02  0.9950479E-01
          2   -1    0    0  501    0  0.00000000000E+00  0.00000000000E+00  0.14134994790E+04  0.14134994790E+04  0.00000000000E+00 0.  1.
         -2   -1    0    0    0  501 -0.00000000000E+00 -0.00000000000E+00 -0.59243647831E+02  0.59243647831E+02  0.00000000000E+00 0. -1.
         23    2    1    2    0    0 -0.27486236169E+02  0.38118851065E+02  0.14019633081E+04  0.14057763936E+04  0.92182490398E+02 0.  0.
         11    1    3    3    0    0  0.32831412784E+02  0.14227404101E+02  0.66541244246E+03  0.66637379846E+03  0.00000000000E+00 0. -1.
        -11    1    3    3    0    0 -0.60317648953E+02  0.23891446964E+02  0.73655086568E+03  0.73940259518E+03  0.00000000000E+00 0.  1.
         22    1    1    2    0    0  0.27486236169E+02 -0.38118851065E+02 -0.47707477020E+02  0.66966733151E+02  0.00000000000E+00 0. -1.
<mgrwt>
<rscale>  0 0.57876028E+03</rscale>
<asrwt>0</asrwt>
<pdfrwt beam="1">  1        2 0.21746143E+00 0.57876028E+03</pdfrwt>
<pdfrwt beam="2">  1       -2 0.91144084E-02 0.57876028E+03</pdfrwt>
<totfact> 0.11533313E+03</totfact>
</mgrwt>
</event>
<event>
 6    1  0.1585031E-006  0.3754990E+04  0.7818608E-02  0.8055883E-01
         -2   -1    0    0    0  501 -0.00000000000E+00  0.00000000000E+00  0.11319354245E+04  0.11319354245E+04  0.00000000000E+00 0.  1.
          2   -1    0    0  501    0  0.00000000000E+00 -0.00000000000E+00 -0.31141245735E+04  0.31141245735E+04  0.00000000000E+00 0. -1.
         23    2    1    2    0    0 -0.15890966098E+04  0.88788202132E+03 -0.15063987649E+04  0.23645874341E+04  0.92054197111E+02 0.  0.
         11    1    3    3    0    0 -0.14942714041E+04  0.85867112680E+03 -0.14258616739E+04  0.22367933848E+04  0.00000000000E+00 0. -1.
        -11    1    3    3    0    0 -0.94825205737E+02  0.29210894516E+02 -0.80537090998E+02  0.12779404927E+03  0.00000000000E+00 0.  1.
         22    1    1    2    0    0  0.15890966098E+04 -0.88788202132E+03 -0.47579038404E+03  0.18814725639E+04  0.00000000000E+00 0.  1.
<mgrwt>
<rscale>  0 0.37549902E+04</rscale>
<asrwt>0</asrwt>
<pdfrwt beam="1">  1        2 0.47909609E+00 0.37549902E+04</pdfrwt>
<pdfrwt beam="2">  1       -2 0.17414391E+00 0.37549902E+04</pdfrwt>
<totfact> 0.23609177E-01</totfact>
</mgrwt>
</event>
<event>
 6    1  0.1585031E-006  0.1660235E+04  0.7818608E-02  0.8784375E-01
         -1   -1    0    0    0  501 -0.00000000000E+00  0.00000000000E+00  0.82935891955E+03  0.82935891955E+03  0.00000000000E+00 0.  1.
          1   -1    0    0  501    0  0.00000000000E+00 -0.00000000000E+00 -0.83087657285E+03  0.83087657285E+03  0.00000000000E+00 0. -1.
         23    2    1    2    0    0  0.20892827593E+03 -0.72704637747E+03  0.33497639080E+03  0.83230089282E+03  0.90929281984E+02 0.  0.
         11    1    3    3    0    0  0.16787668508E+02 -0.14689807604E+03  0.94950067550E+02  0.17571677747E+03  0.00000000000E+00 0.  1.
        -11    1    3    3    0    0  0.19214060742E+03 -0.58014830143E+03  0.24002632325E+03  0.65658411534E+03  0.00000000000E+00 0. -1.
         22    1    1    2    0    0 -0.20892827593E+03  0.72704637747E+03 -0.33649404410E+03  0.82793459958E+03  0.00000000000E+00 0. -1.
<mgrwt>
<rscale>  0 0.16602348E+04</rscale>
<asrwt>0</asrwt>
<pdfrwt beam="1">  1        1 0.12782716E+00 0.16602348E+04</pdfrwt>
<pdfrwt beam="2">  1       -1 0.12759368E+00 0.16602348E+04</pdfrwt>
<totfact> 0.10555260E+01</totfact>
</mgrwt>
</event>
<event>
 6    1  0.1585031E-006  0.2839677E+04  0.7818608E-02  0.8291055E-01
          2   -1    0    0  501    0  0.00000000000E+00  0.00000000000E+00  0.20218222051E+04  0.20218222051E+04  0.00000000000E+00 0. -1.
         -2   -1    0    0    0  501 -0.00000000000E+00 -0.00000000000E+00 -0.99709139819E+03  0.99709139819E+03  0.00000000000E+00 0.  1.
         23    2    1    2    0    0 -0.12479966489E+04 -0.56769680359E+03  0.89936150804E+03  0.16421446476E+04  0.89513266570E+02 0.  0.
         13    1    3    3    0    0 -0.18925114510E+03 -0.67837313935E+02  0.16502616255E+03  0.26009907999E+03  0.00000000000E+00 0. -1.
        -13    1    3    3    0    0 -0.10587455038E+04 -0.49985948966E+03  0.73433534549E+03  0.13820455676E+04  0.00000000000E+00 0.  1.
         22    1    1    2    0    0  0.12479966489E+04  0.56769680359E+03  0.12536929890E+03  0.13767689558E+04  0.00000000000E+00 0.  1.
<mgrwt>
<rscale>  0 0.28396771E+04</rscale>
<asrwt>0</asrwt>
<pdfrwt beam="1">  1        2 0.31104957E+00 0.28396771E+04</pdfrwt>
<pdfrwt beam="2">  1       -2 0.15339868E+00 0.28396771E+04</pdfrwt>
<totfact> 0.15906512E+00</totfact>
</mgrwt>
</event>
<event>
 6    1  0.1585031E-006  0.3791392E+04  0.7818608E-02  0.8048005E-01
          1   -1    0    0  501    0  0.00000000000E+00  0.00000000000E+00  0.30444694477E+04  0.30444694477E+04  0.00000000000E+00 0. -1.
         -1   -1    0    0    0  501 -0.00000000000E+00 -0.00000000000E+00 -0.11803906729E+04  0.11803906729E+04  0.00000000000E+00 0.  1.
         23    2    1    2    0    0 -0.42054256568E+03 -0.43627326730E+03  0.29328726383E+04  0.29962386426E+04  0.92269593137E+02 0.  0.
         11    1    3    3    0    0 -0.28041385786E+03 -0.22632229523E+03  0.16892855674E+04  0.17272925176E+04  0.00000000000E+00 0.  1.
        -11    1    3    3    0    0 -0.14012870782E+03 -0.20995097207E+03  0.12435870709E+04  0.12689461250E+04  0.00000000000E+00 0. -1.
         22    1    1    2    0    0  0.42054256568E+03  0.43627326730E+03 -0.10687938635E+04  0.12286214779E+04  0.00000000000E+00 0.  1.
<mgrwt>
<rscale>  0 0.37913920E+04</rscale>
<asrwt>0</asrwt>
<pdfrwt beam="1">  1        1 0.46837991E+00 0.37913920E+04</pdfrwt>
<pdfrwt beam="2">  1       -1 0.18159857E+00 0.37913920E+04</pdfrwt>
<totfact> 0.89434706E-02</totfact>
</mgrwt>
</event>
<event>
 6    1  0.1585031E-006  0.2070476E+04  0.7818608E-02  0.8574362E-01
         -2   -1    0    0    0  501 -0.00000000000E+00  0.00000000000E+00  0.25793920859E+03  0.25793920859E+03  0.00000000000E+00 0.  1.
          2   -1    0    0  501    0  0.00000000000E+00 -0.00000000000E+00 -0.41549222370E+04  0.41549222370E+04  0.00000000000E+00 0. -1.
         23    2    1    2    0    0 -0.93111760671E+03 -0.44666493579E+03 -0.19317288926E+04  0.21927908654E+04  0.10131980461E+03 0.  0.
         13    1    3    3    0    0 -0.31982968577E+03 -0.14404063428E+03 -0.55903188066E+03  0.65996619294E+03  0.00000000000E+00 0.  1.
        -13    1    3    3    0    0 -0.61128792094E+03 -0.30262430150E+03 -0.13726970119E+04  0.15328246725E+04  0.00000000000E+00 0. -1.
         22    1    1    2    0    0  0.93111760671E+03  0.44666493579E+03 -0.19652541358E+04  0.22200705801E+04  0.00000000000E+00 0. -1.
<mgrwt>
<rscale>  0 0.20704756E+04</rscale>
<asrwt>0</asrwt>
<pdfrwt beam="1">  1        2 0.63921872E+00 0.20704756E+04</pdfrwt>
<pdfrwt beam="2">  1       -2 0.39682960E-01 0.20704756E+04</pdfrwt>
<totfact> 0.14265253E+00</totfact>
</mgrwt>
</event>
<event>
 6    1  0.1585031E-006  0.2245947E+04  0.7818608E-02  0.8499543E-01
         -1   -1    0    0    0  501 -0.00000000000E+00  0.00000000000E+00  0.37026339421E+03  0.37026339421E+03  0.00000000000E+00 0.  1.
          1   -1    0    0  501    0  0.00000000000E+00 -0.00000000000E+00 -0.34058727720E+04  0.34058727720E+04  0.00000000000E+00 0. -1.
         23    2    1    2    0    0  0.50569277409E+03 -0.98065817624E+03 -0.11850438460E+04  0.16216040992E+04  0.88630114410E+02 0.  0.
         13    1    3    3    0    0  0.26078982353E+03 -0.43709453773E+03 -0.50047917208E+03  0.71382236492E+03  0.00000000000E+00 0. -1.
        -13    1    3    3    0    0  0.24490295056E+03 -0.54356363851E+03 -0.68456467393E+03  0.90778173428E+03  0.00000000000E+00 0.  1.
         22    1    1    2    0    0 -0.50569277409E+03  0.98065817624E+03 -0.18505655318E+04  0.21545320670E+04  0.00000000000E+00 0. -1.
<mgrwt>
<rscale>  0 0.22459475E+04</rscale>
<asrwt>0</asrwt>
<pdfrwt beam="1">  1        1 0.52398044E+00 0.22459475E+04</pdfrwt>
<pdfrwt beam="2">  1       -1 0.56963598E-01 0.22459475E+04</pdfrwt>
<totfact> 0.84057020E-01</totfact>
</mgrwt>
</event>
<event>
 6    1  0.1585031E-006  0.8258012E+03  0.7818608E-02  0.9523404E-01
         -1   -1    0    0    0  501 -0.00000000000E+00  0.00000000000E+00  0.18896322594E+03  0.18896322594E+03  0.00000000000E+00 0.  1.
          1   -1    0    0  501    0  0.00000000000E+00 -0.00000000000E+00 -0.90222277343E+03  0.90222277343E+03  0.00000000000E+00 0. -1.
         23    2    1    2    0    0 -0.15449254436E+03 -0.30436055800E+03 -0.66453106728E+02  0.35984348908E+03  0.92563630618E+02 0.  0.
         11    1    3    3    0    0 -0.16209566412E+03 -0.24960529250E+03 -0.47397578285E+02  0.30137076301E+03  0.00000000000E+00 0.  1.
        -11    1    3    3    0    0  0.76031197617E+01 -0.54755265500E+02 -0.19055528443E+02  0.58472726072E+02  0.00000000000E+00 0. -1.
         22    1    1    2    0    0  0.15449254436E+03  0.30436055800E+03 -0.64680644077E+03  0.73134251028E+03  0.00000000000E+00 0. -1.
<mgrwt>
<rscale>  0 0.82580125E+03</rscale>
<asrwt>0</asrwt>
<pdfrwt beam="1">  1        1 0.13880351E+00 0.82580125E+03</pdfrwt>
<pdfrwt beam="2">  1       -1 0.29071265E-01 0.82580125E+03</pdfrwt>
<totfact> 0.19712227E+02</totfact>
</mgrwt>
</event>
<event>
 6    1  0.1585031E-006  0.2847594E+04  0.7818608E-02  0.8288643E-01
          1   -1    0    0  501    0  0.00000000000E+00  0.00000000000E+00  0.14850584675E+04  0.14850584675E+04  0.00000000000E+00 0. -1.
         -1   -1    0    0    0  501 -0.00000000000E+00 -0.00000000000E+00 -0.13650622387E+04  0.13650622387E+04  0.00000000000E+00 0.  1.
         23    2    1    2    0    0  0.52317967940E+03 -0.39115889955E+03  0.13246770219E+04  0.14797273048E+04  0.90007902346E+02 0.  0.
         11    1    3    3    0    0  0.47897790900E+03 -0.37361334530E+03  0.11759262745E+04  0.13235593573E+04  0.00000000000E+00 0.  1.
        -11    1    3    3    0    0  0.44201770396E+02 -0.17545554249E+02  0.14875074738E+03  0.15616794750E+03  0.00000000000E+00 0. -1.
         22    1    1    2    0    0 -0.52317967940E+03  0.39115889955E+03 -0.12046807930E+04  0.13703934015E+04  0.00000000000E+00 0.  1.
<mgrwt>
<rscale>  0 0.28475935E+04</rscale>
<asrwt>0</asrwt>
<pdfrwt beam="1">  1        1 0.22847053E+00 0.28475935E+04</pdfrwt>
<pdfrwt beam="2">  1       -1 0.21000958E+00 0.28475935E+04</pdfrwt>
<totfact> 0.74257417E-01</totfact>
</mgrwt>
</event>
<event>
 6    1  0.1585031E-006  0.2008672E+04  0.7818608E-02  0.8602577E-01
          2   -1    0    0  501    0  0.00000000000E+00  0.00000000000E+00  0.15194409897E+04  0.15194409897E+04  0.00000000000E+00 0. -1.
         -2   -1    0    0    0  501 -0.00000000000E+00 -0.00000000000E+00 -0.66385655878E+03  0.66385655878E+03  0.00000000000E+00 0.  1.
         23    2    1    2    0    0  0.59657674306E+03  0.16829126806E+03  0.12847587462E+04  0.14293636295E+04  0.90827244020E+02 0.  0.
         13    1    3    3    0    0  0.43914226080E+03  0.16465470476E+03  0.95904043023E+03  0.10675746549E+04  0.00000000000E+00 0.  1.
        -13    1    3    3    0    0  0.15743448226E+03  0.36365632975E+01  0.32571831596E+03  0.36178897461E+03  0.00000000000E+00 0. -1.
         22    1    1    2    0    0 -0.59657674306E+03 -0.16829126806E+03 -0.42917431527E+03  0.75393391895E+03  0.00000000000E+00 0.  1.
<mgrwt>
<rscale>  0 0.20086721E+04</rscale>
<asrwt>0</asrwt>
<pdfrwt beam="1">  1        2 0.23376015E+00 0.20086721E+04</pdfrwt>
<pdfrwt beam="2">  1       -2 0.10213178E+00 0.20086721E+04</pdfrwt>
<totfact> 0.90273118E+00</totfact>
</mgrwt>
</event>
<event>
 6    1  0.1585031E-006  0.2043650E+04  0.7818608E-02  0.8586481E-01
         -2   -1    0    0    0  501 -0.00000000000E+00  0.00000000000E+00  0.80375599764E+03  0.80375599764E+03  0.00000000000E+00 0.  1.
          2   -1    0    0  501    0  0.00000000000E+00 -0.00000000000E+00 -0.12990584540E+04  0.12990584540E+04  0.00000000000E+00 0. -1.
         23    2    1    2    0    0 -0.91630764877E+03  0.37802686397E+03 -0.15675280131E+01  0.99543096043E+03  0.91412924440E+02 0.  0.
         11    1    3    3    0    0 -0.90431285671E+02  0.41325567158E+02  0.27244178732E+02  0.10309153798E+03  0.00000000000E+00 0.  1.
        -11    1    3    3    0    0 -0.82587636310E+03  0.33670129682E+03 -0.28811706745E+02  0.89233942245E+03  0.00000000000E+00 0. -1.
         22    1    1    2    0    0  0.91630764877E+03 -0.37802686397E+03 -0.49373492831E+03  0.11073834912E+04  0.00000000000E+00 0. -1.
<mgrwt>
<rscale>  0 0.20436497E+04</rscale>
<asrwt>0</asrwt>
<pdfrwt beam="1">  1        2 0.19985515E+00 0.20436497E+04</pdfrwt>
<pdfrwt beam="2">  1       -2 0.12365477E+00 0.20436497E+04</pdfrwt>
<totfact> 0.75510394E+00</totfact>
</mgrwt>
</event>
<event>
 6    1  0.1585031E-006  0.2651718E+04  0.7818608E-02  0.8350843E-01
         -2   -1    0    0    0  501 -0.00000000000E+00  0.00000000000E+00  0.19711401901E+04  0.19711401901E+04  0.00000000000E+00 0. -1.
          2   -1    0    0  501    0  0.00000000000E+00 -0.00000000000E+00 -0.89181988706E+03  0.89181988706E+03  0.00000000000E+00 0.  1.
         23    2    1    2    0    0  0.77136519850E+03  0.85979607672E+03 -0.15888859981E+03  0.11696157973E+04  0.92206090587E+02 0.  0.
         11    1    3    3    0    0  0.55141256498E+03  0.61364238503E+03 -0.71193679007E+02  0.82805877416E+03  0.00000000000E+00 0. -1.
        -11    1    3    3    0    0  0.21995263352E+03  0.24615369168E+03 -0.87694920799E+02  0.34155702314E+03  0.00000000000E+00 0.  1.
         22    1    1    2    0    0 -0.77136519850E+03 -0.85979607672E+03  0.12382089028E+04  0.16933442798E+04  0.00000000000E+00 0.  1.
<mgrwt>
<rscale>  0 0.26517180E+04</rscale>
<asrwt>0</asrwt>
<pdfrwt beam="1">  1        2 0.13720306E+00 0.26517180E+04</pdfrwt>
<pdfrwt beam="2">  1       -2 0.30325234E+00 0.26517180E+04</pdfrwt>
<totfact> 0.79418604E-01</totfact>
</mgrwt>
</event>
<event>
 6    1  0.1585031E-006  0.3303308E+04  0.7818608E-02  0.8162054E-01
         -1   -1    0    0    0  501 -0.00000000000E+00  0.00000000000E+00  0.27290504869E+04  0.27290504869E+04  0.00000000000E+00 0.  1.
          1   -1    0    0  501    0  0.00000000000E+00 -0.00000000000E+00 -0.99960064823E+03  0.99960064823E+03  0.00000000000E+00 0. -1.
         23    2    1    2    0    0 -0.11143787830E+04 -0.12169753517E+04  0.88170608348E+03  0.18735127163E+04  0.98869620276E+02 0.  0.
         11    1    3    3    0    0 -0.65906365192E+03 -0.64758449192E+03  0.48612077721E+03  0.10440517140E+04  0.00000000000E+00 0. -1.
        -11    1    3    3    0    0 -0.45531513104E+03 -0.56939085981E+03  0.39558530627E+03  0.82946100229E+03  0.00000000000E+00 0.  1.
         22    1    1    2    0    0  0.11143787830E+04  0.12169753517E+04  0.84774375517E+03  0.18551384188E+04  0.00000000000E+00 0. -1.
<mgrwt>
<rscale>  0 0.33033078E+04</rscale>
<asrwt>0</asrwt>
<pdfrwt beam="1">  1        1 0.15378472E+00 0.33033078E+04</pdfrwt>
<pdfrwt beam="2">  1       -1 0.41985392E+00 0.33033078E+04</pdfrwt>
<totfact> 0.65565758E-02</totfact>
</mgrwt>
</event>
<event>
 6    1  0.1585031E-006  0.1422625E+04  0.7818608E-02  0.8937603E-01
         -2   -1    0    0    0  501 -0.00000000000E+00  0.00000000000E+00  0.12794123864E+03  0.12794123864E+03  0.00000000000E+00 0.  1.
          2   -1    0    0  501    0  0.00000000000E+00 -0.00000000000E+00 -0.39546683225E+04  0.39546683225E+04  0.00000000000E+00 0. -1.
         23    2    1    2    0    0  0.23114290537E+03  0.66543544716E+03 -0.21367615897E+04  0.22517041162E+04  0.90498389273E+02 0.  0.
         11    1    3    3    0    0  0.99284562945E+02  0.36652265408E+03 -0.12635613307E+04  0.13193875536E+04  0.00000000000E+00 0. -1.
        -11    1    3    3    0    0  0.13185834243E+03  0.29891279308E+03 -0.87320025908E+03  0.93231656255E+03  0.00000000000E+00 0.  1.
         22    1    1    2    0    0 -0.23114290537E+03 -0.66543544716E+03 -0.16899654942E+04  0.18309054450E+04  0.00000000000E+00 0.  1.
<mgrwt>
<rscale>  0 0.14226246E+04</rscale>
<asrwt>0</asrwt>
<pdfrwt beam="1">  1        2 0.60841050E+00 0.14226246E+04</pdfrwt>
<pdfrwt beam="2">  1       -2 0.19683268E-01 0.14226246E+04</pdfrwt>
<totfact> 0.81581370E+00</totfact>
</mgrwt>
</event>
<event>
 6    1  0.1585031E-006  0.1356615E+04  0.7818608E-02  0.8985835E-01
         -1   -1    0    0    0  501 -0.00000000000E+00  0.00000000000E+00  0.34598270181E+03  0.34598270181E+03  0.00000000000E+00 0.  1.
          1   -1    0    0  501    0  0.00000000000E+00 -0.00000000000E+00 -0.13298389893E+04  0.13298389893E+04  0.00000000000E+00 0. -1.
         23    2    1    2    0    0  0.31255943909E+03  0.59025846895E+03 -0.61804312991E+03  0.91429839575E+03  0.88689249109E+02 0.  0.
         11    1    3    3    0    0  0.18385546539E+03  0.41329833825E+03 -0.37803075902E+03  0.58951302218E+03  0.00000000000E+00 0. -1.
        -11    1    3    3    0    0  0.12870397370E+03  0.17696013070E+03 -0.24001237089E+03  0.32478537357E+03  0.00000000000E+00 0.  1.
         22    1    1    2    0    0 -0.31255943909E+03 -0.59025846895E+03 -0.36581315760E+03  0.76152329538E+03  0.00000000000E+00 0.  1.
<mgrwt>
<rscale>  0 0.13566153E+04</rscale>
<asrwt>0</asrwt>
<pdfrwt beam="1">  1        1 0.20459061E+00 0.13566153E+04</pdfrwt>
<pdfrwt beam="2">  1       -1 0.53228109E-01 0.13566153E+04</pdfrwt>
<totfact> 0.29992179E+01</totfact>
</mgrwt>
</event>
<event>
 6    1  0.1585031E-006  0.7534427E+03  0.7818608E-02  0.9629965E-01
         -1   -1    0    0    0  501 -0.00000000000E+00  0.00000000000E+00  0.65851435819E+02  0.65851435819E+02  0.00000000000E+00 0.  1.
          1   -1    0    0  501    0  0.00000000000E+00 -0.00000000000E+00 -0.21551386582E+04  0.21551386582E+04  0.00000000000E+00 0. -1.
         23    2    1    2    0    0 -0.27149627059E+02  0.36942285740E+03 -0.11843999807E+04  0.12432215785E+04  0.74741080380E+02 0.  0.
         13    1    3    3    0    0  0.20314919896E+02  0.16107387258E+03 -0.45131979545E+03  0.47963219884E+03  0.00000000000E+00 0. -1.
        -13    1    3    3    0    0 -0.47464546955E+02  0.20834898482E+03 -0.73308018525E+03  0.76358937964E+03  0.00000000000E+00 0.  1.
         22    1    1    2    0    0  0.27149627059E+02 -0.36942285740E+03 -0.90488724168E+03  0.97776851554E+03  0.00000000000E+00 0.  1.
<mgrwt>
<rscale>  0 0.75344270E+03</rscale>
<asrwt>0</asrwt>
<pdfrwt beam="1">  1        1 0.33155975E+00 0.75344270E+03</pdfrwt>
<pdfrwt beam="2">  1       -1 0.10130991E-01 0.75344270E+03</pdfrwt>
<totfact> 0.14924007E+02</totfact>
</mgrwt>
</event>
<event>
 6    1  0.1585031E-006  0.2032848E+04  0.7818608E-02  0.8591415E-01
         -1   -1    0    0    0  501 -0.00000000000E+00  0.00000000000E+00  0.64497052172E+03  0.64497052172E+03  0.00000000000E+00 0.  1.
          1   -1    0    0  501    0  0.00000000000E+00 -0.00000000000E+00 -0.16018061618E+04  0.16018061618E+04  0.00000000000E+00 0. -1.
         23    2    1    2    0    0  0.98899092386E+03  0.22299855982E+03 -0.44120799398E+03  0.11093659070E+04  0.90536271431E+02 0.  0.
         13    1    3    3    0    0  0.43748636400E+03  0.56280222201E+02 -0.17231615346E+03  0.47355531761E+03  0.00000000000E+00 0. -1.
        -13    1    3    3    0    0  0.55150455986E+03  0.16671833761E+03 -0.26889184052E+03  0.63581058936E+03  0.00000000000E+00 0.  1.
         22    1    1    2    0    0 -0.98899092386E+03 -0.22299855982E+03 -0.51562764609E+03  0.11374107765E+04  0.00000000000E+00 0. -1.
<mgrwt>
<rscale>  0 0.20328480E+04</rscale>
<asrwt>0</asrwt>
<pdfrwt beam="1">  1        1 0.24643171E+00 0.20328480E+04</pdfrwt>
<pdfrwt beam="2">  1       -1 0.99226235E-01 0.20328480E+04</pdfrwt>
<totfact> 0.49933259E+00</totfact>
</mgrwt>
</event>
<event>
 6    1  0.1585031E-006  0.7862168E+03  0.7818608E-02  0.9580185E-01
         -1   -1    0    0    0  501 -0.00000000000E+00  0.00000000000E+00  0.78333113273E+03  0.78333113273E+03  0.00000000000E+00 0. -1.
          1   -1    0    0  501    0  0.00000000000E+00 -0.00000000000E+00 -0.19727826272E+03  0.19727826272E+03  0.00000000000E+00 0.  1.
         23    2    1    2    0    0 -0.20373279035E+03 -0.14079086666E+03 -0.75343308220E+02  0.27437004327E+03  0.90957069818E+02 0.  0.
         13    1    3    3    0    0 -0.67837774678E+02 -0.15268950962E+00 -0.26210398068E+02  0.72725318523E+02  0.00000000000E+00 0. -1.
        -13    1    3    3    0    0 -0.13589501567E+03 -0.14063817715E+03 -0.49132910152E+02  0.20164472474E+03  0.00000000000E+00 0.  1.
         22    1    1    2    0    0  0.20373279035E+03  0.14079086666E+03  0.66139617823E+03  0.70623935219E+03  0.00000000000E+00 0. -1.
<mgrwt>
<rscale>  0 0.78621678E+03</rscale>
<asrwt>0</asrwt>
<pdfrwt beam="1">  1        1 0.30350502E-01 0.78621678E+03</pdfrwt>
<pdfrwt beam="2">  1       -1 0.12051248E+00 0.78621678E+03</pdfrwt>
<totfact> 0.94059901E+01</totfact>
</mgrwt>
</event>
<event>
 6    1  0.1585031E-006  0.3520675E+04  0.7818608E-02  0.8108908E-01
         -2   -1    0    0    0  501 -0.00000000000E+00  0.00000000000E+00  0.11577680778E+04  0.11577680778E+04  0.00000000000E+00 0.  1.
          2   -1    0    0  501    0  0.00000000000E+00 -0.00000000000E+00 -0.26765190687E+04  0.26765190687E+04  0.00000000000E+00 0. -1.
         23    2    1    2    0    0  0.43899954840E+03  0.23036910242E+03 -0.25981003898E+04  0.26465221648E+04  0.90351573535E+02 0.  0.
         11    1    3    3    0    0  0.28860940535E+03  0.19467827470E+03 -0.18824594287E+04  0.19143794086E+04  0.00000000000E+00 0.  1.
        -11    1    3    3    0    0  0.15039014306E+03  0.35690827716E+02 -0.71564096110E+03  0.73214275624E+03  0.00000000000E+00 0. -1.
         22    1    1    2    0    0 -0.43899954840E+03 -0.23036910242E+03  0.10793493988E+04  0.11877649816E+04  0.00000000000E+00 0.  1.
<mgrwt>
<rscale>  0 0.35206751E+04</rscale>
<asrwt>0</asrwt>
<pdfrwt beam="1">  1        2 0.41177216E+00 0.35206751E+04</pdfrwt>
<pdfrwt beam="2">  1       -2 0.17811817E+00 0.35206751E+04</pdfrwt>
<totfact> 0.42024974E-01</totfact>
</mgrwt>
</event>
<event>
 6    1  0.1585031E-006  0.1096163E+04  0.7818608E-02  0.9208940E-01
         -1   -1    0    0    0  501 -0.00000000000E+00  0.00000000000E+00  0.32490264928E+03  0.32490264928E+03  0.00000000000E+00 0.  1.
          1   -1    0    0  501    0  0.00000000000E+00 -0.00000000000E+00 -0.92456364490E+03  0.92456364490E+03  0.00000000000E+00 0. -1.
         23    2    1    2    0    0  0.15025786875E+03 -0.52200599919E+03 -0.26812389430E+03  0.61308233786E+03  0.94402542276E+02 0.  0.
         11    1    3    3    0    0  0.72853284101E+02 -0.11858201107E+03 -0.87096032957E+02  0.16417982004E+03  0.00000000000E+00 0. -1.
        -11    1    3    3    0    0  0.77404584648E+02 -0.40342398812E+03 -0.18102786134E+03  0.44890251781E+03  0.00000000000E+00 0.  1.
         22    1    1    2    0    0 -0.15025786875E+03  0.52200599919E+03 -0.33153710132E+03  0.63638395632E+03  0.00000000000E+00 0.  1.
<mgrwt>
<rscale>  0 0.10961627E+04</rscale>
<asrwt>0</asrwt>
<pdfrwt beam="1">  1        1 0.14224056E+00 0.10961627E+04</pdfrwt>
<pdfrwt beam="2">  1       -1 0.49985022E-01 0.10961627E+04</pdfrwt>
<totfact> 0.69531782E+01</totfact>
</mgrwt>
</event>
<event>
 6    1  0.1585031E-006  0.1510818E+04  0.7818608E-02  0.8877291E-01
         -1   -1    0    0    0  501 -0.00000000000E+00  0.00000000000E+00  0.35647368968E+03  0.35647368968E+03  0.00000000000E+00 0.  1.
          1   -1    0    0  501    0  0.00000000000E+00 -0.00000000000E+00 -0.16007992762E+04  0.16007992762E+04  0.00000000000E+00 0. -1.
         23    2    1    2    0    0 -0.24992645060E+03 -0.39805641083E+03  0.13667204566E+03  0.49848353729E+03  0.94310402215E+02 0.  0.
         13    1    3    3    0    0 -0.48398214733E+02 -0.92719156473E+02 -0.83885412335E+01  0.10492662575E+03  0.00000000000E+00 0.  1.
        -13    1    3    3    0    0 -0.20152823587E+03 -0.30533725436E+03  0.14506058689E+03  0.39355691154E+03  0.00000000000E+00 0. -1.
         22    1    1    2    0    0  0.24992645060E+03  0.39805641083E+03 -0.13809976322E+04  0.14587894286E+04  0.00000000000E+00 0. -1.
<mgrwt>
<rscale>  0 0.15108181E+04</rscale>
<asrwt>0</asrwt>
<pdfrwt beam="1">  1        1 0.24627681E+00 0.15108181E+04</pdfrwt>
<pdfrwt beam="2">  1       -1 0.54842106E-01 0.15108181E+04</pdfrwt>
<totfact> 0.18096764E+01</totfact>
</mgrwt>
</event>
<event>
 6    1  0.1585031E-006  0.2074021E+04  0.7818608E-02  0.8572774E-01
          2   -1    0    0  501    0  0.00000000000E+00  0.00000000000E+00  0.15539695222E+04  0.15539695222E+04  0.00000000000E+00 0. -1.
         -2   -1    0    0    0  501 -0.00000000000E+00 -0.00000000000E+00 -0.69202849870E+03  0.69202849870E+03  0.00000000000E+00 0.  1.
         23    2    1    2    0    0 -0.66670838404E+02 -0.10323829066E+04  0.45724986788E+03  0.11351270122E+04  0.95793661484E+02 0.  0.
         13    1    3    3    0    0 -0.10628757383E+02 -0.42531793424E+03  0.14012589706E+03  0.44793256490E+03  0.00000000000E+00 0.  1.
        -13    1    3    3    0    0 -0.56042081021E+02 -0.60706497238E+03  0.31712397082E+03  0.68719444730E+03  0.00000000000E+00 0. -1.
         22    1    1    2    0    0  0.66670838404E+02  0.10323829066E+04  0.40469115564E+03  0.11108710087E+04  0.00000000000E+00 0.  1.
<mgrwt>
<rscale>  0 0.20740214E+04</rscale>
<asrwt>0</asrwt>
<pdfrwt beam="1">  1        2 0.23907223E+00 0.20740214E+04</pdfrwt>
<pdfrwt beam="2">  1       -2 0.10646592E+00 0.20740214E+04</pdfrwt>
<totfact> 0.77716043E+00</totfact>
</mgrwt>
</event>
<event>
 6    1  0.1585031E-006  0.1296689E+04  0.7818608E-02  0.9032195E-01
         -2   -1    0    0    0  501 -0.00000000000E+00  0.00000000000E+00  0.34797066786E+03  0.34797066786E+03  0.00000000000E+00 0.  1.
          2   -1    0    0  501    0  0.00000000000E+00 -0.00000000000E+00 -0.12080050556E+04  0.12080050556E+04  0.00000000000E+00 0. -1.
         23    2    1    2    0    0 -0.45354721023E+03 -0.28643181699E+03 -0.86226108152E+03  0.10195493857E+04  0.90766290498E+02 0.  0.
         13    1    3    3    0    0 -0.23954315052E+03 -0.20425005509E+03 -0.49668597135E+03  0.58804418210E+03  0.00000000000E+00 0.  1.
        -13    1    3    3    0    0 -0.21400405971E+03 -0.82181761904E+02 -0.36557511017E+03  0.43150520360E+03  0.00000000000E+00 0. -1.
         22    1    1    2    0    0  0.45354721023E+03  0.28643181699E+03  0.22266937535E+01  0.53642633777E+03  0.00000000000E+00 0.  1.
<mgrwt>
<rscale>  0 0.12966886E+04</rscale>
<asrwt>0</asrwt>
<pdfrwt beam="1">  1        2 0.18584693E+00 0.12966886E+04</pdfrwt>
<pdfrwt beam="2">  1       -2 0.53533950E-01 0.12966886E+04</pdfrwt>
<totfact> 0.60384527E+01</totfact>
</mgrwt>
</event>
<event>
 6    1  0.1585031E-006  0.1417393E+04  0.7818608E-02  0.8941324E-01
         -2   -1    0    0    0  501 -0.00000000000E+00  0.00000000000E+00  0.11906644377E+03  0.11906644377E+03  0.00000000000E+00 0. -1.
          2   -1    0    0  501    0  0.00000000000E+00 -0.00000000000E+00 -0.42182401169E+04  0.42182401169E+04  0.00000000000E+00 0.  1.
         23    2    1    2    0    0 -0.18692901915E+03 -0.57946180809E+03 -0.96589566732E+03  0.11454184820E+04  0.91162566046E+02 0.  0.
         13    1    3    3    0    0 -0.14415955769E+03 -0.31866697956E+03 -0.59090302052E+03  0.68665639267E+03  0.00000000000E+00 0. -1.
        -13    1    3    3    0    0 -0.42769461460E+02 -0.26079482853E+03 -0.37499264680E+03  0.45876208930E+03  0.00000000000E+00 0.  1.
         22    1    1    2    0    0  0.18692901915E+03  0.57946180809E+03 -0.31332780059E+04  0.31918880787E+04  0.00000000000E+00 0.  1.
<mgrwt>
<rscale>  0 0.14173932E+04</rscale>
<asrwt>0</asrwt>
<pdfrwt beam="1">  1        2 0.64895995E+00 0.14173932E+04</pdfrwt>
<pdfrwt beam="2">  1       -2 0.18317916E-01 0.14173932E+04</pdfrwt>
<totfact> 0.56128297E+00</totfact>
</mgrwt>
</event>
<event>
 6    1  0.1585031E-006  0.1403203E+04  0.7818608E-02  0.8951503E-01
         -1   -1    0    0    0  501 -0.00000000000E+00  0.00000000000E+00  0.31926370341E+03  0.31926370341E+03  0.00000000000E+00 0.  1.
          1   -1    0    0  501    0  0.00000000000E+00 -0.00000000000E+00 -0.15418131908E+04  0.15418131908E+04  0.00000000000E+00 0. -1.
         23    2    1    2    0    0 -0.68232752370E+03  0.14302681724E+03 -0.67043363942E+03  0.97177411694E+03  0.94000794872E+02 0.  0.
         11    1    3    3    0    0 -0.37515375382E+03  0.55805577845E+02 -0.30674517101E+03  0.48779832048E+03  0.00000000000E+00 0. -1.
        -11    1    3    3    0    0 -0.30717376988E+03  0.87221239393E+02 -0.36368846841E+03  0.48397579646E+03  0.00000000000E+00 0.  1.
         22    1    1    2    0    0  0.68232752370E+03 -0.14302681724E+03 -0.55211584793E+03  0.88930277723E+03  0.00000000000E+00 0.  1.
<mgrwt>
<rscale>  0 0.14032035E+04</rscale>
<asrwt>0</asrwt>
<pdfrwt beam="1">  1        1 0.23720203E+00 0.14032035E+04</pdfrwt>
<pdfrwt beam="2">  1       -1 0.49117493E-01 0.14032035E+04</pdfrwt>
<totfact> 0.24769896E+01</totfact>
</mgrwt>
</event>
<event>
 6    1  0.1606658E-006  0.4437765E+04  0.7818608E-02  0.7921624E-01
         -1   -1    0    0    0  501 -0.00000000000E+00  0.00000000000E+00  0.25340771574E+04  0.25340771574E+04  0.00000000000E+00 0.  1.
          1   -1    0    0  501    0  0.00000000000E+00 -0.00000000000E+00 -0.19428924715E+04  0.19428924715E+04  0.00000000000E+00 0. -1.
         23    2    1    2    0    0 -0.64968499988E+02 -0.22170435076E+04  0.29879003117E+03  0.22397844657E+04  0.88634922350E+02 0.  0.
         13    1    3    3    0    0 -0.71791587095E+02 -0.13046960490E+04  0.20404577518E+03  0.13225053840E+04  0.00000000000E+00 0. -1.
        -13    1    3    3    0    0  0.68230871071E+01 -0.91234745859E+03  0.94744255984E+02  0.91727908172E+03  0.00000000000E+00 0.  1.
         22    1    1    2    0    0  0.64968499988E+02  0.22170435076E+04  0.29239465478E+03  0.22371851632E+04  0.00000000000E+00 0.  1.
<mgrwt>
<rscale>  0 0.44377649E+04</rscale>
<asrwt>0</asrwt>
<pdfrwt beam="1">  1        1 0.29890654E+00 0.44377649E+04</pdfrwt>
<pdfrwt beam="2">  1       -1 0.38985802E+00 0.44377649E+04</pdfrwt>
<totfact> 0.20636682E-02</totfact>
</mgrwt>
</event>
<event>
 6    1  0.1585031E-006  0.2120038E+04  0.7818608E-02  0.8552467E-01
          1   -1    0    0  501    0  0.00000000000E+00  0.00000000000E+00  0.11729104700E+04  0.11729104700E+04  0.00000000000E+00 0. -1.
         -1   -1    0    0    0  501 -0.00000000000E+00 -0.00000000000E+00 -0.95799329644E+03  0.95799329644E+03  0.00000000000E+00 0.  1.
         23    2    1    2    0    0 -0.39020009112E+03 -0.47192478041E+03 -0.75955307069E+03  0.98000786915E+03  0.92333346801E+02 0.  0.
         13    1    3    3    0    0 -0.16740997026E+03 -0.14431964905E+03 -0.23444340901E+03  0.32220796278E+03  0.00000000000E+00 0. -1.
        -13    1    3    3    0    0 -0.22279012085E+03 -0.32760513136E+03 -0.52510966167E+03  0.65779990637E+03  0.00000000000E+00 0.  1.
         22    1    1    2    0    0  0.39020009112E+03  0.47192478041E+03  0.97447024421E+03  0.11508958973E+04  0.00000000000E+00 0. -1.
<mgrwt>
<rscale>  0 0.21200381E+04</rscale>
<asrwt>0</asrwt>
<pdfrwt beam="1">  1        1 0.18044777E+00 0.21200381E+04</pdfrwt>
<pdfrwt beam="2">  1       -1 0.14738358E+00 0.21200381E+04</pdfrwt>
<totfact> 0.37573702E+00</totfact>
</mgrwt>
</event>
<event>
 6    1  0.1585031E-006  0.2062747E+04  0.7818608E-02  0.8577833E-01
         -1   -1    0    0    0  501 -0.00000000000E+00  0.00000000000E+00  0.39960689658E+03  0.39960689658E+03  0.00000000000E+00 0.  1.
          1   -1    0    0  501    0  0.00000000000E+00 -0.00000000000E+00 -0.26619454824E+04  0.26619454824E+04  0.00000000000E+00 0. -1.
         23    2    1    2    0    0  0.80159944842E+03  0.97611341126E+02 -0.18615832746E+03  0.83385982505E+03  0.92615524209E+02 0.  0.
         11    1    3    3    0    0  0.50816308859E+03  0.58832502583E+02 -0.16330523224E+03  0.53699123535E+03  0.00000000000E+00 0.  1.
        -11    1    3    3    0    0  0.29343635983E+03  0.38778838543E+02 -0.22853095221E+02  0.29686858970E+03  0.00000000000E+00 0. -1.
         22    1    1    2    0    0 -0.80159944842E+03 -0.97611341126E+02 -0.20761802584E+04  0.22276925539E+04  0.00000000000E+00 0. -1.
<mgrwt>
<rscale>  0 0.20627475E+04</rscale>
<asrwt>0</asrwt>
<pdfrwt beam="1">  1        1 0.40953007E+00 0.20627475E+04</pdfrwt>
<pdfrwt beam="2">  1       -1 0.61477985E-01 0.20627475E+04</pdfrwt>
<totfact> 0.25863262E+00</totfact>
</mgrwt>
</event>
<event>
 6    1  0.1585031E-006  0.2087180E+04  0.7818608E-02  0.8566912E-01
         -2   -1    0    0    0  501 -0.00000000000E+00  0.00000000000E+00  0.38946764418E+03  0.38946764418E+03  0.00000000000E+00 0.  1.
          2   -1    0    0  501    0  0.00000000000E+00 -0.00000000000E+00 -0.27963299647E+04  0.27963299647E+04  0.00000000000E+00 0. -1.
         23    2    1    2    0    0 -0.94974965896E+03 -0.29996746803E+03 -0.16709660066E+04  0.19474324441E+04  0.91437588012E+02 0.  0.
         13    1    3    3    0    0 -0.61599513846E+03 -0.16232170802E+03 -0.10044124582E+04  0.11893875457E+04  0.00000000000E+00 0.  1.
        -13    1    3    3    0    0 -0.33375452050E+03 -0.13764576001E+03 -0.66655354834E+03  0.75804489841E+03  0.00000000000E+00 0. -1.
         22    1    1    2    0    0  0.94974965896E+03  0.29996746803E+03 -0.73589631396E+03  0.12383651648E+04  0.00000000000E+00 0.  1.
<mgrwt>
<rscale>  0 0.20871800E+04</rscale>
<asrwt>0</asrwt>
<pdfrwt beam="1">  1        2 0.43020463E+00 0.20871800E+04</pdfrwt>
<pdfrwt beam="2">  1       -2 0.59918097E-01 0.20871800E+04</pdfrwt>
<totfact> 0.55754795E+00</totfact>
</mgrwt>
</event>
<event>
 6    1  0.1585031E-006  0.1085009E+04  0.7818608E-02  0.9219928E-01
          1   -1    0    0  501    0  0.00000000000E+00  0.00000000000E+00  0.62456512149E+03  0.62456512149E+03  0.00000000000E+00 0. -1.
         -1   -1    0    0    0  501 -0.00000000000E+00 -0.00000000000E+00 -0.47122565153E+03  0.47122565153E+03  0.00000000000E+00 0.  1.
         23    2    1    2    0    0  0.89312157245E+02 -0.49983828345E+03  0.25907209828E+03  0.57714411130E+03  0.90343799287E+02 0.  0.
         11    1    3    3    0    0  0.95418908214E+01 -0.30558411603E+03  0.15422360518E+03  0.34242900001E+03  0.00000000000E+00 0. -1.
        -11    1    3    3    0    0  0.79770266423E+02 -0.19425416741E+03  0.10484849310E+03  0.23471511129E+03  0.00000000000E+00 0.  1.
         22    1    1    2    0    0 -0.89312157245E+02  0.49983828345E+03 -0.10573262832E+03  0.51864666173E+03  0.00000000000E+00 0.  1.
<mgrwt>
<rscale>  0 0.10850090E+04</rscale>
<asrwt>0</asrwt>
<pdfrwt beam="1">  1        1 0.96086942E-01 0.10850090E+04</pdfrwt>
<pdfrwt beam="2">  1       -1 0.72496254E-01 0.10850090E+04</pdfrwt>
<totfact> 0.61863559E+01</totfact>
</mgrwt>
</event>
<event>
 6    1  0.1585031E-006  0.2714733E+04  0.7818608E-02  0.8330240E-01
         -2   -1    0    0    0  501 -0.00000000000E+00  0.00000000000E+00  0.11996944246E+04  0.11996944246E+04  0.00000000000E+00 0.  1.
          2   -1    0    0  501    0  0.00000000000E+00 -0.00000000000E+00 -0.15357608914E+04  0.15357608914E+04  0.00000000000E+00 0. -1.
         23    2    1    2    0    0  0.75997176583E+03  0.10395270750E+04 -0.59576803543E+03  0.14218273134E+04  0.92085464064E+02 0.  0.
         11    1    3    3    0    0  0.29600952529E+03  0.33357112416E+03 -0.19263348724E+03  0.48579727700E+03  0.00000000000E+00 0.  1.
        -11    1    3    3    0    0  0.46396224054E+03  0.70595595084E+03 -0.40313454819E+03  0.93603003644E+03  0.00000000000E+00 0. -1.
         22    1    1    2    0    0 -0.75997176583E+03 -0.10395270750E+04  0.25970156866E+03  0.13136280026E+04  0.00000000000E+00 0.  1.
<mgrwt>
<rscale>  0 0.27147330E+04</rscale>
<asrwt>0</asrwt>
<pdfrwt beam="1">  1        2 0.23627091E+00 0.27147330E+04</pdfrwt>
<pdfrwt beam="2">  1       -2 0.18456837E+00 0.27147330E+04</pdfrwt>
<totfact> 0.17914069E+00</totfact>
</mgrwt>
</event>
<event>
 6    1  0.1585031E-006  0.4756683E+04  0.7818608E-02  0.7867178E-01
         -2   -1    0    0    0  501 -0.00000000000E+00  0.00000000000E+00  0.21228528481E+04  0.21228528481E+04  0.00000000000E+00 0.  1.
          2   -1    0    0  501    0  0.00000000000E+00 -0.00000000000E+00 -0.26645790506E+04  0.26645790506E+04  0.00000000000E+00 0. -1.
         23    2    1    2    0    0 -0.20203604874E+04 -0.12488013600E+04 -0.16554572395E+03  0.23826713933E+04  0.91412503387E+02 0.  0.
         13    1    3    3    0    0 -0.18944933433E+03 -0.13855022046E+03  0.39200595561E+01  0.23473938897E+03  0.00000000000E+00 0. -1.
        -13    1    3    3    0    0 -0.18309111531E+04 -0.11102511396E+04 -0.16946578351E+03  0.21479320043E+04  0.00000000000E+00 0.  1.
         22    1    1    2    0    0  0.20203604874E+04  0.12488013600E+04 -0.37618047858E+03  0.24047605054E+04  0.00000000000E+00 0.  1.
<mgrwt>
<rscale>  0 0.47566834E+04</rscale>
<asrwt>0</asrwt>
<pdfrwt beam="1">  1        2 0.40993524E+00 0.47566834E+04</pdfrwt>
<pdfrwt beam="2">  1       -2 0.32659275E+00 0.47566834E+04</pdfrwt>
<totfact> 0.45089525E-02</totfact>
</mgrwt>
</event>
<event>
 6    1  0.1585031E-006  0.1931923E+04  0.7818608E-02  0.8639128E-01
          4   -1    0    0  501    0  0.00000000000E+00  0.00000000000E+00  0.37003687265E+03  0.37003687265E+03  0.00000000000E+00 0. -1.
         -4   -1    0    0    0  501 -0.00000000000E+00 -0.00000000000E+00 -0.25215897959E+04  0.25215897959E+04  0.00000000000E+00 0.  1.
         23    2    1    2    0    0  0.37146765865E+03 -0.33733561900E+03  0.15362292942E+03  0.53247019791E+03  0.90227301567E+02 0.  0.
         11    1    3    3    0    0  0.21646443905E+03 -0.24357471029E+03  0.12526764618E+03  0.34910954734E+03  0.00000000000E+00 0. -1.
        -11    1    3    3    0    0  0.15500321960E+03 -0.93760908710E+02  0.28355283237E+02  0.18336065056E+03  0.00000000000E+00 0.  1.
         22    1    1    2    0    0 -0.37146765865E+03  0.33733561900E+03 -0.23051758527E+04  0.23591564707E+04  0.00000000000E+00 0.  1.
<mgrwt>
<rscale>  0 0.19319226E+04</rscale>
<asrwt>0</asrwt>
<pdfrwt beam="1">  1        4 0.56928750E-01 0.19319226E+04</pdfrwt>
<pdfrwt beam="2">  1       -4 0.38793689E+00 0.19319226E+04</pdfrwt>
<totfact> 0.45575159E-02</totfact>
</mgrwt>
</event>
<event>
 6    1  0.1585031E-006  0.2505802E+04  0.7818608E-02  0.8400922E-01
         -2   -1    0    0    0  501 -0.00000000000E+00  0.00000000000E+00  0.45963707911E+03  0.45963707911E+03  0.00000000000E+00 0.  1.
          2   -1    0    0  501    0  0.00000000000E+00 -0.00000000000E+00 -0.34152169583E+04  0.34152169583E+04  0.00000000000E+00 0. -1.
         23    2    1    2    0    0 -0.21260657624E+03  0.58413847937E+03 -0.31589139111E+04  0.32208173045E+04  0.92237150304E+02 0.  0.
         11    1    3    3    0    0 -0.20804552220E+03  0.54781629450E+03 -0.28411280573E+04  0.29009298975E+04  0.00000000000E+00 0. -1.
        -11    1    3    3    0    0 -0.45610540391E+01  0.36322184874E+02 -0.31778585381E+03  0.31988740708E+03  0.00000000000E+00 0.  1.
         22    1    1    2    0    0  0.21260657624E+03 -0.58413847937E+03  0.20333403198E+03  0.65403673284E+03  0.00000000000E+00 0.  1.
<mgrwt>
<rscale>  0 0.25058015E+04</rscale>
<asrwt>0</asrwt>
<pdfrwt beam="1">  1        2 0.52541801E+00 0.25058015E+04</pdfrwt>
<pdfrwt beam="2">  1       -2 0.70713395E-01 0.25058015E+04</pdfrwt>
<totfact> 0.15101346E+00</totfact>
</mgrwt>
</event>
<event>
 6    1  0.1585031E-006  0.4078897E+04  0.7818608E-02  0.7988817E-01
         -1   -1    0    0    0  501 -0.00000000000E+00  0.00000000000E+00  0.11153549921E+04  0.11153549921E+04  0.00000000000E+00 0.  1.
          1   -1    0    0  501    0  0.00000000000E+00 -0.00000000000E+00 -0.37291724627E+04  0.37291724627E+04  0.00000000000E+00 0. -1.
         23    2    1    2    0    0 -0.10620774759E+04  0.12114575738E+04 -0.27905904828E+04  0.32237601316E+04  0.97959812966E+02 0.  0.
         13    1    3    3    0    0 -0.18490015020E+03  0.26704266250E+03 -0.58811647525E+03  0.67184882049E+03  0.00000000000E+00 0.  1.
        -13    1    3    3    0    0 -0.87717732573E+03  0.94441491130E+03 -0.22024740076E+04  0.25519113111E+04  0.00000000000E+00 0. -1.
         22    1    1    2    0    0  0.10620774759E+04 -0.12114575738E+04  0.17677301222E+03  0.16207673232E+04  0.00000000000E+00 0.  1.
<mgrwt>
<rscale>  0 0.40788975E+04</rscale>
<asrwt>0</asrwt>
<pdfrwt beam="1">  1        1 0.57371884E+00 0.40788975E+04</pdfrwt>
<pdfrwt beam="2">  1       -1 0.17159308E+00 0.40788975E+04</pdfrwt>
<totfact> 0.30337544E-02</totfact>
</mgrwt>
</event>
<event>
 6    1  0.1585031E-006  0.3368005E+04  0.7818608E-02  0.8145804E-01
         -1   -1    0    0    0  501 -0.00000000000E+00  0.00000000000E+00  0.12318751329E+04  0.12318751329E+04  0.00000000000E+00 0.  1.
          1   -1    0    0  501    0  0.00000000000E+00 -0.00000000000E+00 -0.23020710289E+04  0.23020710289E+04  0.00000000000E+00 0. -1.
         23    2    1    2    0    0 -0.58359539890E+03 -0.53335979306E+03  0.10231461196E+04  0.12962828598E+04  0.92005500445E+02 0.  0.
         11    1    3    3    0    0 -0.84113603508E+02 -0.11720751737E+03  0.21826518342E+03  0.26163407789E+03  0.00000000000E+00 0. -1.
        -11    1    3    3    0    0 -0.49948179539E+03 -0.41615227569E+03  0.80488093622E+03  0.10346487819E+04  0.00000000000E+00 0.  1.
         22    1    1    2    0    0  0.58359539890E+03  0.53335979306E+03 -0.20933420157E+04  0.22376633020E+04  0.00000000000E+00 0. -1.
<mgrwt>
<rscale>  0 0.33680048E+04</rscale>
<asrwt>0</asrwt>
<pdfrwt beam="1">  1        1 0.35416477E+00 0.33680048E+04</pdfrwt>
<pdfrwt beam="2">  1       -1 0.18951925E+00 0.33680048E+04</pdfrwt>
<totfact> 0.27249097E-01</totfact>
</mgrwt>
</event>
<event>
 6    1  0.1585031E-006  0.1690816E+04  0.7818608E-02  0.8766620E-01
         -2   -1    0    0    0  501 -0.00000000000E+00  0.00000000000E+00  0.65221364492E+03  0.65221364492E+03  0.00000000000E+00 0.  1.
          2   -1    0    0  501    0  0.00000000000E+00 -0.00000000000E+00 -0.10958292252E+04  0.10958292252E+04  0.00000000000E+00 0. -1.
         23    2    1    2    0    0  0.49798865365E+03  0.67625149759E+03 -0.29658968196E+03  0.89544366658E+03  0.92439890777E+02 0.  0.
         11    1    3    3    0    0  0.28588951949E+03  0.34930931699E+03 -0.11678004147E+03  0.46624821112E+03  0.00000000000E+00 0.  1.
        -11    1    3    3    0    0  0.21209913416E+03  0.32694218060E+03 -0.17980964049E+03  0.42919545545E+03  0.00000000000E+00 0. -1.
         22    1    1    2    0    0 -0.49798865365E+03 -0.67625149759E+03 -0.14702589834E+03  0.85259920358E+03  0.00000000000E+00 0. -1.
<mgrwt>
<rscale>  0 0.16908161E+04</rscale>
<asrwt>0</asrwt>
<pdfrwt beam="1">  1        2 0.16858911E+00 0.16908161E+04</pdfrwt>
<pdfrwt beam="2">  1       -2 0.10034056E+00 0.16908161E+04</pdfrwt>
<totfact> 0.17102510E+01</totfact>
</mgrwt>
</event>
<event>
 6    1  0.1585031E-006  0.5814716E+04  0.7818608E-02  0.7713809E-01
          2   -1    0    0  501    0  0.00000000000E+00  0.00000000000E+00  0.27348420316E+04  0.27348420316E+04  0.00000000000E+00 0. -1.
         -2   -1    0    0    0  501 -0.00000000000E+00 -0.00000000000E+00 -0.30907567014E+04  0.30907567014E+04  0.00000000000E+00 0.  1.
         23    2    1    2    0    0 -0.11911924440E+04 -0.14767097533E+04 -0.23841531376E+04  0.30483046512E+04  0.91454517062E+02 0.  0.
         11    1    3    3    0    0 -0.19990563221E+03 -0.20220105932E+03 -0.33240295814E+03  0.43742342960E+03  0.00000000000E+00 0. -1.
        -11    1    3    3    0    0 -0.99128681180E+03 -0.12745086940E+04 -0.20517501795E+04  0.26108812216E+04  0.00000000000E+00 0.  1.
         22    1    1    2    0    0  0.11911924440E+04  0.14767097533E+04  0.20282384679E+04  0.27772940818E+04  0.00000000000E+00 0. -1.
<mgrwt>
<rscale>  0 0.58147163E+04</rscale>
<asrwt>0</asrwt>
<pdfrwt beam="1">  1        2 0.42074493E+00 0.58147163E+04</pdfrwt>
<pdfrwt beam="2">  1       -2 0.47550103E+00 0.58147163E+04</pdfrwt>
<totfact> 0.41105229E-03</totfact>
</mgrwt>
</event>
<event>
 6    1  0.1585031E-006  0.3395985E+04  0.7818608E-02  0.8138892E-01
         -2   -1    0    0    0  501 -0.00000000000E+00  0.00000000000E+00  0.17827587436E+04  0.17827587436E+04  0.00000000000E+00 0.  1.
          2   -1    0    0  501    0  0.00000000000E+00 -0.00000000000E+00 -0.16172571583E+04  0.16172571583E+04  0.00000000000E+00 0. -1.
         23    2    1    2    0    0  0.30816966882E+03 -0.91532637842E+03 -0.13138531110E+04  0.16333010859E+04  0.93120975646E+02 0.  0.
         13    1    3    3    0    0  0.22583025371E+03 -0.68465270621E+03 -0.90984704204E+03  0.11608489443E+04  0.00000000000E+00 0.  1.
        -13    1    3    3    0    0  0.82339415108E+02 -0.23067367222E+03 -0.40400606895E+03  0.47245214158E+03  0.00000000000E+00 0. -1.
         22    1    1    2    0    0 -0.30816966882E+03  0.91532637842E+03  0.14793546963E+04  0.17667148161E+04  0.00000000000E+00 0.  1.
<mgrwt>
<rscale>  0 0.33959855E+04</rscale>
<asrwt>0</asrwt>
<pdfrwt beam="1">  1        2 0.24880879E+00 0.33959855E+04</pdfrwt>
<pdfrwt beam="2">  1       -2 0.27427058E+00 0.33959855E+04</pdfrwt>
<totfact> 0.41253194E-01</totfact>
</mgrwt>
</event>
<event>
 6    1  0.1585031E-006  0.5400135E+04  0.7818608E-02  0.7769582E-01
          2   -1    0    0  501    0  0.00000000000E+00  0.00000000000E+00  0.30178692416E+04  0.30178692416E+04  0.00000000000E+00 0. -1.
         -2   -1    0    0    0  501 -0.00000000000E+00 -0.00000000000E+00 -0.24157327431E+04  0.24157327431E+04  0.00000000000E+00 0.  1.
         23    2    1    2    0    0  0.69200898133E+03  0.21185044258E+04 -0.12313060481E+04  0.25476967535E+04  0.87787991173E+02 0.  0.
         13    1    3    3    0    0  0.22720492991E+03  0.79435112272E+03 -0.42296777686E+03  0.92817968444E+03  0.00000000000E+00 0.  1.
        -13    1    3    3    0    0  0.46480405142E+03  0.13241533031E+04 -0.80833827119E+03  0.16195170691E+04  0.00000000000E+00 0. -1.
         22    1    1    2    0    0 -0.69200898133E+03 -0.21185044258E+04  0.18334425465E+04  0.28859052313E+04  0.00000000000E+00 0. -1.
<mgrwt>
<rscale>  0 0.54001354E+04</rscale>
<asrwt>0</asrwt>
<pdfrwt beam="1">  1        2 0.46428758E+00 0.54001354E+04</pdfrwt>
<pdfrwt beam="2">  1       -2 0.37165119E+00 0.54001354E+04</pdfrwt>
<totfact> 0.13557775E-02</totfact>
</mgrwt>
</event>
<event>
 6    1  0.1585031E-006  0.2957772E+04  0.7818608E-02  0.8255893E-01
          2   -1    0    0  501    0  0.00000000000E+00  0.00000000000E+00  0.28928582780E+04  0.28928582780E+04  0.00000000000E+00 0. -1.
         -2   -1    0    0    0  501 -0.00000000000E+00 -0.00000000000E+00 -0.75603541918E+03  0.75603541918E+03  0.00000000000E+00 0.  1.
         23    2    1    2    0    0 -0.12297894923E+04  0.80954703067E+03  0.12212480483E+04  0.19151042567E+04  0.91809194683E+02 0.  0.
         11    1    3    3    0    0 -0.62416236323E+03  0.46101743615E+03  0.66676382874E+03  0.10230785578E+04  0.00000000000E+00 0. -1.
        -11    1    3    3    0    0 -0.60562712907E+03  0.34852959452E+03  0.55448421954E+03  0.89202569887E+03  0.00000000000E+00 0.  1.
         22    1    1    2    0    0  0.12297894923E+04 -0.80954703067E+03  0.91557481049E+03  0.17337894405E+04  0.00000000000E+00 0.  1.
<mgrwt>
<rscale>  0 0.29577717E+04</rscale>
<asrwt>0</asrwt>
<pdfrwt beam="1">  1        2 0.44505511E+00 0.29577717E+04</pdfrwt>
<pdfrwt beam="2">  1       -2 0.11631314E+00 0.29577717E+04</pdfrwt>
<totfact> 0.99928520E-01</totfact>
</mgrwt>
</event>
<event>
 6    1  0.1585031E-006  0.1853023E+04  0.7818608E-02  0.8678600E-01
          1   -1    0    0  501    0  0.00000000000E+00  0.00000000000E+00  0.18173750642E+04  0.18173750642E+04  0.00000000000E+00 0. -1.
         -1   -1    0    0    0  501 -0.00000000000E+00 -0.00000000000E+00 -0.47234239446E+03  0.47234239446E+03  0.00000000000E+00 0.  1.
         23    2    1    2    0    0 -0.89085880090E+02 -0.80482721875E+03  0.12425822725E+03  0.82480333643E+03  0.95798176827E+02 0.  0.
         13    1    3    3    0    0 -0.94379808498E+02 -0.44058319589E+03  0.83464443886E+02  0.45824383700E+03  0.00000000000E+00 0.  1.
        -13    1    3    3    0    0  0.52939284085E+01 -0.36424402286E+03  0.40793783366E+02  0.36655949944E+03  0.00000000000E+00 0. -1.
         22    1    1    2    0    0  0.89085880090E+02  0.80482721875E+03  0.12207744424E+04  0.14649141222E+04  0.00000000000E+00 0. -1.
<mgrwt>
<rscale>  0 0.18530227E+04</rscale>
<asrwt>0</asrwt>
<pdfrwt beam="1">  1        1 0.27959616E+00 0.18530227E+04</pdfrwt>
<pdfrwt beam="2">  1       -1 0.72668061E-01 0.18530227E+04</pdfrwt>
<totfact> 0.71117023E+00</totfact>
</mgrwt>
</event>
<event>
 6    1  0.1585031E-006  0.2304072E+04  0.7818608E-02  0.8476317E-01
          3   -1    0    0  501    0  0.00000000000E+00  0.00000000000E+00  0.54613299684E+03  0.54613299684E+03  0.00000000000E+00 0. -1.
         -3   -1    0    0    0  501 -0.00000000000E+00 -0.00000000000E+00 -0.24301524822E+04  0.24301524822E+04  0.00000000000E+00 0.  1.
         23    2    1    2    0    0 -0.39637423848E+03 -0.47748161210E+03  0.30750590981E+03  0.69859261465E+03  0.91490599803E+02 0.  0.
         11    1    3    3    0    0 -0.11462209268E+03 -0.14369463295E+03  0.13884567843E+03  0.23035731828E+03  0.00000000000E+00 0. -1.
        -11    1    3    3    0    0 -0.28175214580E+03 -0.33378697915E+03  0.16866023138E+03  0.46823529637E+03  0.00000000000E+00 0.  1.
         22    1    1    2    0    0  0.39637423848E+03  0.47748161210E+03 -0.21915253952E+04  0.22776928644E+04  0.00000000000E+00 0.  1.
<mgrwt>
<rscale>  0 0.23040716E+04</rscale>
<asrwt>0</asrwt>
<pdfrwt beam="1">  1        3 0.84020462E-01 0.23040716E+04</pdfrwt>
<pdfrwt beam="2">  1       -3 0.37386961E+00 0.23040716E+04</pdfrwt>
<totfact> 0.45519741E-02</totfact>
</mgrwt>
</event>
<event>
 6    1  0.1585031E-006  0.1183736E+04  0.7818608E-02  0.9127213E-01
          1   -1    0    0  501    0  0.00000000000E+00  0.00000000000E+00  0.68429488336E+03  0.68429488336E+03  0.00000000000E+00 0. -1.
         -1   -1    0    0    0  501 -0.00000000000E+00 -0.00000000000E+00 -0.51192508716E+03  0.51192508716E+03  0.00000000000E+00 0.  1.
         23    2    1    2    0    0  0.52526469534E+02  0.47280162087E+03  0.43500974588E+03  0.65282311199E+03  0.10317041164E+03 0.  0.
         13    1    3    3    0    0  0.89836108988E+01  0.10768516691E+03  0.45728980543E+02  0.11733686590E+03  0.00000000000E+00 0.  1.
        -13    1    3    3    0    0  0.43542858636E+02  0.36511645395E+03  0.38928076534E+03  0.53548624609E+03  0.00000000000E+00 0. -1.
         22    1    1    2    0    0 -0.52526469534E+02 -0.47280162087E+03 -0.26263994968E+03  0.54339685853E+03  0.00000000000E+00 0.  1.
<mgrwt>
<rscale>  0 0.11837360E+04</rscale>
<asrwt>0</asrwt>
<pdfrwt beam="1">  1        1 0.10527614E+00 0.11837360E+04</pdfrwt>
<pdfrwt beam="2">  1       -1 0.78757706E-01 0.11837360E+04</pdfrwt>
<totfact> 0.45082732E+01</totfact>
</mgrwt>
</event>
<event>
 6    1  0.1585031E-006  0.1689832E+04  0.7818608E-02  0.8767185E-01
          1   -1    0    0  501    0  0.00000000000E+00  0.00000000000E+00  0.19762054661E+04  0.19762054661E+04  0.00000000000E+00 0. -1.
         -1   -1    0    0    0  501 -0.00000000000E+00 -0.00000000000E+00 -0.36123946731E+03  0.36123946731E+03  0.00000000000E+00 0.  1.
         23    2    1    2    0    0  0.53745475674E+03  0.49067952562E+03  0.22271121154E+03  0.76645880839E+03  0.90745847354E+02 0.  0.
         13    1    3    3    0    0  0.39165292459E+03  0.35425622334E+03  0.11852013692E+03  0.54123609263E+03  0.00000000000E+00 0.  1.
        -13    1    3    3    0    0  0.14580183215E+03  0.13642330229E+03  0.10419107462E+03  0.22522271576E+03  0.00000000000E+00 0. -1.
         22    1    1    2    0    0 -0.53745475674E+03 -0.49067952562E+03  0.13922547873E+04  0.15709861251E+04  0.00000000000E+00 0. -1.
<mgrwt>
<rscale>  0 0.16898324E+04</rscale>
<asrwt>0</asrwt>
<pdfrwt beam="1">  1        1 0.30403160E+00 0.16898324E+04</pdfrwt>
<pdfrwt beam="2">  1       -1 0.55575304E-01 0.16898324E+04</pdfrwt>
<totfact> 0.96471312E+00</totfact>
</mgrwt>
</event>
<event>
 6    1  0.1585031E-006  0.2020269E+04  0.7818608E-02  0.8597202E-01
         -1   -1    0    0    0  501 -0.00000000000E+00  0.00000000000E+00  0.38801879789E+03  0.38801879789E+03  0.00000000000E+00 0.  1.
          1   -1    0    0  501    0  0.00000000000E+00 -0.00000000000E+00 -0.26296973908E+04  0.26296973908E+04  0.00000000000E+00 0. -1.
         23    2    1    2    0    0  0.59612619486E+03  0.28787160017E+03 -0.22587632908E+04  0.23555014310E+04  0.90215790890E+02 0.  0.
         13    1    3    3    0    0  0.67025586117E+02  0.63172320642E+02 -0.26658387561E+03  0.28204633312E+03  0.00000000000E+00 0. -1.
        -13    1    3    3    0    0  0.52910060874E+03  0.22469927953E+03 -0.19921794152E+04  0.20734550979E+04  0.00000000000E+00 0.  1.
         22    1    1    2    0    0 -0.59612619486E+03 -0.28787160017E+03  0.17084697957E+02  0.66221475768E+03  0.00000000000E+00 0.  1.
<mgrwt>
<rscale>  0 0.20202693E+04</rscale>
<asrwt>0</asrwt>
<pdfrwt beam="1">  1        1 0.40456882E+00 0.20202693E+04</pdfrwt>
<pdfrwt beam="2">  1       -1 0.59695201E-01 0.20202693E+04</pdfrwt>
<totfact> 0.28997370E+00</totfact>
</mgrwt>
</event>
<event>
 6    1  0.1585031E-006  0.1311473E+04  0.7818608E-02  0.9020517E-01
          1   -1    0    0  501    0  0.00000000000E+00  0.00000000000E+00  0.78629787148E+03  0.78629787148E+03  0.00000000000E+00 0. -1.
         -1   -1    0    0    0  501 -0.00000000000E+00 -0.00000000000E+00 -0.54685388359E+03  0.54685388359E+03  0.00000000000E+00 0.  1.
         23    2    1    2    0    0 -0.13877729109E+03  0.29667067666E+03  0.69399149767E+03  0.77289639761E+03  0.92043553170E+02 0.  0.
         11    1    3    3    0    0 -0.17600215412E+02  0.22400312087E+02  0.14094406317E+03  0.14379419497E+03  0.00000000000E+00 0. -1.
        -11    1    3    3    0    0 -0.12117707568E+03  0.27427036458E+03  0.55304743450E+03  0.62910220263E+03  0.00000000000E+00 0.  1.
         22    1    1    2    0    0  0.13877729109E+03 -0.29667067666E+03 -0.45454750978E+03  0.56025535746E+03  0.00000000000E+00 0.  1.
<mgrwt>
<rscale>  0 0.13114725E+04</rscale>
<asrwt>0</asrwt>
<pdfrwt beam="1">  1        1 0.12096890E+00 0.13114725E+04</pdfrwt>
<pdfrwt beam="2">  1       -1 0.84131366E-01 0.13114725E+04</pdfrwt>
<totfact> 0.31251387E+01</totfact>
</mgrwt>
</event>
<event>
 6    1  0.1585031E-006  0.2818227E+04  0.7818608E-02  0.8297632E-01
          2   -1    0    0  501    0  0.00000000000E+00  0.00000000000E+00  0.23054285073E+04  0.23054285073E+04  0.00000000000E+00 0. -1.
         -2   -1    0    0    0  501 -0.00000000000E+00 -0.00000000000E+00 -0.86127176349E+03  0.86127176349E+03  0.00000000000E+00 0.  1.
         23    2    1    2    0    0  0.11277015185E+04  0.44501409336E+03  0.15266121606E+04  0.19515677044E+04  0.91233533838E+02 0.  0.
         11    1    3    3    0    0  0.73584055397E+03  0.26452941516E+03  0.92441291266E+03  0.12107751094E+04  0.00000000000E+00 0. -1.
        -11    1    3    3    0    0  0.39186096452E+03  0.18048467820E+03  0.60219924797E+03  0.74079259502E+03  0.00000000000E+00 0.  1.
         22    1    1    2    0    0 -0.11277015185E+04 -0.44501409336E+03 -0.82455416869E+02  0.12151325664E+04  0.00000000000E+00 0.  1.
<mgrwt>
<rscale>  0 0.28182267E+04</rscale>
<asrwt>0</asrwt>
<pdfrwt beam="1">  1        2 0.35468131E+00 0.28182267E+04</pdfrwt>
<pdfrwt beam="2">  1       -2 0.13250335E+00 0.28182267E+04</pdfrwt>
<totfact> 0.16181230E+00</totfact>
</mgrwt>
</event>
<event>
 6    1  0.1585031E-006  0.4025079E+03  0.7818608E-02  0.1042915E+00
         -2   -1    0    0    0  501 -0.00000000000E+00  0.00000000000E+00  0.30197240594E+03  0.30197240594E+03  0.00000000000E+00 0.  1.
          2   -1    0    0  501    0  0.00000000000E+00 -0.00000000000E+00 -0.13412864661E+03  0.13412864661E+03  0.00000000000E+00 0. -1.
         23    2    1    2    0    0  0.80234854207E+02  0.69543317636E+02 -0.83824155083E+02  0.16295156234E+03  0.90845020980E+02 0.  0.
         11    1    3    3    0    0  0.81422627576E+02  0.60696314014E+02 -0.26527547369E+02  0.10496379178E+03  0.00000000000E+00 0.  1.
        -11    1    3    3    0    0 -0.11877733695E+01  0.88470036221E+01 -0.57296607715E+02  0.57987770558E+02  0.00000000000E+00 0. -1.
         22    1    1    2    0    0 -0.80234854207E+02 -0.69543317636E+02  0.25166791441E+03  0.27314949021E+03  0.00000000000E+00 0.  1.
<mgrwt>
<rscale>  0 0.40250789E+03</rscale>
<asrwt>0</asrwt>
<pdfrwt beam="1">  1        2 0.20635177E-01 0.40250789E+03</pdfrwt>
<pdfrwt beam="2">  1       -2 0.46457293E-01 0.40250789E+03</pdfrwt>
<totfact> 0.11997984E+03</totfact>
</mgrwt>
</event>
<event>
 6    1  0.1585031E-006  0.2707834E+04  0.7818608E-02  0.8332467E-01
          1   -1    0    0  501    0  0.00000000000E+00  0.00000000000E+00  0.11140968380E+04  0.11140968380E+04  0.00000000000E+00 0. -1.
         -1   -1    0    0    0  501 -0.00000000000E+00 -0.00000000000E+00 -0.16453613727E+04  0.16453613727E+04  0.00000000000E+00 0.  1.
         23    2    1    2    0    0  0.84820666661E+03 -0.98158524912E+03  0.12417771247E+03  0.13059903954E+04  0.85009752730E+02 0.  0.
         11    1    3    3    0    0  0.55005311074E+03 -0.69180031814E+03  0.10083577462E+03  0.88955829390E+03  0.00000000000E+00 0.  1.
        -11    1    3    3    0    0  0.29815355588E+03 -0.28978493099E+03  0.23341937850E+02  0.41643210151E+03  0.00000000000E+00 0. -1.
         22    1    1    2    0    0 -0.84820666661E+03  0.98158524912E+03 -0.65544224717E+03  0.14534678152E+04  0.00000000000E+00 0.  1.
<mgrwt>
<rscale>  0 0.27078345E+04</rscale>
<asrwt>0</asrwt>
<pdfrwt beam="1">  1        1 0.17139951E+00 0.27078345E+04</pdfrwt>
<pdfrwt beam="2">  1       -1 0.25313252E+00 0.27078345E+04</pdfrwt>
<totfact> 0.71802831E-01</totfact>
</mgrwt>
</event>
<event>
 6    1  0.1585031E-006  0.4474875E+03  0.7818608E-02  0.1028474E+00
          2   -1    0    0  501    0  0.00000000000E+00  0.00000000000E+00  0.45853946127E+02  0.45853946127E+02  0.00000000000E+00 0.  1.
         -2   -1    0    0    0  501 -0.00000000000E+00 -0.00000000000E+00 -0.10917547251E+04  0.10917547251E+04  0.00000000000E+00 0. -1.
         23    2    1    2    0    0  0.10972389951E+03  0.17276802413E+03 -0.70612694851E+03  0.74095469085E+03  0.92252166286E+02 0.  0.
         11    1    3    3    0    0  0.89543810648E+02  0.56554331560E+02 -0.36199253420E+03  0.37716717946E+03  0.00000000000E+00 0. -1.
        -11    1    3    3    0    0  0.20180088865E+02  0.11621369257E+03 -0.34413441431E+03  0.36378751139E+03  0.00000000000E+00 0.  1.
         22    1    1    2    0    0 -0.10972389951E+03 -0.17276802413E+03 -0.33977383047E+03  0.39665398039E+03  0.00000000000E+00 0. -1.
<mgrwt>
<rscale>  0 0.44748749E+03</rscale>
<asrwt>0</asrwt>
<pdfrwt beam="1">  1        2 0.70544537E-02 0.44748749E+03</pdfrwt>
<pdfrwt beam="2">  1       -2 0.16796225E+00 0.44748749E+03</pdfrwt>
<totfact> 0.23497354E+02</totfact>
</mgrwt>
</event>
<event>
 6    1  0.1585031E-006  0.2542978E+04  0.7818608E-02  0.8387833E-01
         -2   -1    0    0    0  501 -0.00000000000E+00  0.00000000000E+00  0.17187756547E+04  0.17187756547E+04  0.00000000000E+00 0.  1.
          2   -1    0    0  501    0  0.00000000000E+00 -0.00000000000E+00 -0.94060202244E+03  0.94060202244E+03  0.00000000000E+00 0. -1.
         23    2    1    2    0    0  0.10898113516E+04 -0.62094200832E+03  0.59727556404E+03  0.13921042769E+04  0.89210193689E+02 0.  0.
         11    1    3    3    0    0  0.83297842667E+03 -0.51479439332E+03  0.45164948892E+03  0.10783568925E+04  0.00000000000E+00 0. -1.
        -11    1    3    3    0    0  0.25683292491E+03 -0.10614761500E+03  0.14562607512E+03  0.31374738445E+03  0.00000000000E+00 0.  1.
         22    1    1    2    0    0 -0.10898113516E+04  0.62094200832E+03  0.18089806817E+03  0.12672734002E+04  0.00000000000E+00 0. -1.
<mgrwt>
<rscale>  0 0.25429777E+04</rscale>
<asrwt>0</asrwt>
<pdfrwt beam="1">  1        2 0.14470800E+00 0.25429777E+04</pdfrwt>
<pdfrwt beam="2">  1       -2 0.26442702E+00 0.25429777E+04</pdfrwt>
<totfact> 0.12830044E+00</totfact>
</mgrwt>
</event>
<event>
 6    1  0.1585031E-006  0.2108530E+04  0.7818608E-02  0.8557495E-01
          2   -1    0    0  501    0  0.00000000000E+00  0.00000000000E+00  0.17653405452E+04  0.17653405452E+04  0.00000000000E+00 0. -1.
         -2   -1    0    0    0  501 -0.00000000000E+00 -0.00000000000E+00 -0.62960911950E+03  0.62960911950E+03  0.00000000000E+00 0.  1.
         23    2    1    2    0    0 -0.14817886947E+03  0.99086346461E+03  0.93431665887E+03  0.13730224212E+04  0.92062843218E+02 0.  0.
         11    1    3    3    0    0 -0.10826948734E+03  0.57865536733E+03  0.60241523402E+03  0.84229948961E+03  0.00000000000E+00 0.  1.
        -11    1    3    3    0    0 -0.39909382131E+02  0.41220809729E+03  0.33190142485E+03  0.53072293155E+03  0.00000000000E+00 0. -1.
         22    1    1    2    0    0  0.14817886947E+03 -0.99086346461E+03  0.20141476686E+03  0.10219272436E+04  0.00000000000E+00 0.  1.
<mgrwt>
<rscale>  0 0.21085298E+04</rscale>
<asrwt>0</asrwt>
<pdfrwt beam="1">  1        2 0.27159085E+00 0.21085298E+04</pdfrwt>
<pdfrwt beam="2">  1       -2 0.96862942E-01 0.21085298E+04</pdfrwt>
<totfact> 0.73971287E+00</totfact>
</mgrwt>
</event>
<event>
 6    1  0.1585031E-006  0.9310962E+03  0.7818608E-02  0.9387523E-01
         -1   -1    0    0    0  501 -0.00000000000E+00  0.00000000000E+00  0.14989761475E+03  0.14989761475E+03  0.00000000000E+00 0.  1.
          1   -1    0    0  501    0  0.00000000000E+00 -0.00000000000E+00 -0.14458871433E+04  0.14458871433E+04  0.00000000000E+00 0. -1.
         23    2    1    2    0    0  0.44825679439E+02  0.76757838853E+02 -0.14297063906E+04  0.14352191747E+04  0.88840355979E+02 0.  0.
         11    1    3    3    0    0  0.52628516796E+02  0.45376426036E+02 -0.48430066435E+03  0.48926057915E+03  0.00000000000E+00 0. -1.
        -11    1    3    3    0    0 -0.78028373577E+01  0.31381412817E+02 -0.94540572624E+03  0.94595859558E+03  0.00000000000E+00 0.  1.
         22    1    1    2    0    0 -0.44825679439E+02 -0.76757838853E+02  0.13371686202E+03  0.16056558334E+03  0.00000000000E+00 0.  1.
<mgrwt>
<rscale>  0 0.93109620E+03</rscale>
<asrwt>0</asrwt>
<pdfrwt beam="1">  1        1 0.22244417E+00 0.93109620E+03</pdfrwt>
<pdfrwt beam="2">  1       -1 0.23061172E-01 0.93109620E+03</pdfrwt>
<totfact> 0.11546462E+02</totfact>
</mgrwt>
</event>
<event>
 6    1  0.1585031E-006  0.1656220E+04  0.7818608E-02  0.8786735E-01
         -1   -1    0    0    0  501 -0.00000000000E+00  0.00000000000E+00  0.28514886771E+03  0.28514886771E+03  0.00000000000E+00 0.  1.
          1   -1    0    0  501    0  0.00000000000E+00 -0.00000000000E+00 -0.24049417225E+04  0.24049417225E+04  0.00000000000E+00 0. -1.
         23    2    1    2    0    0 -0.30272978160E+03  0.17058744857E+03 -0.22795111769E+04  0.23076571442E+04  0.91459778753E+02 0.  0.
         11    1    3    3    0    0 -0.16659820804E+03  0.42774588317E+02 -0.11590316921E+04  0.11717248361E+04  0.00000000000E+00 0.  1.
        -11    1    3    3    0    0 -0.13613157356E+03  0.12781286025E+03 -0.11204794849E+04  0.11359323081E+04  0.00000000000E+00 0. -1.
         22    1    1    2    0    0  0.30272978160E+03 -0.17058744857E+03  0.15971832207E+03  0.38243344609E+03  0.00000000000E+00 0.  1.
<mgrwt>
<rscale>  0 0.16562203E+04</rscale>
<asrwt>0</asrwt>
<pdfrwt beam="1">  1        1 0.36999104E+00 0.16562203E+04</pdfrwt>
<pdfrwt beam="2">  1       -1 0.43869056E-01 0.16562203E+04</pdfrwt>
<totfact> 0.77424215E+00</totfact>
</mgrwt>
</event>
<event>
 6    1  0.1585031E-006  0.1740783E+04  0.7818608E-02  0.8738440E-01
          4   -1    0    0  501    0  0.00000000000E+00  0.00000000000E+00  0.46627014040E+03  0.46627014040E+03  0.00000000000E+00 0. -1.
         -4   -1    0    0    0  501 -0.00000000000E+00 -0.00000000000E+00 -0.16247687057E+04  0.16247687057E+04  0.00000000000E+00 0.  1.
         23    2    1    2    0    0  0.67127982486E+03 -0.14572354669E+03 -0.12161459629E+04  0.14017093329E+04  0.11800887894E+03 0.  0.
         11    1    3    3    0    0  0.23931378552E+03 -0.54342819194E+02 -0.55320932453E+03  0.60519813837E+03  0.00000000000E+00 0.  1.
        -11    1    3    3    0    0  0.43196603934E+03 -0.91380727492E+02 -0.66293663833E+03  0.79651119449E+03  0.00000000000E+00 0. -1.
         22    1    1    2    0    0 -0.67127982486E+03  0.14572354669E+03  0.57647397596E+02  0.68932951320E+03  0.00000000000E+00 0. -1.
<mgrwt>
<rscale>  0 0.17407827E+04</rscale>
<asrwt>0</asrwt>
<pdfrwt beam="1">  1        4 0.71733867E-01 0.17407827E+04</pdfrwt>
<pdfrwt beam="2">  1       -4 0.24996442E+00 0.17407827E+04</pdfrwt>
<totfact> 0.21287664E-01</totfact>
</mgrwt>
</event>
<event>
 6    1  0.1585031E-006  0.1732302E+04  0.7818608E-02  0.8743153E-01
         -2   -1    0    0    0  501 -0.00000000000E+00  0.00000000000E+00  0.59103128982E+03  0.59103128982E+03  0.00000000000E+00 0.  1.
          2   -1    0    0  501    0  0.00000000000E+00 -0.00000000000E+00 -0.12693358521E+04  0.12693358521E+04  0.00000000000E+00 0. -1.
         23    2    1    2    0    0  0.38793424111E+03 -0.69641743279E+03  0.16626227732E+02  0.80281382459E+03  0.93506092724E+02 0.  0.
         11    1    3    3    0    0  0.14772661083E+03 -0.17936660923E+03 -0.21852957800E+01  0.23237966256E+03  0.00000000000E+00 0. -1.
        -11    1    3    3    0    0  0.24020763029E+03 -0.51705082356E+03  0.18811523512E+02  0.57043416203E+03  0.00000000000E+00 0.  1.
         22    1    1    2    0    0 -0.38793424111E+03  0.69641743279E+03 -0.69493079004E+03  0.10575533174E+04  0.00000000000E+00 0. -1.
<mgrwt>
<rscale>  0 0.17323016E+04</rscale>
<asrwt>0</asrwt>
<pdfrwt beam="1">  1        2 0.19528244E+00 0.17323016E+04</pdfrwt>
<pdfrwt beam="2">  1       -2 0.90927892E-01 0.17323016E+04</pdfrwt>
<totfact> 0.16879665E+01</totfact>
</mgrwt>
</event>
<event>
 6    1  0.1585031E-006  0.2543811E+04  0.7818608E-02  0.8387542E-01
         -1   -1    0    0    0  501 -0.00000000000E+00  0.00000000000E+00  0.43573586479E+03  0.43573586479E+03  0.00000000000E+00 0.  1.
          1   -1    0    0  501    0  0.00000000000E+00 -0.00000000000E+00 -0.37126705902E+04  0.37126705902E+04  0.00000000000E+00 0. -1.
         23    2    1    2    0    0  0.31750997793E+02 -0.85482767805E+03 -0.10907823008E+03  0.86708762560E+03  0.90578171603E+02 0.  0.
         11    1    3    3    0    0  0.55806025779E+02 -0.40102704791E+03 -0.31936659361E+02  0.40614893313E+03  0.00000000000E+00 0. -1.
        -11    1    3    3    0    0 -0.24055027986E+02 -0.45380063013E+03 -0.77141570715E+02  0.46093869247E+03  0.00000000000E+00 0.  1.
         22    1    1    2    0    0 -0.31750997793E+02  0.85482767805E+03 -0.31678564953E+04  0.32813188294E+04  0.00000000000E+00 0. -1.
<mgrwt>
<rscale>  0 0.25438111E+04</rscale>
<asrwt>0</asrwt>
<pdfrwt beam="1">  1        1 0.57118010E+00 0.25438111E+04</pdfrwt>
<pdfrwt beam="2">  1       -1 0.67036286E-01 0.25438111E+04</pdfrwt>
<totfact> 0.33647638E-01</totfact>
</mgrwt>
</event>
<event>
 6    1  0.1585031E-006  0.1332889E+04  0.7818608E-02  0.9003883E-01
          1   -1    0    0  501    0  0.00000000000E+00  0.00000000000E+00  0.29841993652E+03  0.29841993652E+03  0.00000000000E+00 0.  1.
         -1   -1    0    0    0  501 -0.00000000000E+00 -0.00000000000E+00 -0.14883334369E+04  0.14883334369E+04  0.00000000000E+00 0. -1.
         23    2    1    2    0    0  0.39665685883E+03 -0.35837820754E+02  0.11335832210E+03  0.42398470033E+03  0.91059891659E+02 0.  0.
         13    1    3    3    0    0  0.25644154590E+03  0.17176994104E+01  0.34406623955E+02  0.25874511150E+03  0.00000000000E+00 0. -1.
        -13    1    3    3    0    0  0.14021531294E+03 -0.37555520165E+02  0.78951698147E+02  0.16523958883E+03  0.00000000000E+00 0.  1.
         22    1    1    2    0    0 -0.39665685883E+03  0.35837820754E+02 -0.13032718225E+04  0.13627686731E+04  0.00000000000E+00 0. -1.
<mgrwt>
<rscale>  0 0.13328891E+04</rscale>
<asrwt>0</asrwt>
<pdfrwt beam="1">  1        1 0.45910760E-01 0.13328891E+04</pdfrwt>
<pdfrwt beam="2">  1       -1 0.22897437E+00 0.13328891E+04</pdfrwt>
<totfact> 0.83013159E+00</totfact>
</mgrwt>
</event>
<event>
 6    1  0.1585031E-006  0.2114528E+04  0.7818608E-02  0.8554871E-01
         -2   -1    0    0    0  501 -0.00000000000E+00  0.00000000000E+00  0.88144573303E+03  0.88144573303E+03  0.00000000000E+00 0.  1.
          2   -1    0    0  501    0  0.00000000000E+00 -0.00000000000E+00 -0.12681520053E+04  0.12681520053E+04  0.00000000000E+00 0. -1.
         23    2    1    2    0    0 -0.89356641780E+02  0.33252884261E+03  0.82035890097E+03  0.89438207040E+03  0.91490550631E+02 0.  0.
         11    1    3    3    0    0 -0.30171806176E+02  0.98949036950E+02  0.15155281879E+03  0.18349252487E+03  0.00000000000E+00 0.  1.
        -11    1    3    3    0    0 -0.59184835604E+02  0.23357980566E+03  0.66880608218E+03  0.71088954553E+03  0.00000000000E+00 0. -1.
         22    1    1    2    0    0  0.89356641780E+02 -0.33252884261E+03 -0.12070651732E+04  0.12552156679E+04  0.00000000000E+00 0. -1.
<mgrwt>
<rscale>  0 0.21145280E+04</rscale>
<asrwt>0</asrwt>
<pdfrwt beam="1">  1        2 0.19510031E+00 0.21145280E+04</pdfrwt>
<pdfrwt beam="2">  1       -2 0.13560704E+00 0.21145280E+04</pdfrwt>
<totfact> 0.61960990E+00</totfact>
</mgrwt>
</event>
<event>
 6    1  0.1585031E-006  0.1968293E+04  0.7818608E-02  0.8621590E-01
         -1   -1    0    0    0  501 -0.00000000000E+00  0.00000000000E+00  0.11349225812E+04  0.11349225812E+04  0.00000000000E+00 0.  1.
          1   -1    0    0  501    0  0.00000000000E+00 -0.00000000000E+00 -0.85340105467E+03  0.85340105467E+03  0.00000000000E+00 0. -1.
         23    2    1    2    0    0  0.29595476619E+03 -0.26197768887E+03  0.10493599855E+04  0.11247279944E+04  0.87379340552E+02 0.  0.
         11    1    3    3    0    0  0.21783631305E+03 -0.22089307836E+03  0.72532386176E+03  0.78888599669E+03  0.00000000000E+00 0.  1.
        -11    1    3    3    0    0  0.78118453145E+02 -0.41084610512E+02  0.32403612371E+03  0.33584199769E+03  0.00000000000E+00 0. -1.
         22    1    1    2    0    0 -0.29595476619E+03  0.26197768887E+03 -0.76783845890E+03  0.86359564152E+03  0.00000000000E+00 0. -1.
<mgrwt>
<rscale>  0 0.19682928E+04</rscale>
<asrwt>0</asrwt>
<pdfrwt beam="1">  1        1 0.13129247E+00 0.19682928E+04</pdfrwt>
<pdfrwt beam="2">  1       -1 0.17460347E+00 0.19682928E+04</pdfrwt>
<totfact> 0.42138100E+00</totfact>
</mgrwt>
</event>
<event>
 6    1  0.1585031E-006  0.3189623E+04  0.7818608E-02  0.8191563E-01
         -1   -1    0    0    0  501 -0.00000000000E+00  0.00000000000E+00  0.10748449375E+04  0.10748449375E+04  0.00000000000E+00 0.  1.
          1   -1    0    0  501    0  0.00000000000E+00 -0.00000000000E+00 -0.23663165981E+04  0.23663165981E+04  0.00000000000E+00 0. -1.
         23    2    1    2    0    0 -0.71528567900E+03  0.33089446183E+03  0.84804415966E+03  0.11611061212E+04  0.88677959645E+02 0.  0.
         13    1    3    3    0    0 -0.96991384397E+02  0.31847701741E+02  0.72807045319E+02  0.12538927626E+03  0.00000000000E+00 0. -1.
        -13    1    3    3    0    0 -0.61829429461E+03  0.29904676009E+03  0.77523711434E+03  0.10357168449E+04  0.00000000000E+00 0.  1.
         22    1    1    2    0    0  0.71528567900E+03 -0.33089446183E+03 -0.21395158203E+04  0.22800554144E+04  0.00000000000E+00 0. -1.
<mgrwt>
<rscale>  0 0.31896228E+04</rscale>
<asrwt>0</asrwt>
<pdfrwt beam="1">  1        1 0.36404870E+00 0.31896228E+04</pdfrwt>
<pdfrwt beam="2">  1       -1 0.16536076E+00 0.31896228E+04</pdfrwt>
<totfact> 0.37368099E-01</totfact>
</mgrwt>
</event>
<event>
 6    1  0.1585031E-006  0.1821843E+04  0.7818608E-02  0.8694769E-01
          1   -1    0    0  501    0  0.00000000000E+00  0.00000000000E+00  0.85699608330E+03  0.85699608330E+03  0.00000000000E+00 0. -1.
         -1   -1    0    0    0  501 -0.00000000000E+00 -0.00000000000E+00 -0.96823993770E+03  0.96823993770E+03  0.00000000000E+00 0.  1.
         23    2    1    2    0    0 -0.85893062256E+03 -0.29419283232E+03 -0.92145729071E+02  0.91711930198E+03  0.91135842081E+02 0.  0.
         11    1    3    3    0    0 -0.60881015130E+03 -0.25155803235E+03 -0.64107851013E+02  0.66184670470E+03  0.00000000000E+00 0. -1.
        -11    1    3    3    0    0 -0.25012047127E+03 -0.42634799966E+02 -0.28037878058E+02  0.25527259728E+03  0.00000000000E+00 0.  1.
         22    1    1    2    0    0  0.85893062256E+03  0.29419283232E+03 -0.19098125331E+02  0.90811671902E+03  0.00000000000E+00 0.  1.
<mgrwt>
<rscale>  0 0.18218428E+04</rscale>
<asrwt>0</asrwt>
<pdfrwt beam="1">  1        1 0.13184555E+00 0.18218428E+04</pdfrwt>
<pdfrwt beam="2">  1       -1 0.14895999E+00 0.18218428E+04</pdfrwt>
<totfact> 0.66160986E+00</totfact>
</mgrwt>
</event>
<event>
 6    1  0.1585031E-006  0.4922814E+04  0.7818608E-02  0.7840525E-01
          2   -1    0    0  501    0  0.00000000000E+00  0.00000000000E+00  0.36633089464E+04  0.36633089464E+04  0.00000000000E+00 0. -1.
         -2   -1    0    0    0  501 -0.00000000000E+00 -0.00000000000E+00 -0.16538390988E+04  0.16538390988E+04  0.00000000000E+00 0.  1.
         23    2    1    2    0    0  0.49099523245E+03 -0.20141934658E+04 -0.42648395594E+03  0.21184103927E+04  0.87877136466E+02 0.  0.
         13    1    3    3    0    0  0.40457506071E+02 -0.19527469433E+03 -0.15783691268E+02  0.20004534724E+03  0.00000000000E+00 0. -1.
        -13    1    3    3    0    0  0.45053772637E+03 -0.18189187715E+04 -0.41070026467E+03  0.19183650455E+04  0.00000000000E+00 0.  1.
         22    1    1    2    0    0 -0.49099523245E+03  0.20141934658E+04  0.24359538035E+04  0.31987376524E+04  0.00000000000E+00 0.  1.
<mgrwt>
<rscale>  0 0.49228137E+04</rscale>
<asrwt>0</asrwt>
<pdfrwt beam="1">  1        2 0.56358599E+00 0.49228137E+04</pdfrwt>
<pdfrwt beam="2">  1       -2 0.25443679E+00 0.49228137E+04</pdfrwt>
<totfact> 0.27383582E-02</totfact>
</mgrwt>
</event>
<event>
 6    1  0.1585031E-006  0.9276070E+03  0.7818608E-02  0.9391714E-01
         -1   -1    0    0    0  501 -0.00000000000E+00  0.00000000000E+00  0.89035812067E+02  0.89035812067E+02  0.00000000000E+00 0.  1.
          1   -1    0    0  501    0  0.00000000000E+00 -0.00000000000E+00 -0.24160354410E+04  0.24160354410E+04  0.00000000000E+00 0. -1.
         23    2    1    2    0    0  0.42938338427E+03 -0.12682897625E+03 -0.14398147352E+04  0.15113143836E+04  0.10270839559E+03 0.  0.
         13    1    3    3    0    0  0.84569347756E+01 -0.20191060087E+02 -0.38772302688E+02  0.44525162650E+02  0.00000000000E+00 0. -1.
        -13    1    3    3    0    0  0.42092644950E+03 -0.10663791616E+03 -0.14010424325E+04  0.14667892209E+04  0.00000000000E+00 0.  1.
         22    1    1    2    0    0 -0.42938338427E+03  0.12682897625E+03 -0.88718489374E+03  0.99375686945E+03  0.00000000000E+00 0.  1.
<mgrwt>
<rscale>  0 0.92760698E+03</rscale>
<asrwt>0</asrwt>
<pdfrwt beam="1">  1        1 0.37169779E+00 0.92760698E+03</pdfrwt>
<pdfrwt beam="2">  1       -1 0.13697816E-01 0.92760698E+03</pdfrwt>
<totfact> 0.60319692E+01</totfact>
</mgrwt>
</event>
<event>
 6    1  0.1585031E-006  0.1181882E+04  0.7818608E-02  0.9128864E-01
         -3   -1    0    0    0  501 -0.00000000000E+00  0.00000000000E+00  0.17095726669E+04  0.17095726669E+04  0.00000000000E+00 0.  1.
          3   -1    0    0  501    0  0.00000000000E+00 -0.00000000000E+00 -0.20426831722E+03  0.20426831722E+03  0.00000000000E+00 0. -1.
         23    2    1    2    0    0 -0.55830541719E+03 -0.10179201466E+03  0.51036960897E+03  0.76843202162E+03  0.89129574067E+02 0.  0.
         11    1    3    3    0    0 -0.32118563328E+03 -0.83077778180E+02  0.34570577576E+03  0.47913944906E+03  0.00000000000E+00 0. -1.
        -11    1    3    3    0    0 -0.23711978391E+03 -0.18714236481E+02  0.16466383321E+03  0.28929257255E+03  0.00000000000E+00 0.  1.
         22    1    1    2    0    0  0.55830541719E+03  0.10179201466E+03  0.99493474068E+03  0.11454089625E+04  0.00000000000E+00 0.  1.
<mgrwt>
<rscale>  0 0.11818825E+04</rscale>
<asrwt>0</asrwt>
<pdfrwt beam="1">  1        3 0.31425896E-01 0.11818825E+04</pdfrwt>
<pdfrwt beam="2">  1       -3 0.26301117E+00 0.11818825E+04</pdfrwt>
<totfact> 0.15916356E+00</totfact>
</mgrwt>
</event>
<event>
 6    1  0.1585031E-006  0.2036309E+04  0.7818608E-02  0.8589831E-01
          2   -1    0    0  501    0  0.00000000000E+00  0.00000000000E+00  0.20620395773E+04  0.20620395773E+04  0.00000000000E+00 0. -1.
         -2   -1    0    0    0  501 -0.00000000000E+00 -0.00000000000E+00 -0.50272503681E+03  0.50272503681E+03  0.00000000000E+00 0.  1.
         23    2    1    2    0    0 -0.34737157668E+03  0.73027237241E+03  0.15561440350E+04  0.17560775286E+04  0.90880572810E+02 0.  0.
         13    1    3    3    0    0 -0.30145059081E+03  0.62076573412E+03  0.13898067172E+04  0.15517039881E+04  0.00000000000E+00 0.  1.
        -13    1    3    3    0    0 -0.45920985869E+02  0.10950663829E+03  0.16633731775E+03  0.20437354048E+03  0.00000000000E+00 0. -1.
         22    1    1    2    0    0  0.34737157668E+03 -0.73027237241E+03  0.31705054875E+01  0.80868708552E+03  0.00000000000E+00 0.  1.
<mgrwt>
<rscale>  0 0.20363093E+04</rscale>
<asrwt>0</asrwt>
<pdfrwt beam="1">  1        2 0.31723685E+00 0.20363093E+04</pdfrwt>
<pdfrwt beam="2">  1       -2 0.77342314E-01 0.20363093E+04</pdfrwt>
<totfact> 0.85216108E+00</totfact>
</mgrwt>
</event>
<event>
 6    1  0.1585031E-006  0.2224811E+04  0.7818608E-02  0.8508172E-01
          1   -1    0    0  501    0  0.00000000000E+00  0.00000000000E+00  0.78430414654E+03  0.78430414654E+03  0.00000000000E+00 0. -1.
         -1   -1    0    0    0  501 -0.00000000000E+00 -0.00000000000E+00 -0.15777631636E+04  0.15777631636E+04  0.00000000000E+00 0.  1.
         23    2    1    2    0    0  0.70087833228E+03  0.86139442287E+03 -0.39593484604E+03  0.11825520474E+04  0.91837651130E+02 0.  0.
         11    1    3    3    0    0  0.86101272773E+02  0.13171066384E+03 -0.27479840355E+02  0.15973812872E+03  0.00000000000E+00 0. -1.
        -11    1    3    3    0    0  0.61477705951E+03  0.72968375903E+03 -0.36845500569E+03  0.10228139187E+04  0.00000000000E+00 0.  1.
         22    1    1    2    0    0 -0.70087833228E+03 -0.86139442287E+03 -0.39752417100E+03  0.11795152627E+04  0.00000000000E+00 0. -1.
<mgrwt>
<rscale>  0 0.22248112E+04</rscale>
<asrwt>0</asrwt>
<pdfrwt beam="1">  1        1 0.12066218E+00 0.22248112E+04</pdfrwt>
<pdfrwt beam="2">  1       -1 0.24273279E+00 0.22248112E+04</pdfrwt>
<totfact> 0.16150671E+00</totfact>
</mgrwt>
</event>
<event>
 6    1  0.1585031E-006  0.5309009E+04  0.7818608E-02  0.7782531E-01
          2   -1    0    0  501    0  0.00000000000E+00  0.00000000000E+00  0.39257203551E+04  0.39257203551E+04  0.00000000000E+00 0. -1.
         -2   -1    0    0    0  501 -0.00000000000E+00 -0.00000000000E+00 -0.17949301270E+04  0.17949301270E+04  0.00000000000E+00 0.  1.
         23    2    1    2    0    0 -0.20951881541E+04 -0.82025261617E+03  0.25817902498E+04  0.34258675350E+04  0.91102786551E+02 0.  0.
         13    1    3    3    0    0 -0.63235566646E+03 -0.29201490296E+03  0.81033886886E+03  0.10685483025E+04  0.00000000000E+00 0. -1.
        -13    1    3    3    0    0 -0.14628324876E+04 -0.52823771322E+03  0.17714513810E+04  0.23573192324E+04  0.00000000000E+00 0.  1.
         22    1    1    2    0    0  0.20951881541E+04  0.82025261617E+03 -0.45100002174E+03  0.22947829472E+04  0.00000000000E+00 0.  1.
<mgrwt>
<rscale>  0 0.53090088E+04</rscale>
<asrwt>0</asrwt>
<pdfrwt beam="1">  1        2 0.60395698E+00 0.53090088E+04</pdfrwt>
<pdfrwt beam="2">  1       -2 0.27614310E+00 0.53090088E+04</pdfrwt>
<totfact> 0.12337137E-02</totfact>
</mgrwt>
</event>
<event>
 6    1  0.1585031E-006  0.3473727E+04  0.7818608E-02  0.8120045E-01
          1   -1    0    0  501    0  0.00000000000E+00  0.00000000000E+00  0.23983231530E+04  0.23983231530E+04  0.00000000000E+00 0. -1.
         -1   -1    0    0    0  501 -0.00000000000E+00 -0.00000000000E+00 -0.12578347185E+04  0.12578347185E+04  0.00000000000E+00 0.  1.
         23    2    1    2    0    0  0.15381577265E+04  0.60678967797E+03  0.11259058187E+04  0.20025752283E+04  0.92307786508E+02 0.  0.
         11    1    3    3    0    0  0.85603310373E+03  0.28829788774E+03  0.61521312788E+03  0.10928840467E+04  0.00000000000E+00 0. -1.
        -11    1    3    3    0    0  0.68212462278E+03  0.31849179024E+03  0.51069269087E+03  0.90969118164E+03  0.00000000000E+00 0.  1.
         22    1    1    2    0    0 -0.15381577265E+04 -0.60678967797E+03  0.14582615750E+02  0.16535826431E+04  0.00000000000E+00 0.  1.
<mgrwt>
<rscale>  0 0.34737266E+04</rscale>
<asrwt>0</asrwt>
<pdfrwt beam="1">  1        1 0.36897279E+00 0.34737266E+04</pdfrwt>
<pdfrwt beam="2">  1       -1 0.19351303E+00 0.34737266E+04</pdfrwt>
<totfact> 0.21743719E-01</totfact>
</mgrwt>
</event>
<event>
 6    1  0.1585031E-006  0.4117080E+04  0.7818608E-02  0.7981335E-01
          2   -1    0    0  501    0  0.00000000000E+00  0.00000000000E+00  0.26498917332E+04  0.26498917332E+04  0.00000000000E+00 0. -1.
         -2   -1    0    0    0  501 -0.00000000000E+00 -0.00000000000E+00 -0.15991547756E+04  0.15991547756E+04  0.00000000000E+00 0.  1.
         23    2    1    2    0    0 -0.17084674430E+04 -0.47877868790E+03  0.16008415498E+04  0.23914391504E+04  0.90540084999E+02 0.  0.
         13    1    3    3    0    0 -0.79519048577E+03 -0.26689593641E+03  0.77695127378E+03  0.11433348728E+04  0.00000000000E+00 0.  1.
        -13    1    3    3    0    0 -0.91327695719E+03 -0.21188275149E+03  0.82389027600E+03  0.12481042776E+04  0.00000000000E+00 0. -1.
         22    1    1    2    0    0  0.17084674430E+04  0.47877868790E+03 -0.55010459220E+03  0.18576073584E+04  0.00000000000E+00 0.  1.
<mgrwt>
<rscale>  0 0.41170800E+04</rscale>
<asrwt>0</asrwt>
<pdfrwt beam="1">  1        2 0.40767565E+00 0.41170800E+04</pdfrwt>
<pdfrwt beam="2">  1       -2 0.24602381E+00 0.41170800E+04</pdfrwt>
<totfact> 0.15109048E-01</totfact>
</mgrwt>
</event>
<event>
 6    1  0.1585031E-006  0.3089790E+04  0.7818608E-02  0.8218545E-01
         -2   -1    0    0    0  501 -0.00000000000E+00  0.00000000000E+00  0.20170836139E+04  0.20170836139E+04  0.00000000000E+00 0.  1.
          2   -1    0    0  501    0  0.00000000000E+00 -0.00000000000E+00 -0.11832435297E+04  0.11832435297E+04  0.00000000000E+00 0. -1.
         23    2    1    2    0    0 -0.30332451134E+03 -0.74549528067E+03 -0.94589626345E+03  0.12470656557E+04  0.11262342473E+03 0.  0.
         13    1    3    3    0    0 -0.19955722566E+03 -0.34548012208E+03 -0.44379800953E+03  0.59677154283E+03  0.00000000000E+00 0.  1.
        -13    1    3    3    0    0 -0.10376728568E+03 -0.40001515859E+03 -0.50209825392E+03  0.65029411290E+03  0.00000000000E+00 0. -1.
         22    1    1    2    0    0  0.30332451134E+03  0.74549528067E+03  0.17797363477E+04  0.19532614879E+04  0.00000000000E+00 0.  1.
<mgrwt>
<rscale>  0 0.30897904E+04</rscale>
<asrwt>0</asrwt>
<pdfrwt beam="1">  1        2 0.18203747E+00 0.30897904E+04</pdfrwt>
<pdfrwt beam="2">  1       -2 0.31032056E+00 0.30897904E+04</pdfrwt>
<totfact> 0.45241938E-01</totfact>
</mgrwt>
</event>
<event>
 6    1  0.1585031E-006  0.2286791E+04  0.7818608E-02  0.8483148E-01
          2   -1    0    0  501    0  0.00000000000E+00  0.00000000000E+00  0.32393461337E+04  0.32393461337E+04  0.00000000000E+00 0.  1.
         -2   -1    0    0    0  501 -0.00000000000E+00 -0.00000000000E+00 -0.40358541628E+03  0.40358541628E+03  0.00000000000E+00 0. -1.
         23    2    1    2    0    0 -0.84723675581E+02 -0.10762180359E+04  0.20126912905E+04  0.22854093058E+04  0.82134658815E+02 0.  0.
         11    1    3    3    0    0 -0.24162347730E+02 -0.74201070465E+03  0.13447891781E+04  0.15361059984E+04  0.00000000000E+00 0. -1.
        -11    1    3    3    0    0 -0.60561327851E+02 -0.33420733123E+03  0.66790211238E+03  0.74930330735E+03  0.00000000000E+00 0.  1.
         22    1    1    2    0    0  0.84723675581E+02  0.10762180359E+04  0.82306942695E+03  0.13575222442E+04  0.00000000000E+00 0. -1.
<mgrwt>
<rscale>  0 0.22867906E+04</rscale>
<asrwt>0</asrwt>
<pdfrwt beam="1">  1        2 0.49836093E+00 0.22867906E+04</pdfrwt>
<pdfrwt beam="2">  1       -2 0.62090066E-01 0.22867906E+04</pdfrwt>
<totfact> 0.26751711E+00</totfact>
</mgrwt>
</event>
<event>
 6    1  0.1585031E-006  0.3501220E+03  0.7818608E-02  0.1062565E+00
         -1   -1    0    0    0  501 -0.00000000000E+00  0.00000000000E+00  0.30028937244E+02  0.30028937244E+02  0.00000000000E+00 0.  1.
          1   -1    0    0  501    0  0.00000000000E+00 -0.00000000000E+00 -0.10205607811E+04  0.10205607811E+04  0.00000000000E+00 0. -1.
         23    2    1    2    0    0  0.14318223952E+03  0.54604887033E+02 -0.35980573827E+03  0.40151478610E+03  0.90945625298E+02 0.  0.
         11    1    3    3    0    0  0.35041835503E+02  0.55168076934E+02 -0.93390672601E+02  0.11398800234E+03  0.00000000000E+00 0. -1.
        -11    1    3    3    0    0  0.10814040402E+03 -0.56318990118E+00 -0.26641506567E+03  0.28752678376E+03  0.00000000000E+00 0.  1.
         22    1    1    2    0    0 -0.14318223952E+03 -0.54604887033E+02 -0.63072610554E+03  0.64907493220E+03  0.00000000000E+00 0. -1.
<mgrwt>
<rscale>  0 0.35012201E+03</rscale>
<asrwt>0</asrwt>
<pdfrwt beam="1">  1        1 0.15700933E+00 0.35012201E+03</pdfrwt>
<pdfrwt beam="2">  1       -1 0.46198373E-02 0.35012201E+03</pdfrwt>
<totfact> 0.30670095E+03</totfact>
</mgrwt>
</event>
<event>
 6    1  0.1585031E-006  0.1511711E+04  0.7818608E-02  0.8876702E-01
         -1   -1    0    0    0  501 -0.00000000000E+00  0.00000000000E+00  0.29447819675E+03  0.29447819675E+03  0.00000000000E+00 0.  1.
          1   -1    0    0  501    0  0.00000000000E+00 -0.00000000000E+00 -0.19401015107E+04  0.19401015107E+04  0.00000000000E+00 0. -1.
         23    2    1    2    0    0  0.51826846900E+03 -0.48463516615E+03 -0.45313795327E+03  0.84695771799E+03  0.92357572140E+02 0.  0.
         11    1    3    3    0    0  0.34618124835E+03 -0.33845611307E+03 -0.35708104173E+03  0.60158197076E+03  0.00000000000E+00 0. -1.
        -11    1    3    3    0    0  0.17208722065E+03 -0.14617905308E+03 -0.96056911540E+02  0.24537574722E+03  0.00000000000E+00 0.  1.
         22    1    1    2    0    0 -0.51826846900E+03  0.48463516615E+03 -0.11924853607E+04  0.13876219895E+04  0.00000000000E+00 0. -1.
<mgrwt>
<rscale>  0 0.15117111E+04</rscale>
<asrwt>0</asrwt>
<pdfrwt beam="1">  1        1 0.29847716E+00 0.15117111E+04</pdfrwt>
<pdfrwt beam="2">  1       -1 0.45304337E-01 0.15117111E+04</pdfrwt>
<totfact> 0.15301410E+01</totfact>
</mgrwt>
</event>
<event>
 6    1  0.1585031E-006  0.5959327E+03  0.7818608E-02  0.9913881E-01
          1   -1    0    0  501    0  0.00000000000E+00  0.00000000000E+00  0.17179240781E+03  0.17179240781E+03  0.00000000000E+00 0. -1.
         -1   -1    0    0    0  501 -0.00000000000E+00 -0.00000000000E+00 -0.51680943197E+03  0.51680943197E+03  0.00000000000E+00 0.  1.
         23    2    1    2    0    0  0.10749503278E+03 -0.22492433386E+03 -0.27593068024E+01  0.26517949373E+03  0.90368202858E+02 0.  0.
         11    1    3    3    0    0  0.94764504722E+01 -0.61047942892E+02 -0.35779961252E+02  0.71392297008E+02  0.00000000000E+00 0. -1.
        -11    1    3    3    0    0  0.98018582307E+02 -0.16387639097E+03  0.33020654450E+02  0.19378719673E+03  0.00000000000E+00 0.  1.
         22    1    1    2    0    0 -0.10749503278E+03  0.22492433386E+03 -0.34225771736E+03  0.42342234604E+03  0.00000000000E+00 0.  1.
<mgrwt>
<rscale>  0 0.59593267E+03</rscale>
<asrwt>0</asrwt>
<pdfrwt beam="1">  1        1 0.26429601E-01 0.59593267E+03</pdfrwt>
<pdfrwt beam="2">  1       -1 0.79509144E-01 0.59593267E+03</pdfrwt>
<totfact> 0.29135322E+02</totfact>
</mgrwt>
</event>
<event>
 6    1  0.1585031E-006  0.3180312E+04  0.7818608E-02  0.8194036E-01
          2   -1    0    0  501    0  0.00000000000E+00  0.00000000000E+00  0.87699219769E+03  0.87699219769E+03  0.00000000000E+00 0. -1.
         -2   -1    0    0    0  501 -0.00000000000E+00 -0.00000000000E+00 -0.28832601575E+04  0.28832601575E+04  0.00000000000E+00 0.  1.
         23    2    1    2    0    0  0.28499528967E+03 -0.13335565869E+04 -0.19681430167E+04  0.23960496588E+04  0.88721743314E+02 0.  0.
         13    1    3    3    0    0  0.99904952208E+02 -0.41663577516E+03 -0.54993165065E+03  0.69713068288E+03  0.00000000000E+00 0. -1.
        -13    1    3    3    0    0  0.18509033747E+03 -0.91692081172E+03 -0.14182113661E+04  0.16989189759E+04  0.00000000000E+00 0.  1.
         22    1    1    2    0    0 -0.28499528967E+03  0.13335565869E+04 -0.38124943099E+02  0.13642026964E+04  0.00000000000E+00 0. -1.
<mgrwt>
<rscale>  0 0.31803124E+04</rscale>
<asrwt>0</asrwt>
<pdfrwt beam="1">  1        2 0.13492188E+00 0.31803124E+04</pdfrwt>
<pdfrwt beam="2">  1       -2 0.44357848E+00 0.31803124E+04</pdfrwt>
<totfact> 0.98006961E-02</totfact>
</mgrwt>
</event>
<event>
 6    1  0.1585031E-006  0.3768675E+04  0.7818608E-02  0.8052911E-01
          2   -1    0    0  501    0  0.00000000000E+00  0.00000000000E+00  0.18571148777E+04  0.18571148777E+04  0.00000000000E+00 0. -1.
         -2   -1    0    0    0  501 -0.00000000000E+00 -0.00000000000E+00 -0.19119596001E+04  0.19119596001E+04  0.00000000000E+00 0.  1.
         23    2    1    2    0    0  0.44508571526E+03 -0.17383046580E+04  0.54442475990E+03  0.18772689142E+04  0.89083549531E+02 0.  0.
         11    1    3    3    0    0  0.44333780147E+03 -0.17089546486E+04  0.52462381830E+03  0.18418209869E+04  0.00000000000E+00 0.  1.
        -11    1    3    3    0    0  0.17479137867E+01 -0.29350009478E+02  0.19800941601E+02  0.35447927263E+02  0.00000000000E+00 0. -1.
         22    1    1    2    0    0 -0.44508571526E+03  0.17383046580E+04 -0.59926948228E+03  0.18918055636E+04  0.00000000000E+00 0.  1.
<mgrwt>
<rscale>  0 0.37686754E+04</rscale>
<asrwt>0</asrwt>
<pdfrwt beam="1">  1        2 0.28570998E+00 0.37686754E+04</pdfrwt>
<pdfrwt beam="2">  1       -2 0.29414763E+00 0.37686754E+04</pdfrwt>
<totfact> 0.22255621E-01</totfact>
</mgrwt>
</event>
<event>
 6    1  0.1585031E-006  0.1603955E+04  0.7818608E-02  0.8818122E-01
          2   -1    0    0  501    0  0.00000000000E+00  0.00000000000E+00  0.11292358550E+04  0.11292358550E+04  0.00000000000E+00 0. -1.
         -2   -1    0    0    0  501 -0.00000000000E+00 -0.00000000000E+00 -0.56956010820E+03  0.56956010820E+03  0.00000000000E+00 0.  1.
         23    2    1    2    0    0  0.21162344963E+03 -0.58564292803E+03 -0.25066678292E+03  0.67682867456E+03  0.86608862483E+02 0.  0.
         13    1    3    3    0    0  0.12786362461E+03 -0.36382963545E+03 -0.19981740952E+03  0.43433639875E+03  0.00000000000E+00 0.  1.
        -13    1    3    3    0    0  0.83759825013E+02 -0.22181329258E+03 -0.50849373398E+02  0.24249227581E+03  0.00000000000E+00 0. -1.
         22    1    1    2    0    0 -0.21162344963E+03  0.58564292803E+03  0.81034252975E+03  0.10219672887E+04  0.00000000000E+00 0. -1.
<mgrwt>
<rscale>  0 0.16039547E+04</rscale>
<asrwt>0</asrwt>
<pdfrwt beam="1">  1        2 0.17372859E+00 0.16039547E+04</pdfrwt>
<pdfrwt beam="2">  1       -2 0.87624632E-01 0.16039547E+04</pdfrwt>
<totfact> 0.22526061E+01</totfact>
</mgrwt>
</event>
<event>
 6    1  0.1585031E-006  0.3824834E+03  0.7818608E-02  0.1050020E+00
          1   -1    0    0  501    0  0.00000000000E+00  0.00000000000E+00  0.16807956624E+03  0.16807956624E+03  0.00000000000E+00 0. -1.
         -1   -1    0    0    0  501 -0.00000000000E+00 -0.00000000000E+00 -0.21759567118E+03  0.21759567118E+03  0.00000000000E+00 0.  1.
         23    2    1    2    0    0  0.46706438792E+02 -0.53000339687E+02 -0.19366660917E+03  0.22514519257E+03  0.90515605272E+02 0.  0.
         13    1    3    3    0    0  0.57965304384E+01 -0.60665591362E+02 -0.61502733410E+02  0.86582330515E+02  0.00000000000E+00 0. -1.
        -13    1    3    3    0    0  0.40909908353E+02  0.76652516755E+01 -0.13216387576E+03  0.13856286205E+03  0.00000000000E+00 0.  1.
         22    1    1    2    0    0 -0.46706438792E+02  0.53000339687E+02  0.14415050423E+03  0.16053004486E+03  0.00000000000E+00 0. -1.
<mgrwt>
<rscale>  0 0.38248339E+03</rscale>
<asrwt>0</asrwt>
<pdfrwt beam="1">  1        1 0.25858395E-01 0.38248339E+03</pdfrwt>
<pdfrwt beam="2">  1       -1 0.33476257E-01 0.38248339E+03</pdfrwt>
<totfact> 0.15559416E+03</totfact>
</mgrwt>
</event>
<event>
 6    1  0.1585031E-006  0.2242977E+04  0.7818608E-02  0.8500750E-01
          2   -1    0    0  501    0  0.00000000000E+00  0.00000000000E+00  0.16307764170E+04  0.16307764170E+04  0.00000000000E+00 0. -1.
         -2   -1    0    0    0  501 -0.00000000000E+00 -0.00000000000E+00 -0.77124989288E+03  0.77124989288E+03  0.00000000000E+00 0.  1.
         23    2    1    2    0    0 -0.23238309866E+03 -0.43150386630E+03 -0.64783779209E+03  0.81698855862E+03  0.87057503283E+02 0.  0.
         11    1    3    3    0    0 -0.58541863223E+02 -0.19591412215E+03 -0.24827379315E+03  0.32163546038E+03  0.00000000000E+00 0. -1.
        -11    1    3    3    0    0 -0.17384123544E+03 -0.23558974415E+03 -0.39956399894E+03  0.49535309824E+03  0.00000000000E+00 0.  1.
         22    1    1    2    0    0  0.23238309866E+03  0.43150386630E+03  0.15073643162E+04  0.15850377513E+04  0.00000000000E+00 0. -1.
<mgrwt>
<rscale>  0 0.22429767E+04</rscale>
<asrwt>0</asrwt>
<pdfrwt beam="1">  1        2 0.25088868E+00 0.22429767E+04</pdfrwt>
<pdfrwt beam="2">  1       -2 0.11865383E+00 0.22429767E+04</pdfrwt>
<totfact> 0.53321359E+00</totfact>
</mgrwt>
</event>
<event>
 6    1  0.1585031E-006  0.2995596E+04  0.7818608E-02  0.8244990E-01
          2   -1    0    0  501    0  0.00000000000E+00  0.00000000000E+00  0.19510031173E+04  0.19510031173E+04  0.00000000000E+00 0. -1.
         -2   -1    0    0    0  501 -0.00000000000E+00 -0.00000000000E+00 -0.11498693154E+04  0.11498693154E+04  0.00000000000E+00 0.  1.
         23    2    1    2    0    0  0.41318129146E+03  0.12927693075E+04 -0.25134148083E+03  0.13834105021E+04  0.93170894319E+02 0.  0.
         13    1    3    3    0    0  0.30660767109E+03  0.95639083121E+03 -0.22729063796E+03  0.10297342959E+04  0.00000000000E+00 0.  1.
        -13    1    3    3    0    0  0.10657362037E+03  0.33637847624E+03 -0.24050842870E+02  0.35367620626E+03  0.00000000000E+00 0. -1.
         22    1    1    2    0    0 -0.41318129146E+03 -0.12927693075E+04  0.10524752828E+04  0.17174619305E+04  0.00000000000E+00 0. -1.
<mgrwt>
<rscale>  0 0.29955958E+04</rscale>
<asrwt>0</asrwt>
<pdfrwt beam="1">  1        2 0.30015433E+00 0.29955958E+04</pdfrwt>
<pdfrwt beam="2">  1       -2 0.17690297E+00 0.29955958E+04</pdfrwt>
<totfact> 0.11608475E+00</totfact>
</mgrwt>
</event>
<event>
 6    1  0.1585031E-006  0.3069363E+04  0.7818608E-02  0.8224197E-01
         -2   -1    0    0    0  501 -0.00000000000E+00  0.00000000000E+00  0.95211522044E+03  0.95211522044E+03  0.00000000000E+00 0.  1.
          2   -1    0    0  501    0  0.00000000000E+00 -0.00000000000E+00 -0.24736998433E+04  0.24736998433E+04  0.00000000000E+00 0. -1.
         23    2    1    2    0    0  0.90744790158E+03  0.12331982632E+04 -0.85196795282E+03  0.17546998268E+04  0.94246692517E+02 0.  0.
         11    1    3    3    0    0  0.67393951422E+03  0.91132535352E+03 -0.67712530353E+03  0.13203056637E+04  0.00000000000E+00 0. -1.
        -11    1    3    3    0    0  0.23350838735E+03  0.32187290967E+03 -0.17484264929E+03  0.43439416312E+03  0.00000000000E+00 0.  1.
         22    1    1    2    0    0 -0.90744790158E+03 -0.12331982632E+04 -0.66961667005E+03  0.16711152370E+04  0.00000000000E+00 0. -1.
<mgrwt>
<rscale>  0 0.30693630E+04</rscale>
<asrwt>0</asrwt>
<pdfrwt beam="1">  1        2 0.38056920E+00 0.30693630E+04</pdfrwt>
<pdfrwt beam="2">  1       -2 0.14647927E+00 0.30693630E+04</pdfrwt>
<totfact> 0.97887215E-01</totfact>
</mgrwt>
</event>
<event>
 6    1  0.1585031E-006  0.2561270E+04  0.7818608E-02  0.8381477E-01
         -2   -1    0    0    0  501 -0.00000000000E+00  0.00000000000E+00  0.28689682662E+04  0.28689682662E+04  0.00000000000E+00 0.  1.
          2   -1    0    0  501    0  0.00000000000E+00 -0.00000000000E+00 -0.57164331732E+03  0.57164331732E+03  0.00000000000E+00 0. -1.
         23    2    1    2    0    0  0.28255040968E+03  0.39786804769E+03  0.27387202792E+04  0.27826119217E+04  0.64858474028E+02 0.  0.
         13    1    3    3    0    0  0.89517863874E+02  0.78281332594E+02  0.66620122260E+03  0.67673147110E+03  0.00000000000E+00 0.  1.
        -13    1    3    3    0    0  0.19303254581E+03  0.31958671510E+03  0.20725190566E+04  0.21058804506E+04  0.00000000000E+00 0. -1.
         22    1    1    2    0    0 -0.28255040968E+03 -0.39786804769E+03 -0.44139533030E+03  0.65799966185E+03  0.00000000000E+00 0. -1.
<mgrwt>
<rscale>  0 0.25612704E+04</rscale>
<asrwt>0</asrwt>
<pdfrwt beam="1">  1        2 0.87945128E-01 0.25612704E+04</pdfrwt>
<pdfrwt beam="2">  1       -2 0.44137972E+00 0.25612704E+04</pdfrwt>
<totfact> 0.18453119E-01</totfact>
</mgrwt>
</event>
<event>
 6    1  0.1585031E-006  0.1294141E+04  0.7818608E-02  0.9034224E-01
          2   -1    0    0  501    0  0.00000000000E+00  0.00000000000E+00  0.15526574718E+04  0.15526574718E+04  0.00000000000E+00 0. -1.
         -2   -1    0    0    0  501 -0.00000000000E+00 -0.00000000000E+00 -0.26966702721E+03  0.26966702721E+03  0.00000000000E+00 0.  1.
         23    2    1    2    0    0  0.60295630748E+03  0.11241346135E+02  0.96240989813E+03  0.11393497093E+04  0.90566393005E+02 0.  0.
         13    1    3    3    0    0  0.34411575180E+03 -0.33227279778E+02  0.50737971107E+03  0.61396569445E+03  0.00000000000E+00 0. -1.
        -13    1    3    3    0    0  0.25884055568E+03  0.44468625913E+02  0.45503018706E+03  0.52538401488E+03  0.00000000000E+00 0.  1.
         22    1    1    2    0    0 -0.60295630748E+03 -0.11241346135E+02  0.32058054650E+03  0.68297478971E+03  0.00000000000E+00 0.  1.
<mgrwt>
<rscale>  0 0.12941415E+04</rscale>
<asrwt>0</asrwt>
<pdfrwt beam="1">  1        2 0.23887038E+00 0.12941415E+04</pdfrwt>
<pdfrwt beam="2">  1       -2 0.41487236E-01 0.12941415E+04</pdfrwt>
<totfact> 0.63965676E+01</totfact>
</mgrwt>
</event>
<event>
 6    1  0.1585031E-006  0.3107161E+04  0.7818608E-02  0.8213775E-01
         -1   -1    0    0    0  501 -0.00000000000E+00  0.00000000000E+00  0.11669297357E+04  0.11669297357E+04  0.00000000000E+00 0.  1.
          1   -1    0    0  501    0  0.00000000000E+00 -0.00000000000E+00 -0.20683446359E+04  0.20683446359E+04  0.00000000000E+00 0. -1.
         23    2    1    2    0    0  0.41495072957E+03 -0.11542220058E+04 -0.14416521595E+04  0.18950248266E+04  0.91354242966E+02 0.  0.
         13    1    3    3    0    0  0.16978208636E+03 -0.39911652005E+03 -0.45469156221E+03  0.62838234394E+03  0.00000000000E+00 0. -1.
        -13    1    3    3    0    0  0.24516864320E+03 -0.75510548573E+03 -0.98696059734E+03  0.12666424827E+04  0.00000000000E+00 0.  1.
         22    1    1    2    0    0 -0.41495072957E+03  0.11542220058E+04  0.54023725932E+03  0.13402495450E+04  0.00000000000E+00 0.  1.
<mgrwt>
<rscale>  0 0.31071613E+04</rscale>
<asrwt>0</asrwt>
<pdfrwt beam="1">  1        1 0.31820687E+00 0.31071613E+04</pdfrwt>
<pdfrwt beam="2">  1       -1 0.17952765E+00 0.31071613E+04</pdfrwt>
<totfact> 0.47365896E-01</totfact>
</mgrwt>
</event>
<event>
 6    1  0.1585031E-006  0.7848597E+03  0.7818608E-02  0.9582194E-01
         -2   -1    0    0    0  501 -0.00000000000E+00  0.00000000000E+00  0.17073436415E+03  0.17073436415E+03  0.00000000000E+00 0.  1.
          2   -1    0    0  501    0  0.00000000000E+00 -0.00000000000E+00 -0.90199293466E+03  0.90199293466E+03  0.00000000000E+00 0. -1.
         23    2    1    2    0    0 -0.33633077210E+03  0.10196296358E+03 -0.14852260653E+03  0.39221569867E+03  0.90880995956E+02 0.  0.
         11    1    3    3    0    0 -0.50108234350E+02  0.51833137700E+02 -0.36323637889E+02  0.80727417790E+02  0.00000000000E+00 0. -1.
        -11    1    3    3    0    0 -0.28622253775E+03  0.50129825878E+02 -0.11219896864E+03  0.31148828088E+03  0.00000000000E+00 0.  1.
         22    1    1    2    0    0  0.33633077210E+03 -0.10196296358E+03 -0.58273596398E+03  0.68051160014E+03  0.00000000000E+00 0. -1.
<mgrwt>
<rscale>  0 0.78485971E+03</rscale>
<asrwt>0</asrwt>
<pdfrwt beam="1">  1        2 0.13876814E+00 0.78485971E+03</pdfrwt>
<pdfrwt beam="2">  1       -2 0.26266826E-01 0.78485971E+03</pdfrwt>
<totfact> 0.38480920E+02</totfact>
</mgrwt>
</event>
<event>
 6    1  0.1585031E-006  0.3883029E+04  0.7818608E-02  0.8028568E-01
          2   -1    0    0  501    0  0.00000000000E+00  0.00000000000E+00  0.23193161305E+04  0.23193161305E+04  0.00000000000E+00 0. -1.
         -2   -1    0    0    0  501 -0.00000000000E+00 -0.00000000000E+00 -0.16252545121E+04  0.16252545121E+04  0.00000000000E+00 0.  1.
         23    2    1    2    0    0  0.69319886746E+03 -0.12284470479E+04  0.17009104927E+04  0.22115526175E+04  0.90893656241E+02 0.  0.
         13    1    3    3    0    0  0.56469813960E+03 -0.94851343421E+03  0.13716633324E+04  0.17606879397E+04  0.00000000000E+00 0.  1.
        -13    1    3    3    0    0  0.12850072786E+03 -0.27993361367E+03  0.32924716029E+03  0.45086467780E+03  0.00000000000E+00 0. -1.
         22    1    1    2    0    0 -0.69319886746E+03  0.12284470479E+04 -0.10068488743E+04  0.17330180250E+04  0.00000000000E+00 0.  1.
<mgrwt>
<rscale>  0 0.38830292E+04</rscale>
<asrwt>0</asrwt>
<pdfrwt beam="1">  1        2 0.35681787E+00 0.38830292E+04</pdfrwt>
<pdfrwt beam="2">  1       -2 0.25003916E+00 0.38830292E+04</pdfrwt>
<totfact> 0.22611269E-01</totfact>
</mgrwt>
</event>
<event>
 6    1  0.1585031E-006  0.1267726E+04  0.7818608E-02  0.9055557E-01
          2   -1    0    0  501    0  0.00000000000E+00  0.00000000000E+00  0.15511194713E+04  0.15511194713E+04  0.00000000000E+00 0.  1.
         -2   -1    0    0    0  501 -0.00000000000E+00 -0.00000000000E+00 -0.25902746164E+03  0.25902746164E+03  0.00000000000E+00 0. -1.
         23    2    1    2    0    0 -0.18130833266E+03 -0.54698388011E+03  0.10151374284E+04  0.11707973285E+04  0.90544515419E+02 0.  0.
         11    1    3    3    0    0 -0.15216122103E+03 -0.52423724564E+03  0.93848662122E+03  0.10856955674E+04  0.00000000000E+00 0.  1.
        -11    1    3    3    0    0 -0.29147111632E+02 -0.22746634462E+02  0.76650807197E+02  0.85101761085E+02  0.00000000000E+00 0. -1.
         22    1    1    2    0    0  0.18130833266E+03  0.54698388011E+03  0.27695458120E+03  0.63934960439E+03  0.00000000000E+00 0. -1.
<mgrwt>
<rscale>  0 0.12677264E+04</rscale>
<asrwt>0</asrwt>
<pdfrwt beam="1">  1        2 0.23863376E+00 0.12677264E+04</pdfrwt>
<pdfrwt beam="2">  1       -2 0.39850380E-01 0.12677264E+04</pdfrwt>
<totfact> 0.69493706E+01</totfact>
</mgrwt>
</event>
<event>
 6    1  0.1585031E-006  0.1544735E+04  0.7818608E-02  0.8855238E-01
         -2   -1    0    0    0  501 -0.00000000000E+00  0.00000000000E+00  0.54996898079E+03  0.54996898079E+03  0.00000000000E+00 0.  1.
          2   -1    0    0  501    0  0.00000000000E+00 -0.00000000000E+00 -0.10847004959E+04  0.10847004959E+04  0.00000000000E+00 0. -1.
         23    2    1    2    0    0  0.49005388121E+03 -0.57838056599E+03 -0.12972679629E+03  0.77518957122E+03  0.97020328038E+02 0.  0.
         11    1    3    3    0    0  0.12928167908E+03 -0.11881060590E+03  0.47658181119E+01  0.17564858565E+03  0.00000000000E+00 0.  1.
        -11    1    3    3    0    0  0.36077220213E+03 -0.45956996010E+03 -0.13449261440E+03  0.59954098557E+03  0.00000000000E+00 0. -1.
         22    1    1    2    0    0 -0.49005388121E+03  0.57838056599E+03 -0.40500471880E+03  0.85947990544E+03  0.00000000000E+00 0.  1.
<mgrwt>
<rscale>  0 0.15447351E+04</rscale>
<asrwt>0</asrwt>
<pdfrwt beam="1">  1        2 0.16687700E+00 0.15447351E+04</pdfrwt>
<pdfrwt beam="2">  1       -2 0.84610612E-01 0.15447351E+04</pdfrwt>
<totfact> 0.26112843E+01</totfact>
</mgrwt>
</event>
<event>
 6    1  0.1585031E-006  0.8065322E+03  0.7818608E-02  0.9550610E-01
          1   -1    0    0  501    0  0.00000000000E+00  0.00000000000E+00  0.16517582269E+03  0.16517582269E+03  0.00000000000E+00 0. -1.
         -1   -1    0    0    0  501 -0.00000000000E+00 -0.00000000000E+00 -0.98454812439E+03  0.98454812439E+03  0.00000000000E+00 0.  1.
         23    2    1    2    0    0 -0.29188289400E+03 -0.52226421786E+02 -0.35323972626E+02  0.31147875308E+03  0.88588981477E+02 0.  0.
         11    1    3    3    0    0 -0.82771987730E+02 -0.31375048186E+02  0.26543867827E+02  0.92413053843E+02  0.00000000000E+00 0.  1.
        -11    1    3    3    0    0 -0.20911090627E+03 -0.20851373599E+02 -0.61867840453E+02  0.21906569924E+03  0.00000000000E+00 0. -1.
         22    1    1    2    0    0  0.29188289400E+03  0.52226421786E+02 -0.78404832908E+03  0.83824519400E+03  0.00000000000E+00 0.  1.
<mgrwt>
<rscale>  0 0.80653220E+03</rscale>
<asrwt>0</asrwt>
<pdfrwt beam="1">  1        1 0.25411665E-01 0.80653220E+03</pdfrwt>
<pdfrwt beam="2">  1       -1 0.15146894E+00 0.80653220E+03</pdfrwt>
<totfact> 0.65880912E+01</totfact>
</mgrwt>
</event>
<event>
 6    1  0.1585031E-006  0.1319645E+04  0.7818608E-02  0.9014130E-01
          2   -1    0    0  501    0  0.00000000000E+00  0.00000000000E+00  0.12741896800E+04  0.12741896800E+04  0.00000000000E+00 0. -1.
         -2   -1    0    0    0  501 -0.00000000000E+00 -0.00000000000E+00 -0.34168022411E+03  0.34168022411E+03  0.00000000000E+00 0.  1.
         23    2    1    2    0    0 -0.56792611468E+03 -0.40031032510E+02  0.67658314990E+02  0.58044243140E+03  0.90516370273E+02 0.  0.
         13    1    3    3    0    0 -0.23475857046E+03 -0.22331197791E+02 -0.16371447771E+02  0.23638589870E+03  0.00000000000E+00 0.  1.
        -13    1    3    3    0    0 -0.33316754422E+03 -0.17699834718E+02  0.84029762762E+02  0.34405653271E+03  0.00000000000E+00 0. -1.
         22    1    1    2    0    0  0.56792611468E+03  0.40031032510E+02  0.86485114087E+03  0.10354274727E+04  0.00000000000E+00 0. -1.
<mgrwt>
<rscale>  0 0.13196445E+04</rscale>
<asrwt>0</asrwt>
<pdfrwt beam="1">  1        2 0.19602918E+00 0.13196445E+04</pdfrwt>
<pdfrwt beam="2">  1       -2 0.52566189E-01 0.13196445E+04</pdfrwt>
<totfact> 0.57201492E+01</totfact>
</mgrwt>
</event>
<event>
 6    1  0.1585031E-006  0.1627523E+04  0.7818608E-02  0.8803816E-01
         -1   -1    0    0    0  501 -0.00000000000E+00  0.00000000000E+00  0.20491567958E+03  0.20491567958E+03  0.00000000000E+00 0.  1.
          1   -1    0    0  501    0  0.00000000000E+00 -0.00000000000E+00 -0.32316123096E+04  0.32316123096E+04  0.00000000000E+00 0. -1.
         23    2    1    2    0    0 -0.47030632292E+03 -0.25503482309E+03 -0.28059170561E+04  0.28577582434E+04  0.85911895141E+02 0.  0.
         13    1    3    3    0    0 -0.14639333517E+03 -0.11811348870E+03 -0.86141689645E+03  0.88171473521E+03  0.00000000000E+00 0. -1.
        -13    1    3    3    0    0 -0.32391298775E+03 -0.13692133439E+03 -0.19445001596E+04  0.19760435082E+04  0.00000000000E+00 0.  1.
         22    1    1    2    0    0  0.47030632292E+03  0.25503482309E+03 -0.22077957395E+03  0.57876974579E+03  0.00000000000E+00 0.  1.
<mgrwt>
<rscale>  0 0.16275233E+04</rscale>
<asrwt>0</asrwt>
<pdfrwt beam="1">  1        1 0.49717112E+00 0.16275233E+04</pdfrwt>
<pdfrwt beam="2">  1       -1 0.31525489E-01 0.16275233E+04</pdfrwt>
<totfact> 0.36255835E+00</totfact>
</mgrwt>
</event>
<event>
 6    1  0.1585031E-006  0.2760608E+04  0.7818608E-02  0.8315604E-01
         -1   -1    0    0    0  501 -0.00000000000E+00  0.00000000000E+00  0.93077620349E+03  0.93077620349E+03  0.00000000000E+00 0.  1.
          1   -1    0    0  501    0  0.00000000000E+00 -0.00000000000E+00 -0.20469351307E+04  0.20469351307E+04  0.00000000000E+00 0. -1.
         23    2    1    2    0    0 -0.10554443906E+04 -0.54575026770E+03  0.19591582225E+03  0.12075852470E+04  0.89849336210E+02 0.  0.
         11    1    3    3    0    0 -0.25215935662E+03 -0.96528172400E+02  0.67440301280E+02  0.27829880243E+03  0.00000000000E+00 0. -1.
        -11    1    3    3    0    0 -0.80328503394E+03 -0.44922209530E+03  0.12847552097E+03  0.92928644462E+03  0.00000000000E+00 0.  1.
         22    1    1    2    0    0  0.10554443906E+04  0.54575026770E+03 -0.13120747495E+04  0.17701260872E+04  0.00000000000E+00 0. -1.
<mgrwt>
<rscale>  0 0.27606075E+04</rscale>
<asrwt>0</asrwt>
<pdfrwt beam="1">  1        1 0.31491309E+00 0.27606075E+04</pdfrwt>
<pdfrwt beam="2">  1       -1 0.14319634E+00 0.27606075E+04</pdfrwt>
<totfact> 0.94994552E-01</totfact>
</mgrwt>
</event>
<event>
 6    1  0.1585031E-006  0.2230037E+04  0.7818608E-02  0.8506029E-01
          1   -1    0    0  501    0  0.00000000000E+00  0.00000000000E+00  0.13401053988E+04  0.13401053988E+04  0.00000000000E+00 0. -1.
         -1   -1    0    0    0  501 -0.00000000000E+00 -0.00000000000E+00 -0.92773760650E+03  0.92773760650E+03  0.00000000000E+00 0.  1.
         23    2    1    2    0    0 -0.63024868074E+03 -0.24239169806E+03  0.11064317878E+04  0.12994980436E+04  0.92394422685E+02 0.  0.
         11    1    3    3    0    0 -0.74516084654E+02 -0.31531504841E+02  0.19792677229E+03  0.21382677535E+03  0.00000000000E+00 0. -1.
        -11    1    3    3    0    0 -0.55573259609E+03 -0.21086019321E+03  0.90850501554E+03  0.10856712683E+04  0.00000000000E+00 0.  1.
         22    1    1    2    0    0  0.63024868074E+03  0.24239169806E+03 -0.69406399555E+03  0.96834496167E+03  0.00000000000E+00 0.  1.
<mgrwt>
<rscale>  0 0.22300369E+04</rscale>
<asrwt>0</asrwt>
<pdfrwt beam="1">  1        1 0.20617006E+00 0.22300369E+04</pdfrwt>
<pdfrwt beam="2">  1       -1 0.14272886E+00 0.22300369E+04</pdfrwt>
<totfact> 0.30685415E+00</totfact>
</mgrwt>
</event>
<event>
 6    1  0.1585031E-006  0.2742865E+04  0.7818608E-02  0.8321229E-01
          1   -1    0    0  501    0  0.00000000000E+00  0.00000000000E+00  0.11069436013E+04  0.11069436013E+04  0.00000000000E+00 0. -1.
         -1   -1    0    0    0  501 -0.00000000000E+00 -0.00000000000E+00 -0.16991171195E+04  0.16991171195E+04  0.00000000000E+00 0.  1.
         23    2    1    2    0    0 -0.91855696811E+02  0.13647685407E+04 -0.37071394380E+03  0.14203930183E+04  0.95167534313E+02 0.  0.
         11    1    3    3    0    0  0.29591395773E+01  0.54246134593E+03 -0.12112724248E+03  0.55582810041E+03  0.00000000000E+00 0. -1.
        -11    1    3    3    0    0 -0.94814836389E+02  0.82230719475E+03 -0.24958670131E+03  0.86456491786E+03  0.00000000000E+00 0.  1.
         22    1    1    2    0    0  0.91855696811E+02 -0.13647685407E+04 -0.22145957438E+03  0.13856677025E+04  0.00000000000E+00 0. -1.
<mgrwt>
<rscale>  0 0.27428648E+04</rscale>
<asrwt>0</asrwt>
<pdfrwt beam="1">  1        1 0.17029902E+00 0.27428648E+04</pdfrwt>
<pdfrwt beam="2">  1       -1 0.26140263E+00 0.27428648E+04</pdfrwt>
<totfact> 0.64027733E-01</totfact>
</mgrwt>
</event>
<event>
 6    1  0.1585031E-006  0.1550952E+04  0.7818608E-02  0.8851260E-01
         -1   -1    0    0    0  501 -0.00000000000E+00  0.00000000000E+00  0.19273033521E+03  0.19273033521E+03  0.00000000000E+00 0.  1.
          1   -1    0    0  501    0  0.00000000000E+00 -0.00000000000E+00 -0.31202285930E+04  0.31202285930E+04  0.00000000000E+00 0. -1.
         23    2    1    2    0    0 -0.59856658618E+03  0.52083919774E+01 -0.25127834371E+04  0.25847436662E+04  0.92250378895E+02 0.  0.
         11    1    3    3    0    0 -0.65267630948E+02 -0.18517932720E+02 -0.39065911971E+03  0.39650640007E+03  0.00000000000E+00 0.  1.
        -11    1    3    3    0    0 -0.53329895523E+03  0.23726324697E+02 -0.21221243174E+04  0.21882372661E+04  0.00000000000E+00 0. -1.
         22    1    1    2    0    0  0.59856658618E+03 -0.52083919774E+01 -0.41471482071E+03  0.72821526210E+03  0.00000000000E+00 0.  1.
<mgrwt>
<rscale>  0 0.15509516E+04</rscale>
<asrwt>0</asrwt>
<pdfrwt beam="1">  1        1 0.48003516E+00 0.15509516E+04</pdfrwt>
<pdfrwt beam="2">  1       -1 0.29650821E-01 0.15509516E+04</pdfrwt>
<totfact> 0.49244645E+00</totfact>
</mgrwt>
</event>
<event>
 6    1  0.1585031E-006  0.2584795E+04  0.7818608E-02  0.8373384E-01
          2   -1    0    0  501    0  0.00000000000E+00  0.00000000000E+00  0.21256726797E+04  0.21256726797E+04  0.00000000000E+00 0. -1.
         -2   -1    0    0    0  501 -0.00000000000E+00 -0.00000000000E+00 -0.78577099175E+03  0.78577099175E+03  0.00000000000E+00 0.  1.
         23    2    1    2    0    0 -0.10457045286E+04  0.42142733139E+03  0.13787816311E+04  0.17833432297E+04  0.90417540849E+02 0.  0.
         11    1    3    3    0    0 -0.64922552814E+03  0.30841522977E+03  0.87100745358E+03  0.11292775233E+04  0.00000000000E+00 0. -1.
        -11    1    3    3    0    0 -0.39647900047E+03  0.11301210162E+03  0.50777417754E+03  0.65406570641E+03  0.00000000000E+00 0.  1.
         22    1    1    2    0    0  0.10457045286E+04 -0.42142733139E+03 -0.38879943166E+02  0.11281004418E+04  0.00000000000E+00 0.  1.
<mgrwt>
<rscale>  0 0.25847955E+04</rscale>
<asrwt>0</asrwt>
<pdfrwt beam="1">  1        2 0.32702656E+00 0.25847955E+04</pdfrwt>
<pdfrwt beam="2">  1       -2 0.12088785E+00 0.25847955E+04</pdfrwt>
<totfact> 0.26246913E+00</totfact>
</mgrwt>
</event>
<event>
 6    1  0.1585031E-006  0.9344350E+03  0.7818608E-02  0.9383531E-01
          4   -1    0    0  501    0  0.00000000000E+00  0.00000000000E+00  0.15225193191E+03  0.15225193191E+03  0.00000000000E+00 0. -1.
         -4   -1    0    0    0  501 -0.00000000000E+00 -0.00000000000E+00 -0.14337564155E+04  0.14337564155E+04  0.00000000000E+00 0.  1.
         23    2    1    2    0    0  0.20594081136E+03 -0.33142352145E+03 -0.10686888153E+04  0.11415494888E+04  0.93735175152E+02 0.  0.
         13    1    3    3    0    0  0.72060674253E+02 -0.11664374688E+03 -0.25655340062E+03  0.29089199341E+03  0.00000000000E+00 0. -1.
        -13    1    3    3    0    0  0.13388013711E+03 -0.21477977458E+03 -0.81213541466E+03  0.85065749537E+03  0.00000000000E+00 0.  1.
         22    1    1    2    0    0 -0.20594081136E+03  0.33142352145E+03 -0.21281566836E+03  0.44445885868E+03  0.00000000000E+00 0. -1.
<mgrwt>
<rscale>  0 0.93443498E+03</rscale>
<asrwt>0</asrwt>
<pdfrwt beam="1">  1        4 0.23423374E-01 0.93443498E+03</pdfrwt>
<pdfrwt beam="2">  1       -4 0.22057791E+00 0.93443498E+03</pdfrwt>
<totfact> 0.33423591E+00</totfact>
</mgrwt>
</event>
<event>
 6    1  0.1585031E-006  0.1353795E+04  0.7818608E-02  0.8987960E-01
         -2   -1    0    0    0  501 -0.00000000000E+00  0.00000000000E+00  0.36994575530E+03  0.36994575530E+03  0.00000000000E+00 0.  1.
          2   -1    0    0  501    0  0.00000000000E+00 -0.00000000000E+00 -0.12385336728E+04  0.12385336728E+04  0.00000000000E+00 0. -1.
         23    2    1    2    0    0  0.23871643269E+03 -0.12208510973E+03  0.29689893387E+03  0.41254886576E+03  0.10078333419E+03 0.  0.
         11    1    3    3    0    0  0.18894755046E+03 -0.10726779012E+03  0.17143225042E+03  0.27676085725E+03  0.00000000000E+00 0.  1.
        -11    1    3    3    0    0  0.49768882230E+02 -0.14817319613E+02  0.12546668344E+03  0.13578800850E+03  0.00000000000E+00 0. -1.
         22    1    1    2    0    0 -0.23871643269E+03  0.12208510973E+03 -0.11654868514E+04  0.11959305623E+04  0.00000000000E+00 0. -1.
<mgrwt>
<rscale>  0 0.13537951E+04</rscale>
<asrwt>0</asrwt>
<pdfrwt beam="1">  1        2 0.19054364E+00 0.13537951E+04</pdfrwt>
<pdfrwt beam="2">  1       -2 0.56914731E-01 0.13537951E+04</pdfrwt>
<totfact> 0.50777339E+01</totfact>
</mgrwt>
</event>
<event>
 6    1  0.1585031E-006  0.2468463E+04  0.7818608E-02  0.8414308E-01
          2   -1    0    0  501    0  0.00000000000E+00  0.00000000000E+00  0.15878037524E+04  0.15878037524E+04  0.00000000000E+00 0. -1.
         -2   -1    0    0    0  501 -0.00000000000E+00 -0.00000000000E+00 -0.95939277727E+03  0.95939277727E+03  0.00000000000E+00 0.  1.
         23    2    1    2    0    0  0.47061711547E+03  0.11342906765E+04  0.20570627269E+03  0.12484374783E+04  0.90472418319E+02 0.  0.
         13    1    3    3    0    0  0.27986788428E+03  0.57836309905E+03  0.13393429555E+03  0.65632941616E+03  0.00000000000E+00 0. -1.
        -13    1    3    3    0    0  0.19074923119E+03  0.55592757742E+03  0.71771977139E+02  0.59210806213E+03  0.00000000000E+00 0.  1.
         22    1    1    2    0    0 -0.47061711547E+03 -0.11342906765E+04  0.42270470244E+03  0.12987590514E+04  0.00000000000E+00 0. -1.
<mgrwt>
<rscale>  0 0.24684630E+04</rscale>
<asrwt>0</asrwt>
<pdfrwt beam="1">  1        2 0.24427750E+00 0.24684630E+04</pdfrwt>
<pdfrwt beam="2">  1       -2 0.14759889E+00 0.24684630E+04</pdfrwt>
<totfact> 0.31681750E+00</totfact>
</mgrwt>
</event>
<event>
 6    1  0.1585031E-006  0.1422313E+04  0.7818608E-02  0.8937824E-01
         -2   -1    0    0    0  501 -0.00000000000E+00  0.00000000000E+00  0.62393900847E+03  0.62393900847E+03  0.00000000000E+00 0.  1.
          2   -1    0    0  501    0  0.00000000000E+00 -0.00000000000E+00 -0.81056553095E+03  0.81056553095E+03  0.00000000000E+00 0. -1.
         23    2    1    2    0    0 -0.39567095187E+03  0.49366474289E+03 -0.41401332525E+03  0.76222101396E+03  0.96506269765E+02 0.  0.
         13    1    3    3    0    0 -0.33973890356E+03  0.38500437529E+03 -0.29781254853E+03  0.59358504500E+03  0.00000000000E+00 0. -1.
        -13    1    3    3    0    0 -0.55932048307E+02  0.10866036760E+03 -0.11620077672E+03  0.16863596896E+03  0.00000000000E+00 0.  1.
         22    1    1    2    0    0  0.39567095187E+03 -0.49366474289E+03  0.22738680277E+03  0.67228352546E+03  0.00000000000E+00 0. -1.
<mgrwt>
<rscale>  0 0.14223128E+04</rscale>
<asrwt>0</asrwt>
<pdfrwt beam="1">  1        2 0.12470239E+00 0.14223128E+04</pdfrwt>
<pdfrwt beam="2">  1       -2 0.95990617E-01 0.14223128E+04</pdfrwt>
<totfact> 0.29926622E+01</totfact>
</mgrwt>
</event>
<event>
 6    1  0.1585031E-006  0.5612466E+04  0.7818608E-02  0.7740401E-01
          2   -1    0    0  501    0  0.00000000000E+00  0.00000000000E+00  0.28433989222E+04  0.28433989222E+04  0.00000000000E+00 0. -1.
         -2   -1    0    0    0  501 -0.00000000000E+00 -0.00000000000E+00 -0.27695529422E+04  0.27695529422E+04  0.00000000000E+00 0.  1.
         23    2    1    2    0    0 -0.23340490074E+04  0.20299527545E+03  0.15803412293E+04  0.28275399043E+04  0.92258650779E+02 0.  0.
         13    1    3    3    0    0 -0.20503040977E+04  0.18224838052E+03  0.14235951364E+04  0.25027154208E+04  0.00000000000E+00 0. -1.
        -13    1    3    3    0    0 -0.28374490974E+03  0.20746894928E+02  0.15674609287E+03  0.32482448351E+03  0.00000000000E+00 0.  1.
         22    1    1    2    0    0  0.23340490074E+04 -0.20299527545E+03 -0.15064952494E+04  0.27854119601E+04  0.00000000000E+00 0.  1.
<mgrwt>
<rscale>  0 0.56124661E+04</rscale>
<asrwt>0</asrwt>
<pdfrwt beam="1">  1        2 0.43744599E+00 0.56124661E+04</pdfrwt>
<pdfrwt beam="2">  1       -2 0.42608507E+00 0.56124661E+04</pdfrwt>
<totfact> 0.75602323E-03</totfact>
</mgrwt>
</event>
<event>
 6    1  0.1585031E-006  0.2201978E+04  0.7818608E-02  0.8517605E-01
         -1   -1    0    0    0  501 -0.00000000000E+00  0.00000000000E+00  0.21715649502E+04  0.21715649502E+04  0.00000000000E+00 0.  1.
          1   -1    0    0  501    0  0.00000000000E+00 -0.00000000000E+00 -0.55820440717E+03  0.55820440717E+03  0.00000000000E+00 0. -1.
         23    2    1    2    0    0 -0.40061043693E+03  0.25693118692E+03  0.20362676807E+04  0.20930961255E+04  0.90349134455E+02 0.  0.
         11    1    3    3    0    0 -0.20146388912E+03  0.17759692975E+03  0.10502406403E+04  0.10840358714E+04  0.00000000000E+00 0. -1.
        -11    1    3    3    0    0 -0.19914654781E+03  0.79334257172E+02  0.98602704043E+03  0.10090602541E+04  0.00000000000E+00 0.  1.
         22    1    1    2    0    0  0.40061043693E+03 -0.25693118692E+03 -0.42290713772E+03  0.63667323183E+03  0.00000000000E+00 0. -1.
<mgrwt>
<rscale>  0 0.22019783E+04</rscale>
<asrwt>0</asrwt>
<pdfrwt beam="1">  1        1 0.85877602E-01 0.22019783E+04</pdfrwt>
<pdfrwt beam="2">  1       -1 0.33408691E+00 0.22019783E+04</pdfrwt>
<totfact> 0.68576740E-01</totfact>
</mgrwt>
</event>
<event>
 6    1  0.1585031E-006  0.4670521E+04  0.7818608E-02  0.7881445E-01
          2   -1    0    0  501    0  0.00000000000E+00  0.00000000000E+00  0.19921568770E+04  0.19921568770E+04  0.00000000000E+00 0. -1.
         -2   -1    0    0    0  501 -0.00000000000E+00 -0.00000000000E+00 -0.27374558709E+04  0.27374558709E+04  0.00000000000E+00 0.  1.
         23    2    1    2    0    0 -0.77239572703E+03  0.10097078106E+04 -0.23554169071E+04  0.26781292075E+04  0.91006722872E+02 0.  0.
         13    1    3    3    0    0 -0.16019046770E+03  0.15695242527E+03 -0.44359498710E+03  0.49706293598E+03  0.00000000000E+00 0. -1.
        -13    1    3    3    0    0 -0.61220525933E+03  0.85275538534E+03 -0.19118219200E+04  0.21810662715E+04  0.00000000000E+00 0.  1.
         22    1    1    2    0    0  0.77239572703E+03 -0.10097078106E+04  0.16101179133E+04  0.20514835404E+04  0.00000000000E+00 0. -1.
<mgrwt>
<rscale>  0 0.46705210E+04</rscale>
<asrwt>0</asrwt>
<pdfrwt beam="1">  1        2 0.30648567E+00 0.46705210E+04</pdfrwt>
<pdfrwt beam="2">  1       -2 0.42114706E+00 0.46705210E+04</pdfrwt>
<totfact> 0.27196626E-02</totfact>
</mgrwt>
</event>
<event>
 6    1  0.1585031E-006  0.3769565E+04  0.7818608E-02  0.8052718E-01
         -2   -1    0    0    0  501 -0.00000000000E+00  0.00000000000E+00  0.11505220319E+04  0.11505220319E+04  0.00000000000E+00 0.  1.
          2   -1    0    0  501    0  0.00000000000E+00 -0.00000000000E+00 -0.30876457585E+04  0.30876457585E+04  0.00000000000E+00 0. -1.
         23    2    1    2    0    0  0.16069353910E+04 -0.39007412388E+03  0.45230919696E+02  0.16566703341E+04  0.90064346697E+02 0.  0.
         13    1    3    3    0    0  0.93488675832E+03 -0.18144244988E+03  0.31243442472E+02  0.95284351611E+03  0.00000000000E+00 0.  1.
        -13    1    3    3    0    0  0.67204863273E+03 -0.20863167400E+03  0.13987477223E+02  0.70382681796E+03  0.00000000000E+00 0. -1.
         22    1    1    2    0    0 -0.16069353910E+04  0.39007412388E+03 -0.19823546463E+04  0.25814974563E+04  0.00000000000E+00 0.  1.
<mgrwt>
<rscale>  0 0.37695647E+04</rscale>
<asrwt>0</asrwt>
<pdfrwt beam="1">  1        2 0.47502242E+00 0.37695647E+04</pdfrwt>
<pdfrwt beam="2">  1       -2 0.17700339E+00 0.37695647E+04</pdfrwt>
<totfact> 0.23413877E-01</totfact>
</mgrwt>
</event>
<event>
 6    1  0.1585031E-006  0.1252824E+04  0.7818608E-02  0.9067836E-01
          1   -1    0    0  501    0  0.00000000000E+00  0.00000000000E+00  0.89947176785E+03  0.89947176785E+03  0.00000000000E+00 0. -1.
         -1   -1    0    0    0  501 -0.00000000000E+00 -0.00000000000E+00 -0.43624709646E+03  0.43624709646E+03  0.00000000000E+00 0.  1.
         23    2    1    2    0    0 -0.25876180893E+03  0.18402942615E+03 -0.33879349278E+03  0.47313110697E+03  0.90815803617E+02 0.  0.
         13    1    3    3    0    0 -0.23230793429E+03  0.12106066639E+03 -0.26928182901E+03  0.37567986999E+03  0.00000000000E+00 0. -1.
        -13    1    3    3    0    0 -0.26453874635E+02  0.62968759762E+02 -0.69511663771E+02  0.97451236982E+02  0.00000000000E+00 0.  1.
         22    1    1    2    0    0  0.25876180893E+03 -0.18402942615E+03  0.80201816417E+03  0.86258775734E+03  0.00000000000E+00 0. -1.
<mgrwt>
<rscale>  0 0.12528239E+04</rscale>
<asrwt>0</asrwt>
<pdfrwt beam="1">  1        1 0.13838027E+00 0.12528239E+04</pdfrwt>
<pdfrwt beam="2">  1       -1 0.67114938E-01 0.12528239E+04</pdfrwt>
<totfact> 0.40394437E+01</totfact>
</mgrwt>
</event>
<event>
 6    1  0.1585031E-006  0.7572261E+03  0.7818608E-02  0.9624082E-01
          2   -1    0    0  501    0  0.00000000000E+00  0.00000000000E+00  0.10118248723E+04  0.10118248723E+04  0.00000000000E+00 0. -1.
         -2   -1    0    0    0  501 -0.00000000000E+00 -0.00000000000E+00 -0.14167256338E+03  0.14167256338E+03  0.00000000000E+00 0.  1.
         23    2    1    2    0    0  0.73047275136E+02  0.32384404338E+03  0.18217725204E+03  0.38961226910E+03  0.91642240447E+02 0.  0.
         13    1    3    3    0    0 -0.17197968470E+02  0.10698154199E+03  0.42931490723E+02  0.11655013231E+03  0.00000000000E+00 0. -1.
        -13    1    3    3    0    0  0.90245243606E+02  0.21686250140E+03  0.13924576131E+03  0.27306213679E+03  0.00000000000E+00 0.  1.
         22    1    1    2    0    0 -0.73047275136E+02 -0.32384404338E+03  0.68797505692E+03  0.76388516663E+03  0.00000000000E+00 0. -1.
<mgrwt>
<rscale>  0 0.75722605E+03</rscale>
<asrwt>0</asrwt>
<pdfrwt beam="1">  1        2 0.15566536E+00 0.75722605E+03</pdfrwt>
<pdfrwt beam="2">  1       -2 0.21795780E-01 0.75722605E+03</pdfrwt>
<totfact> 0.45645317E+02</totfact>
</mgrwt>
</event>
<event>
 6    1  0.1585031E-006  0.3588121E+04  0.7818608E-02  0.8093218E-01
         -1   -1    0    0    0  501 -0.00000000000E+00  0.00000000000E+00  0.13036737146E+04  0.13036737146E+04  0.00000000000E+00 0.  1.
          1   -1    0    0  501    0  0.00000000000E+00 -0.00000000000E+00 -0.24689098786E+04  0.24689098786E+04  0.00000000000E+00 0. -1.
         23    2    1    2    0    0  0.67499969870E+02  0.17097771011E+04 -0.11459464857E+04  0.20613658768E+04  0.90232746304E+02 0.  0.
         13    1    3    3    0    0  0.68063403982E+02  0.10239004610E+04 -0.64512461724E+03  0.12121017089E+04  0.00000000000E+00 0.  1.
        -13    1    3    3    0    0 -0.56343411136E+00  0.68587664014E+03 -0.50082186848E+03  0.84926416791E+03  0.00000000000E+00 0. -1.
         22    1    1    2    0    0 -0.67499969870E+02 -0.17097771011E+04 -0.19289678278E+02  0.17112177164E+04  0.00000000000E+00 0.  1.
<mgrwt>
<rscale>  0 0.35881209E+04</rscale>
<asrwt>0</asrwt>
<pdfrwt beam="1">  1        1 0.37983229E+00 0.35881209E+04</pdfrwt>
<pdfrwt beam="2">  1       -1 0.20056519E+00 0.35881209E+04</pdfrwt>
<totfact> 0.17196163E-01</totfact>
</mgrwt>
</event>
<event>
 6    1  0.1585031E-006  0.1919732E+04  0.7818608E-02  0.8645096E-01
          1   -1    0    0  501    0  0.00000000000E+00  0.00000000000E+00  0.18089387013E+04  0.18089387013E+04  0.00000000000E+00 0. -1.
         -1   -1    0    0    0  501 -0.00000000000E+00 -0.00000000000E+00 -0.50932772755E+03  0.50932772755E+03  0.00000000000E+00 0.  1.
         23    2    1    2    0    0  0.74876671892E+03 -0.55014672205E+03  0.93163893751E+03  0.13189084177E+04  0.90858621810E+02 0.  0.
         13    1    3    3    0    0  0.60628959630E+03 -0.41488325500E+03  0.77279258342E+03  0.10662661801E+04  0.00000000000E+00 0.  1.
        -13    1    3    3    0    0  0.14247712261E+03 -0.13526346704E+03  0.15884635409E+03  0.25264223755E+03  0.00000000000E+00 0. -1.
         22    1    1    2    0    0 -0.74876671892E+03  0.55014672205E+03  0.36797203629E+03  0.99935801124E+03  0.00000000000E+00 0.  1.
<mgrwt>
<rscale>  0 0.19197319E+04</rscale>
<asrwt>0</asrwt>
<pdfrwt beam="1">  1        1 0.27829826E+00 0.19197319E+04</pdfrwt>
<pdfrwt beam="2">  1       -1 0.78358113E-01 0.19197319E+04</pdfrwt>
<totfact> 0.61168065E+00</totfact>
</mgrwt>
</event>
<event>
 6    1  0.1585031E-006  0.4032610E+04  0.7818608E-02  0.7998000E-01
         -2   -1    0    0    0  501 -0.00000000000E+00  0.00000000000E+00  0.18860226936E+04  0.18860226936E+04  0.00000000000E+00 0.  1.
          2   -1    0    0  501    0  0.00000000000E+00 -0.00000000000E+00 -0.21555863906E+04  0.21555863906E+04  0.00000000000E+00 0. -1.
         23    2    1    2    0    0  0.55106610222E+03 -0.45156254328E+03  0.17544559077E+04  0.18958602780E+04  0.92671904982E+02 0.  0.
         13    1    3    3    0    0  0.52407828713E+02 -0.12761124970E+02  0.11845427649E+03  0.13015699151E+03  0.00000000000E+00 0.  1.
        -13    1    3    3    0    0  0.49865827350E+03 -0.43880141831E+03  0.16360016312E+04  0.17657032864E+04  0.00000000000E+00 0. -1.
         22    1    1    2    0    0 -0.55106610222E+03  0.45156254328E+03 -0.20240196047E+04  0.21457488063E+04  0.00000000000E+00 0. -1.
<mgrwt>
<rscale>  0 0.40326095E+04</rscale>
<asrwt>0</asrwt>
<pdfrwt beam="1">  1        2 0.33162867E+00 0.40326095E+04</pdfrwt>
<pdfrwt beam="2">  1       -2 0.29015734E+00 0.40326095E+04</pdfrwt>
<totfact> 0.15711785E-01</totfact>
</mgrwt>
</event>
<event>
 6    1  0.1585031E-006  0.4625625E+04  0.7818608E-02  0.7889005E-01
         -2   -1    0    0    0  501 -0.00000000000E+00  0.00000000000E+00  0.22445610206E+04  0.22445610206E+04  0.00000000000E+00 0.  1.
          2   -1    0    0  501    0  0.00000000000E+00 -0.00000000000E+00 -0.23831391279E+04  0.23831391279E+04  0.00000000000E+00 0. -1.
         23    2    1    2    0    0 -0.51177777552E+03 -0.85322786594E+03 -0.21571065149E+04  0.23772843614E+04  0.91968123129E+02 0.  0.
         13    1    3    3    0    0 -0.22969308694E+03 -0.37918025764E+03 -0.85347860234E+03  0.96174960703E+03  0.00000000000E+00 0.  1.
        -13    1    3    3    0    0 -0.28208468858E+03 -0.47404760831E+03 -0.13036279125E+04  0.14155347543E+04  0.00000000000E+00 0. -1.
         22    1    1    2    0    0  0.51177777552E+03  0.85322786594E+03  0.20185284075E+04  0.22504157871E+04  0.00000000000E+00 0.  1.
<mgrwt>
<rscale>  0 0.46256248E+04</rscale>
<asrwt>0</asrwt>
<pdfrwt beam="1">  1        2 0.36663679E+00 0.46256248E+04</pdfrwt>
<pdfrwt beam="2">  1       -2 0.34531708E+00 0.46256248E+04</pdfrwt>
<totfact> 0.50770116E-02</totfact>
</mgrwt>
</event>
<event>
 6    1  0.1585031E-006  0.1420791E+04  0.7818608E-02  0.8938905E-01
          2   -1    0    0  501    0  0.00000000000E+00  0.00000000000E+00  0.10347891840E+04  0.10347891840E+04  0.00000000000E+00 0. -1.
         -2   -1    0    0    0  501 -0.00000000000E+00 -0.00000000000E+00 -0.48769501807E+03  0.48769501807E+03  0.00000000000E+00 0.  1.
         23    2    1    2    0    0  0.15284159805E+03  0.48642303588E+03 -0.25078399507E+03  0.57560644665E+03  0.91990463171E+02 0.  0.
         13    1    3    3    0    0  0.88560102246E+02  0.37331540803E+03 -0.21862526137E+03  0.44159290132E+03  0.00000000000E+00 0. -1.
        -13    1    3    3    0    0  0.64281495802E+02  0.11310762784E+03 -0.32158733699E+02  0.13401354533E+03  0.00000000000E+00 0.  1.
         22    1    1    2    0    0 -0.15284159805E+03 -0.48642303588E+03  0.79787816102E+03  0.94687775545E+03  0.00000000000E+00 0. -1.
<mgrwt>
<rscale>  0 0.14207907E+04</rscale>
<asrwt>0</asrwt>
<pdfrwt beam="1">  1        2 0.15919834E+00 0.14207907E+04</pdfrwt>
<pdfrwt beam="2">  1       -2 0.75030003E-01 0.14207907E+04</pdfrwt>
<totfact> 0.37114726E+01</totfact>
</mgrwt>
</event>
<event>
 6    1  0.1585031E-006  0.1212029E+04  0.7818608E-02  0.9102392E-01
         -1   -1    0    0    0  501 -0.00000000000E+00  0.00000000000E+00  0.47344969624E+03  0.47344969624E+03  0.00000000000E+00 0.  1.
          1   -1    0    0  501    0  0.00000000000E+00 -0.00000000000E+00 -0.77569741875E+03  0.77569741875E+03  0.00000000000E+00 0. -1.
         23    2    1    2    0    0  0.20214794075E+03  0.56362258334E+03 -0.84210843376E+02  0.61190753126E+03  0.93835783488E+02 0.  0.
         13    1    3    3    0    0  0.13790332187E+03  0.24792224448E+03 -0.47651209744E+02  0.28766891261E+03  0.00000000000E+00 0. -1.
        -13    1    3    3    0    0  0.64244618887E+02  0.31570033886E+03 -0.36559633632E+02  0.32423861865E+03  0.00000000000E+00 0.  1.
         22    1    1    2    0    0 -0.20214794075E+03 -0.56362258334E+03 -0.21803687914E+03  0.63723958373E+03  0.00000000000E+00 0. -1.
<mgrwt>
<rscale>  0 0.12120292E+04</rscale>
<asrwt>0</asrwt>
<pdfrwt beam="1">  1        1 0.11933806E+00 0.12120292E+04</pdfrwt>
<pdfrwt beam="2">  1       -1 0.72838415E-01 0.12120292E+04</pdfrwt>
<totfact> 0.43665329E+01</totfact>
</mgrwt>
</event>
<event>
 6    1  0.1585031E-006  0.5369876E+04  0.7818608E-02  0.7773852E-01
         -2   -1    0    0    0  501 -0.00000000000E+00  0.00000000000E+00  0.26521031398E+04  0.26521031398E+04  0.00000000000E+00 0. -1.
          2   -1    0    0  501    0  0.00000000000E+00 -0.00000000000E+00 -0.27181795751E+04  0.27181795751E+04  0.00000000000E+00 0.  1.
         23    2    1    2    0    0 -0.16664200680E+04 -0.17786864418E+04 -0.11574693156E+04  0.26997360067E+04  0.90321578681E+02 0.  0.
         11    1    3    3    0    0 -0.12944804646E+04 -0.13713642057E+04 -0.93622226104E+03  0.21054290726E+04  0.00000000000E+00 0. -1.
        -11    1    3    3    0    0 -0.37193960349E+03 -0.40732223612E+03 -0.22124705453E+03  0.59430693402E+03  0.00000000000E+00 0.  1.
         22    1    1    2    0    0  0.16664200680E+04  0.17786864418E+04  0.10913928803E+04  0.26705467082E+04  0.00000000000E+00 0. -1.
<mgrwt>
<rscale>  0 0.53698762E+04</rscale>
<asrwt>0</asrwt>
<pdfrwt beam="1">  1        2 0.41818147E+00 0.53698762E+04</pdfrwt>
<pdfrwt beam="2">  1       -2 0.40801587E+00 0.53698762E+04</pdfrwt>
<totfact> 0.12056518E-02</totfact>
</mgrwt>
</event>
<event>
 6    1  0.1585031E-006  0.1016285E+04  0.7818608E-02  0.9290862E-01
         -1   -1    0    0    0  501 -0.00000000000E+00  0.00000000000E+00  0.15053599444E+04  0.15053599444E+04  0.00000000000E+00 0.  1.
          1   -1    0    0  501    0  0.00000000000E+00 -0.00000000000E+00 -0.17152630255E+03  0.17152630255E+03  0.00000000000E+00 0. -1.
         23    2    1    2    0    0 -0.44897534852E+03  0.22510334081E+03  0.75298110324E+03  0.90900601591E+03  0.84029860758E+02 0.  0.
         11    1    3    3    0    0 -0.61798830743E+02  0.59505636066E+02  0.16241542197E+03  0.18368120617E+03  0.00000000000E+00 0.  1.
        -11    1    3    3    0    0 -0.38717651778E+03  0.16559770474E+03  0.59056568127E+03  0.72532480974E+03  0.00000000000E+00 0. -1.
         22    1    1    2    0    0  0.44897534852E+03 -0.22510334081E+03  0.58085253861E+03  0.76788023105E+03  0.00000000000E+00 0.  1.
<mgrwt>
<rscale>  0 0.10162850E+04</rscale>
<asrwt>0</asrwt>
<pdfrwt beam="1">  1        1 0.26388663E-01 0.10162850E+04</pdfrwt>
<pdfrwt beam="2">  1       -1 0.23159383E+00 0.10162850E+04</pdfrwt>
<totfact> 0.16853926E+01</totfact>
</mgrwt>
</event>
<event>
 6    1  0.1585031E-006  0.2945153E+04  0.7818608E-02  0.8259569E-01
         -1   -1    0    0    0  501 -0.00000000000E+00  0.00000000000E+00  0.24432390014E+04  0.24432390014E+04  0.00000000000E+00 0.  1.
          1   -1    0    0  501    0  0.00000000000E+00 -0.00000000000E+00 -0.88754365580E+03  0.88754365580E+03  0.00000000000E+00 0. -1.
         23    2    1    2    0    0  0.47039225309E+03  0.67245865160E+03  0.21594620705E+04  0.23119579579E+04  0.91671451867E+02 0.  0.
         13    1    3    3    0    0  0.47006897815E+02  0.46577950369E+02  0.24466001795E+03  0.25345153044E+03  0.00000000000E+00 0.  1.
        -13    1    3    3    0    0  0.42338535527E+03  0.62588070123E+03  0.19148020526E+04  0.20585064274E+04  0.00000000000E+00 0. -1.
         22    1    1    2    0    0 -0.47039225309E+03 -0.67245865160E+03 -0.60376672491E+03  0.10188246993E+04  0.00000000000E+00 0. -1.
<mgrwt>
<rscale>  0 0.29451528E+04</rscale>
<asrwt>0</asrwt>
<pdfrwt beam="1">  1        1 0.13654518E+00 0.29451528E+04</pdfrwt>
<pdfrwt beam="2">  1       -1 0.37588292E+00 0.29451528E+04</pdfrwt>
<totfact> 0.16610929E-01</totfact>
</mgrwt>
</event>
<event>
 6    1  0.1585031E-006  0.4484718E+04  0.7818608E-02  0.7913318E-01
         -2   -1    0    0    0  501 -0.00000000000E+00  0.00000000000E+00  0.12478509582E+04  0.12478509582E+04  0.00000000000E+00 0.  1.
          2   -1    0    0  501    0  0.00000000000E+00 -0.00000000000E+00 -0.40294667226E+04  0.40294667226E+04  0.00000000000E+00 0. -1.
         23    2    1    2    0    0  0.11827108160E+04  0.15807337903E+04 -0.26403343766E+04  0.32980540247E+04  0.90942508951E+02 0.  0.
         13    1    3    3    0    0  0.29689230590E+03  0.36595918473E+03 -0.68810572860E+03  0.83400279372E+03  0.00000000000E+00 0. -1.
        -13    1    3    3    0    0  0.88581851006E+03  0.12147746056E+04 -0.19522286480E+04  0.24640512310E+04  0.00000000000E+00 0.  1.
         22    1    1    2    0    0 -0.11827108160E+04 -0.15807337903E+04 -0.14128138778E+03  0.19792636561E+04  0.00000000000E+00 0.  1.
<mgrwt>
<rscale>  0 0.44847180E+04</rscale>
<asrwt>0</asrwt>
<pdfrwt beam="1">  1        2 0.61991795E+00 0.44847180E+04</pdfrwt>
<pdfrwt beam="2">  1       -2 0.19197707E+00 0.44847180E+04</pdfrwt>
<totfact> 0.36762443E-02</totfact>
</mgrwt>
</event>
<event>
 6    1  0.1585031E-006  0.2631879E+03  0.7818608E-02  0.1105243E+00
         -2   -1    0    0    0  501 -0.00000000000E+00  0.00000000000E+00  0.59750057988E+02  0.59750057988E+02  0.00000000000E+00 0. -1.
          2   -1    0    0  501    0  0.00000000000E+00 -0.00000000000E+00 -0.28982354142E+03  0.28982354142E+03  0.00000000000E+00 0.  1.
         23    2    1    2    0    0 -0.11087555771E+03  0.17430315864E+02 -0.85359601772E+02  0.16643618446E+03  0.88416834799E+02 0.  0.
         11    1    3    3    0    0 -0.57418408373E+02 -0.29450337769E+02 -0.66956857336E+02  0.92991487563E+02  0.00000000000E+00 0.  1.
        -11    1    3    3    0    0 -0.53457149333E+02  0.46880653633E+02 -0.18402744436E+02  0.73444696899E+02  0.00000000000E+00 0. -1.
         22    1    1    2    0    0  0.11087555771E+03 -0.17430315864E+02 -0.14471388166E+03  0.18313741494E+03  0.00000000000E+00 0. -1.
<mgrwt>
<rscale>  0 0.26318794E+03</rscale>
<asrwt>0</asrwt>
<pdfrwt beam="1">  1        2 0.44588236E-01 0.26318794E+03</pdfrwt>
<pdfrwt beam="2">  1       -2 0.91923169E-02 0.26318794E+03</pdfrwt>
<totfact> 0.85275790E+03</totfact>
</mgrwt>
</event>
<event>
 6    1  0.1585031E-006  0.3811152E+04  0.7818608E-02  0.8043766E-01
         -1   -1    0    0    0  501 -0.00000000000E+00  0.00000000000E+00  0.21828768811E+04  0.21828768811E+04  0.00000000000E+00 0.  1.
          1   -1    0    0  501    0  0.00000000000E+00 -0.00000000000E+00 -0.16635019155E+04  0.16635019155E+04  0.00000000000E+00 0. -1.
         23    2    1    2    0    0  0.14062138679E+04  0.63923700626E+03 -0.86442615280E+03  0.17725015274E+04  0.92020099900E+02 0.  0.
         13    1    3    3    0    0  0.59941491947E+03  0.28725792971E+03 -0.32224471079E+03  0.73868600738E+03  0.00000000000E+00 0.  1.
        -13    1    3    3    0    0  0.80679894839E+03  0.35197907654E+03 -0.54218144201E+03  0.10338155201E+04  0.00000000000E+00 0. -1.
         22    1    1    2    0    0 -0.14062138679E+04 -0.63923700626E+03  0.13838011184E+04  0.20738772692E+04  0.00000000000E+00 0.  1.
<mgrwt>
<rscale>  0 0.38111520E+04</rscale>
<asrwt>0</asrwt>
<pdfrwt beam="1">  1        1 0.25592337E+00 0.38111520E+04</pdfrwt>
<pdfrwt beam="2">  1       -1 0.33582721E+00 0.38111520E+04</pdfrwt>
<totfact> 0.77322494E-02</totfact>
</mgrwt>
</event>
<event>
 6    1  0.1585031E-006  0.2791742E+04  0.7818608E-02  0.8305837E-01
         -2   -1    0    0    0  501 -0.00000000000E+00  0.00000000000E+00  0.79727560895E+03  0.79727560895E+03  0.00000000000E+00 0. -1.
          2   -1    0    0  501    0  0.00000000000E+00 -0.00000000000E+00 -0.24438926552E+04  0.24438926552E+04  0.00000000000E+00 0.  1.
         23    2    1    2    0    0 -0.61020825041E+02 -0.29432352219E+03 -0.24049594123E+04  0.24254274837E+04  0.92297490525E+02 0.  0.
         11    1    3    3    0    0 -0.39389959099E+02 -0.12062882748E+03 -0.69115152123E+03  0.70270428218E+03  0.00000000000E+00 0. -1.
        -11    1    3    3    0    0 -0.21630865942E+02 -0.17369469471E+03 -0.17138078911E+04  0.17227232015E+04  0.00000000000E+00 0.  1.
         22    1    1    2    0    0  0.61020825041E+02  0.29432352219E+03  0.75834236607E+03  0.81574078050E+03  0.00000000000E+00 0. -1.
<mgrwt>
<rscale>  0 0.27917421E+04</rscale>
<asrwt>0</asrwt>
<pdfrwt beam="1">  1        2 0.37598348E+00 0.27917421E+04</pdfrwt>
<pdfrwt beam="2">  1       -2 0.12265779E+00 0.27917421E+04</pdfrwt>
<totfact> 0.16418219E+00</totfact>
</mgrwt>
</event>
<event>
 6    1  0.1585031E-006  0.1321364E+04  0.7818608E-02  0.9012793E-01
         -2   -1    0    0    0  501 -0.00000000000E+00  0.00000000000E+00  0.79360515502E+03  0.79360515502E+03  0.00000000000E+00 0. -1.
          2   -1    0    0  501    0  0.00000000000E+00 -0.00000000000E+00 -0.55002260115E+03  0.55002260115E+03  0.00000000000E+00 0.  1.
         23    2    1    2    0    0  0.64999538739E+03 -0.80371628614E+02  0.43008671794E+02  0.65865806014E+03  0.55019015140E+02 0.  0.
         11    1    3    3    0    0  0.34474990956E+03 -0.56859398334E+02  0.46503783271E+02  0.35248842985E+03  0.00000000000E+00 0.  1.
        -11    1    3    3    0    0  0.30524547783E+03 -0.23512230280E+02 -0.34951114776E+01  0.30616963029E+03  0.00000000000E+00 0. -1.
         22    1    1    2    0    0 -0.64999538739E+03  0.80371628614E+02  0.20057388208E+03  0.68496969603E+03  0.00000000000E+00 0. -1.
<mgrwt>
<rscale>  0 0.13213641E+04</rscale>
<asrwt>0</asrwt>
<pdfrwt beam="1">  1        2 0.84618862E-01 0.13213641E+04</pdfrwt>
<pdfrwt beam="2">  1       -2 0.12209310E+00 0.13213641E+04</pdfrwt>
<totfact> 0.27394015E+01</totfact>
</mgrwt>
</event>
<event>
 6    1  0.1585031E-006  0.8476779E+03  0.7818608E-02  0.9493459E-01
          1   -1    0    0  501    0  0.00000000000E+00  0.00000000000E+00  0.71800479642E+03  0.71800479642E+03  0.00000000000E+00 0. -1.
         -1   -1    0    0    0  501 -0.00000000000E+00 -0.00000000000E+00 -0.25019257702E+03  0.25019257702E+03  0.00000000000E+00 0.  1.
         23    2    1    2    0    0 -0.34009134821E+03  0.16484005077E+03  0.28534219925E+02  0.38871525267E+03  0.86319050573E+02 0.  0.
         13    1    3    3    0    0 -0.18725688486E+03  0.66126522115E+02 -0.22215347344E+02  0.19982837514E+03  0.00000000000E+00 0. -1.
        -13    1    3    3    0    0 -0.15283446335E+03  0.98713528650E+02  0.50749567269E+02  0.18888687753E+03  0.00000000000E+00 0.  1.
         22    1    1    2    0    0  0.34009134821E+03 -0.16484005077E+03  0.43927799948E+03  0.57948212077E+03  0.00000000000E+00 0. -1.
<mgrwt>
<rscale>  0 0.84767793E+03</rscale>
<asrwt>0</asrwt>
<pdfrwt beam="1">  1        1 0.11046228E+00 0.84767793E+03</pdfrwt>
<pdfrwt beam="2">  1       -1 0.38491166E-01 0.84767793E+03</pdfrwt>
<totfact> 0.17274210E+02</totfact>
</mgrwt>
</event>
<event>
 6    1  0.1585031E-006  0.3048090E+04  0.7818608E-02  0.8230130E-01
         -2   -1    0    0    0  501 -0.00000000000E+00  0.00000000000E+00  0.10055985773E+04  0.10055985773E+04  0.00000000000E+00 0.  1.
          2   -1    0    0  501    0  0.00000000000E+00 -0.00000000000E+00 -0.23097816652E+04  0.23097816652E+04  0.00000000000E+00 0. -1.
         23    2    1    2    0    0 -0.94222008502E+03  0.72794335917E+03  0.38057715476E+03  0.12523491478E+04  0.76545374882E+02 0.  0.
         13    1    3    3    0    0 -0.74330591406E+03  0.56499581987E+03  0.26579595267E+03  0.97075818142E+03  0.00000000000E+00 0. -1.
        -13    1    3    3    0    0 -0.19891417095E+03  0.16294753931E+03  0.11478120209E+03  0.28159096634E+03  0.00000000000E+00 0.  1.
         22    1    1    2    0    0  0.94222008502E+03 -0.72794335917E+03 -0.16847602427E+04  0.20630310948E+04  0.00000000000E+00 0. -1.
<mgrwt>
<rscale>  0 0.30480900E+04</rscale>
<asrwt>0</asrwt>
<pdfrwt beam="1">  1        2 0.35535102E+00 0.30480900E+04</pdfrwt>
<pdfrwt beam="2">  1       -2 0.15470747E+00 0.30480900E+04</pdfrwt>
<totfact> 0.10529382E+00</totfact>
</mgrwt>
</event>
<event>
 6    1  0.1585031E-006  0.3105040E+04  0.7818608E-02  0.8214356E-01
         -1   -1    0    0    0  501 -0.00000000000E+00  0.00000000000E+00  0.17560240735E+04  0.17560240735E+04  0.00000000000E+00 0.  1.
          1   -1    0    0  501    0  0.00000000000E+00 -0.00000000000E+00 -0.13726000603E+04  0.13726000603E+04  0.00000000000E+00 0. -1.
         23    2    1    2    0    0 -0.52529868988E+03  0.14571897399E+04  0.11080931534E+03  0.15558369819E+04  0.94917638354E+02 0.  0.
         11    1    3    3    0    0 -0.93242238743E+02  0.36908183337E+03  0.10906088502E+02  0.38083389762E+03  0.00000000000E+00 0. -1.
        -11    1    3    3    0    0 -0.43205645114E+03  0.10881079065E+04  0.99903226839E+02  0.11750030842E+04  0.00000000000E+00 0.  1.
         22    1    1    2    0    0  0.52529868988E+03 -0.14571897399E+04  0.27261469790E+03  0.15727871519E+04  0.00000000000E+00 0.  1.
<mgrwt>
<rscale>  0 0.31050403E+04</rscale>
<asrwt>0</asrwt>
<pdfrwt beam="1">  1        1 0.21116924E+00 0.31050403E+04</pdfrwt>
<pdfrwt beam="2">  1       -1 0.27015755E+00 0.31050403E+04</pdfrwt>
<totfact> 0.34920400E-01</totfact>
</mgrwt>
</event>
<event>
 6    1  0.1585031E-006  0.1991422E+04  0.7818608E-02  0.8610642E-01
         -1   -1    0    0    0  501 -0.00000000000E+00  0.00000000000E+00  0.13064477388E+04  0.13064477388E+04  0.00000000000E+00 0.  1.
          1   -1    0    0  501    0  0.00000000000E+00 -0.00000000000E+00 -0.75888224358E+03  0.75888224358E+03  0.00000000000E+00 0. -1.
         23    2    1    2    0    0 -0.93473122552E+03 -0.31027968233E+03  0.13761704566E+03  0.99853399601E+03  0.90198363039E+02 0.  0.
         11    1    3    3    0    0 -0.67598536106E+03 -0.26262969805E+03  0.11751620277E+03  0.73467041902E+03  0.00000000000E+00 0. -1.
        -11    1    3    3    0    0 -0.25874586446E+03 -0.47649984283E+02  0.20100842894E+02  0.26386357699E+03  0.00000000000E+00 0.  1.
         22    1    1    2    0    0  0.93473122552E+03  0.31027968233E+03  0.40994844956E+03  0.10667959864E+04  0.00000000000E+00 0. -1.
<mgrwt>
<rscale>  0 0.19914216E+04</rscale>
<asrwt>0</asrwt>
<pdfrwt beam="1">  1        1 0.11675111E+00 0.19914216E+04</pdfrwt>
<pdfrwt beam="2">  1       -1 0.20099196E+00 0.19914216E+04</pdfrwt>
<totfact> 0.33065454E+00</totfact>
</mgrwt>
</event>
<event>
 6    1  0.1585031E-006  0.1030886E+04  0.7818608E-02  0.9275303E-01
          2   -1    0    0  501    0  0.00000000000E+00  0.00000000000E+00  0.19290821822E+03  0.19290821822E+03  0.00000000000E+00 0. -1.
         -2   -1    0    0    0  501 -0.00000000000E+00 -0.00000000000E+00 -0.13772432949E+04  0.13772432949E+04  0.00000000000E+00 0.  1.
         23    2    1    2    0    0 -0.18005167248E+03  0.22505076197E+03 -0.12403053866E+04  0.12765546367E+04  0.90376092328E+02 0.  0.
         11    1    3    3    0    0 -0.11216552100E+03  0.11283373221E+03 -0.49940196960E+03  0.52413250469E+03  0.00000000000E+00 0. -1.
        -11    1    3    3    0    0 -0.67886151483E+02  0.11221702976E+03 -0.74090341703E+03  0.75242213199E+03  0.00000000000E+00 0.  1.
         22    1    1    2    0    0  0.18005167248E+03 -0.22505076197E+03  0.55970310002E+02  0.29359687639E+03  0.00000000000E+00 0. -1.
<mgrwt>
<rscale>  0 0.10308861E+04</rscale>
<asrwt>0</asrwt>
<pdfrwt beam="1">  1        2 0.29678187E-01 0.10308861E+04</pdfrwt>
<pdfrwt beam="2">  1       -2 0.21188359E+00 0.10308861E+04</pdfrwt>
<totfact> 0.20041397E+01</totfact>
</mgrwt>
</event>
<event>
 6    1  0.1585031E-006  0.1787275E+04  0.7818608E-02  0.8713096E-01
          2   -1    0    0  501    0  0.00000000000E+00  0.00000000000E+00  0.25674157994E+04  0.25674157994E+04  0.00000000000E+00 0.  1.
         -2   -1    0    0    0  501 -0.00000000000E+00 -0.00000000000E+00 -0.31104731709E+03  0.31104731709E+03  0.00000000000E+00 0. -1.
         23    2    1    2    0    0 -0.20922215606E+03 -0.38023302506E+03  0.23849248170E+04  0.24258288324E+04  0.91804560641E+02 0.  0.
         13    1    3    3    0    0 -0.38853112863E+02 -0.10767735985E+03  0.44674491672E+03  0.46117783861E+03  0.00000000000E+00 0.  1.
        -13    1    3    3    0    0 -0.17036904320E+03 -0.27255566521E+03  0.19381799003E+04  0.19646509938E+04  0.00000000000E+00 0. -1.
         22    1    1    2    0    0  0.20922215606E+03  0.38023302506E+03 -0.12855633471E+03  0.45263428408E+03  0.00000000000E+00 0. -1.
<mgrwt>
<rscale>  0 0.17872748E+04</rscale>
<asrwt>0</asrwt>
<pdfrwt beam="1">  1        2 0.39498703E+00 0.17872748E+04</pdfrwt>
<pdfrwt beam="2">  1       -2 0.47853435E-01 0.17872748E+04</pdfrwt>
<totfact> 0.12453664E+01</totfact>
</mgrwt>
</event>
<event>
 6    1  0.1585031E-006  0.2013087E+04  0.7818608E-02  0.8600526E-01
          1   -1    0    0  501    0  0.00000000000E+00  0.00000000000E+00  0.21972207834E+04  0.21972207834E+04  0.00000000000E+00 0. -1.
         -1   -1    0    0    0  501 -0.00000000000E+00 -0.00000000000E+00 -0.46109595914E+03  0.46109595914E+03  0.00000000000E+00 0.  1.
         23    2    1    2    0    0 -0.92938876513E+03 -0.37439575368E+03  0.77504842009E+03  0.12699351265E+04  0.89997304792E+02 0.  0.
         11    1    3    3    0    0 -0.35650389347E+03 -0.18975297355E+03  0.29775818613E+03  0.50175806365E+03  0.00000000000E+00 0. -1.
        -11    1    3    3    0    0 -0.57288487166E+03 -0.18464278013E+03  0.47729023396E+03  0.76817706284E+03  0.00000000000E+00 0.  1.
         22    1    1    2    0    0  0.92938876513E+03  0.37439575368E+03  0.96107640414E+03  0.13883816160E+04  0.00000000000E+00 0. -1.
<mgrwt>
<rscale>  0 0.20130868E+04</rscale>
<asrwt>0</asrwt>
<pdfrwt beam="1">  1        1 0.33803396E+00 0.20130868E+04</pdfrwt>
<pdfrwt beam="2">  1       -1 0.70937841E-01 0.20130868E+04</pdfrwt>
<totfact> 0.40701654E+00</totfact>
</mgrwt>
</event>
<event>
 6    1  0.1585031E-006  0.3356231E+04  0.7818608E-02  0.8148733E-01
         -1   -1    0    0    0  501 -0.00000000000E+00  0.00000000000E+00  0.97514482391E+03  0.97514482391E+03  0.00000000000E+00 0.  1.
          1   -1    0    0  501    0  0.00000000000E+00 -0.00000000000E+00 -0.28878499530E+04  0.28878499530E+04  0.00000000000E+00 0. -1.
         23    2    1    2    0    0 -0.35517331299E+03  0.10840029319E+04 -0.23708177985E+04  0.26337357901E+04  0.12073416976E+03 0.  0.
         13    1    3    3    0    0 -0.87854470297E+02  0.16569817592E+03 -0.46487997955E+03  0.50128603495E+03  0.00000000000E+00 0. -1.
        -13    1    3    3    0    0 -0.26731884269E+03  0.91830475603E+03 -0.19059378189E+04  0.21324497551E+04  0.00000000000E+00 0.  1.
         22    1    1    2    0    0  0.35517331299E+03 -0.10840029319E+04  0.45811266941E+03  0.12292589868E+04  0.00000000000E+00 0.  1.
<mgrwt>
<rscale>  0 0.33562312E+04</rscale>
<asrwt>0</asrwt>
<pdfrwt beam="1">  1        1 0.44428461E+00 0.33562312E+04</pdfrwt>
<pdfrwt beam="2">  1       -1 0.15002228E+00 0.33562312E+04</pdfrwt>
<totfact> 0.20745771E-01</totfact>
</mgrwt>
</event>
<event>
 6    1  0.1585031E-006  0.2440081E+04  0.7818608E-02  0.8424648E-01
         -2   -1    0    0    0  501 -0.00000000000E+00  0.00000000000E+00  0.58628805930E+03  0.58628805930E+03  0.00000000000E+00 0.  1.
          2   -1    0    0  501    0  0.00000000000E+00 -0.00000000000E+00 -0.25388527632E+04  0.25388527632E+04  0.00000000000E+00 0. -1.
         23    2    1    2    0    0 -0.20324969541E+03 -0.78976881374E+03  0.18155811154E+03  0.84051275448E+03  0.91940876259E+02 0.  0.
         13    1    3    3    0    0 -0.12398051032E+03 -0.36989487985E+03  0.12405874764E+03  0.40937020159E+03  0.00000000000E+00 0. -1.
        -13    1    3    3    0    0 -0.79269185092E+02 -0.41987393389E+03  0.57499363904E+02  0.43114255289E+03  0.00000000000E+00 0.  1.
         22    1    1    2    0    0  0.20324969541E+03  0.78976881374E+03 -0.21341228155E+04  0.22846280681E+04  0.00000000000E+00 0. -1.
<mgrwt>
<rscale>  0 0.24400812E+04</rscale>
<asrwt>0</asrwt>
<pdfrwt beam="1">  1        2 0.39059274E+00 0.24400812E+04</pdfrwt>
<pdfrwt beam="2">  1       -2 0.90198162E-01 0.24400812E+04</pdfrwt>
<totfact> 0.31138935E+00</totfact>
</mgrwt>
</event>
<event>
 6    1  0.1585031E-006  0.3786341E+04  0.7818608E-02  0.8049092E-01
         -2   -1    0    0    0  501 -0.00000000000E+00  0.00000000000E+00  0.14018169699E+04  0.14018169699E+04  0.00000000000E+00 0.  1.
          2   -1    0    0  501    0  0.00000000000E+00 -0.00000000000E+00 -0.25567496498E+04  0.25567496498E+04  0.00000000000E+00 0. -1.
         23    2    1    2    0    0  0.44102987281E+03  0.12551761490E+04 -0.19843189538E+04  0.23908115033E+04  0.92105484835E+02 0.  0.
         11    1    3    3    0    0  0.18833457982E+03  0.52254832885E+03 -0.91026146698E+03  0.10663501340E+04  0.00000000000E+00 0. -1.
        -11    1    3    3    0    0  0.25269529299E+03  0.73262782013E+03 -0.10740574868E+04  0.13244613694E+04  0.00000000000E+00 0.  1.
         22    1    1    2    0    0 -0.44102987281E+03 -0.12551761490E+04  0.82938627384E+03  0.15677551164E+04  0.00000000000E+00 0.  1.
<mgrwt>
<rscale>  0 0.37863413E+04</rscale>
<asrwt>0</asrwt>
<pdfrwt beam="1">  1        2 0.39334610E+00 0.37863413E+04</pdfrwt>
<pdfrwt beam="2">  1       -2 0.21566415E+00 0.37863413E+04</pdfrwt>
<totfact> 0.27270973E-01</totfact>
</mgrwt>
</event>
<event>
 6    1  0.1585031E-006  0.4550709E+04  0.7818608E-02  0.7901819E-01
          1   -1    0    0  501    0  0.00000000000E+00  0.00000000000E+00  0.30578687435E+04  0.30578687435E+04  0.00000000000E+00 0. -1.
         -1   -1    0    0    0  501 -0.00000000000E+00 -0.00000000000E+00 -0.16930868354E+04  0.16930868354E+04  0.00000000000E+00 0.  1.
         23    2    1    2    0    0  0.14652529309E+04  0.15830849248E+04 -0.70269994904E+02  0.21601066842E+04  0.89437041862E+02 0.  0.
         11    1    3    3    0    0  0.92429905384E+03  0.10415310392E+04 -0.13987350820E+02  0.13925915742E+04  0.00000000000E+00 0. -1.
        -11    1    3    3    0    0  0.54095387702E+03  0.54155388565E+03 -0.56282644084E+02  0.76751511005E+03  0.00000000000E+00 0.  1.
         22    1    1    2    0    0 -0.14652529309E+04 -0.15830849248E+04  0.14350519030E+04  0.25908488947E+04  0.00000000000E+00 0. -1.
<mgrwt>
<rscale>  0 0.45507087E+04</rscale>
<asrwt>0</asrwt>
<pdfrwt beam="1">  1        1 0.47044134E+00 0.45507087E+04</pdfrwt>
<pdfrwt beam="2">  1       -1 0.26047490E+00 0.45507087E+04</pdfrwt>
<totfact> 0.24161746E-02</totfact>
</mgrwt>
</event>
<event>
 6    1  0.1585031E-006  0.6710982E+03  0.7818608E-02  0.9767976E-01
         -4   -1    0    0    0  501 -0.00000000000E+00  0.00000000000E+00  0.12129862026E+04  0.12129862026E+04  0.00000000000E+00 0.  1.
          4   -1    0    0  501    0  0.00000000000E+00 -0.00000000000E+00 -0.92823161270E+02  0.92823161270E+02  0.00000000000E+00 0. -1.
         23    2    1    2    0    0  0.10661765644E+03  0.45933155690E+02  0.11709226739E+04  0.11791060895E+04  0.75855668456E+02 0.  0.
         11    1    3    3    0    0  0.65056934364E+02 -0.64073547677E+01  0.75755247893E+03  0.76036781707E+03  0.00000000000E+00 0. -1.
        -11    1    3    3    0    0  0.41560722078E+02  0.52340510458E+02  0.41337019500E+03  0.41873827239E+03  0.00000000000E+00 0.  1.
         22    1    1    2    0    0 -0.10661765644E+03 -0.45933155690E+02 -0.50759632561E+02  0.12670327444E+03  0.00000000000E+00 0. -1.
<mgrwt>
<rscale>  0 0.67109825E+03</rscale>
<asrwt>0</asrwt>
<pdfrwt beam="1">  1        4 0.14280487E-01 0.67109825E+03</pdfrwt>
<pdfrwt beam="2">  1       -4 0.18661325E+00 0.67109825E+03</pdfrwt>
<totfact> 0.13778508E+01</totfact>
</mgrwt>
</event>
<event>
 6    1  0.1751092E-006  0.3638917E+04  0.7818608E-02  0.8081635E-01
          2   -1    0    0  501    0  0.00000000000E+00  0.00000000000E+00  0.17394660100E+04  0.17394660100E+04  0.00000000000E+00 0. -1.
         -2   -1    0    0    0  501 -0.00000000000E+00 -0.00000000000E+00 -0.19031298401E+04  0.19031298401E+04  0.00000000000E+00 0.  1.
         23    2    1    2    0    0  0.23056375008E+03 -0.26809951073E+03 -0.18672961873E+04  0.19026532650E+04  0.90870265773E+02 0.  0.
         11    1    3    3    0    0  0.48798173077E+02 -0.10657756486E+02 -0.25250279200E+03  0.25739562824E+03  0.00000000000E+00 0.  1.
        -11    1    3    3    0    0  0.18176557701E+03 -0.25744175424E+03 -0.16147933953E+04  0.16452576368E+04  0.00000000000E+00 0. -1.
         22    1    1    2    0    0 -0.23056375008E+03  0.26809951073E+03  0.17036323572E+04  0.17399425850E+04  0.00000000000E+00 0. -1.
<mgrwt>
<rscale>  0 0.36389172E+04</rscale>
<asrwt>0</asrwt>
<pdfrwt beam="1">  1        2 0.26761016E+00 0.36389172E+04</pdfrwt>
<pdfrwt beam="2">  1       -2 0.29278921E+00 0.36389172E+04</pdfrwt>
<totfact> 0.26648420E-01</totfact>
</mgrwt>
</event>
<event>
 6    1  0.1585031E-006  0.3758893E+04  0.7818608E-02  0.8055034E-01
         -1   -1    0    0    0  501 -0.00000000000E+00  0.00000000000E+00  0.18593785916E+04  0.18593785916E+04  0.00000000000E+00 0.  1.
          1   -1    0    0  501    0  0.00000000000E+00 -0.00000000000E+00 -0.18997314504E+04  0.18997314504E+04  0.00000000000E+00 0. -1.
         23    2    1    2    0    0 -0.36383058116E+03 -0.75737548786E+03 -0.17001790775E+04  0.18987301351E+04  0.92611601763E+02 0.  0.
         11    1    3    3    0    0 -0.70175308212E+02 -0.23954353054E+03 -0.47568144390E+03  0.53719504184E+03  0.00000000000E+00 0.  1.
        -11    1    3    3    0    0 -0.29365527295E+03 -0.51783195732E+03 -0.12244976336E+04  0.13615350932E+04  0.00000000000E+00 0. -1.
         22    1    1    2    0    0  0.36383058116E+03  0.75737548786E+03  0.16598262188E+04  0.18603799069E+04  0.00000000000E+00 0.  1.
<mgrwt>
<rscale>  0 0.37588934E+04</rscale>
<asrwt>0</asrwt>
<pdfrwt beam="1">  1        1 0.29226637E+00 0.37588934E+04</pdfrwt>
<pdfrwt beam="2">  1       -1 0.28605825E+00 0.37588934E+04</pdfrwt>
<totfact> 0.11315887E-01</totfact>
</mgrwt>
</event>
<event>
 6    1  0.1585031E-006  0.3409805E+04  0.7818608E-02  0.8135504E-01
         -2   -1    0    0    0  501 -0.00000000000E+00  0.00000000000E+00  0.95614930506E+03  0.95614930506E+03  0.00000000000E+00 0.  1.
          2   -1    0    0  501    0  0.00000000000E+00 -0.00000000000E+00 -0.30399986367E+04  0.30399986367E+04  0.00000000000E+00 0. -1.
         23    2    1    2    0    0 -0.56852644024E+03  0.15975216431E+04 -0.12350471997E+04  0.20998982818E+04  0.94517167410E+02 0.  0.
         11    1    3    3    0    0 -0.42127090529E+02  0.75345870881E+02 -0.82189330755E+02  0.11919218978E+03  0.00000000000E+00 0. -1.
        -11    1    3    3    0    0 -0.52639934971E+03  0.15221757723E+04 -0.11528578689E+04  0.19807060920E+04  0.00000000000E+00 0.  1.
         22    1    1    2    0    0  0.56852644024E+03 -0.15975216431E+04 -0.84880213194E+03  0.18962496599E+04  0.00000000000E+00 0.  1.
<mgrwt>
<rscale>  0 0.34098050E+04</rscale>
<asrwt>0</asrwt>
<pdfrwt beam="1">  1        2 0.46769209E+00 0.34098050E+04</pdfrwt>
<pdfrwt beam="2">  1       -2 0.14709990E+00 0.34098050E+04</pdfrwt>
<totfact> 0.42877027E-01</totfact>
</mgrwt>
</event>
<event>
 6    1  0.1585031E-006  0.7570782E+04  0.7818608E-02  0.7521273E-01
         -2   -1    0    0    0  501 -0.00000000000E+00  0.00000000000E+00  0.42943780607E+04  0.42943780607E+04  0.00000000000E+00 0.  1.
          2   -1    0    0  501    0  0.00000000000E+00 -0.00000000000E+00 -0.33367313494E+04  0.33367313494E+04  0.00000000000E+00 0. -1.
         23    2    1    2    0    0 -0.32821861056E+03 -0.23286583425E+04  0.34680924483E+04  0.41912380562E+04  0.91837254129E+02 0.  0.
         11    1    3    3    0    0 -0.23111441764E+03 -0.13265812132E+04  0.19622594030E+04  0.23798515823E+04  0.00000000000E+00 0.  1.
        -11    1    3    3    0    0 -0.97104192915E+02 -0.10020771294E+04  0.15058330453E+04  0.18113864739E+04  0.00000000000E+00 0. -1.
         22    1    1    2    0    0  0.32821861056E+03  0.23286583425E+04 -0.25104457370E+04  0.34398713539E+04  0.00000000000E+00 0. -1.
<mgrwt>
<rscale>  0 0.75707822E+04</rscale>
<asrwt>0</asrwt>
<pdfrwt beam="1">  1        2 0.51334329E+00 0.75707822E+04</pdfrwt>
<pdfrwt beam="2">  1       -2 0.66067355E+00 0.75707822E+04</pdfrwt>
<totfact> 0.20100624E-04</totfact>
</mgrwt>
</event>
<event>
 6    1  0.1585031E-006  0.5540492E+04  0.7818608E-02  0.7750142E-01
         -1   -1    0    0    0  501 -0.00000000000E+00  0.00000000000E+00  0.17265561364E+04  0.17265561364E+04  0.00000000000E+00 0.  1.
          1   -1    0    0  501    0  0.00000000000E+00 -0.00000000000E+00 -0.44448386767E+04  0.44448386767E+04  0.00000000000E+00 0. -1.
         23    2    1    2    0    0  0.16890114854E+04 -0.50352328706E+03  0.10200564852E+04  0.20384208030E+04  0.91370885522E+02 0.  0.
         13    1    3    3    0    0  0.11545306382E+04 -0.32556860786E+03  0.73838804975E+03  0.14085995971E+04  0.00000000000E+00 0.  1.
        -13    1    3    3    0    0  0.53448084724E+03 -0.17795467919E+03  0.28166843548E+03  0.62982120594E+03  0.00000000000E+00 0. -1.
         22    1    1    2    0    0 -0.16890114854E+04  0.50352328706E+03 -0.37383390255E+04  0.41329740101E+04  0.00000000000E+00 0. -1.
<mgrwt>
<rscale>  0 0.55404922E+04</rscale>
<asrwt>0</asrwt>
<pdfrwt beam="1">  1        1 0.68382133E+00 0.55404922E+04</pdfrwt>
<pdfrwt beam="2">  1       -1 0.26562402E+00 0.55404922E+04</pdfrwt>
<totfact> 0.13886414E-03</totfact>
</mgrwt>
</event>
<event>
 6    1  0.1585031E-006  0.3742013E+04  0.7818608E-02  0.8058714E-01
         -1   -1    0    0    0  501 -0.00000000000E+00  0.00000000000E+00  0.12629611165E+04  0.12629611165E+04  0.00000000000E+00 0.  1.
          1   -1    0    0  501    0  0.00000000000E+00 -0.00000000000E+00 -0.27717924132E+04  0.27717924132E+04  0.00000000000E+00 0. -1.
         23    2    1    2    0    0 -0.18683652987E+04 -0.47110813424E+02 -0.69418068149E+03  0.19959637065E+04  0.94741652849E+02 0.  0.
         13    1    3    3    0    0 -0.10978189331E+04 -0.17222417918E+02 -0.45611732422E+03  0.11889264212E+04  0.00000000000E+00 0.  1.
        -13    1    3    3    0    0 -0.77054636559E+03 -0.29888395506E+02 -0.23806335727E+03  0.80703728525E+03  0.00000000000E+00 0. -1.
         22    1    1    2    0    0  0.18683652987E+04  0.47110813424E+02 -0.81465061521E+03  0.20387898232E+04  0.00000000000E+00 0. -1.
<mgrwt>
<rscale>  0 0.37420134E+04</rscale>
<asrwt>0</asrwt>
<pdfrwt beam="1">  1        1 0.42642960E+00 0.37420134E+04</pdfrwt>
<pdfrwt beam="2">  1       -1 0.19430171E+00 0.37420134E+04</pdfrwt>
<totfact> 0.11501185E-01</totfact>
</mgrwt>
</event>
<event>
 6    1  0.1585031E-006  0.2504872E+04  0.7818608E-02  0.8401252E-01
          2   -1    0    0  501    0  0.00000000000E+00  0.00000000000E+00  0.16581656950E+04  0.16581656950E+04  0.00000000000E+00 0. -1.
         -2   -1    0    0    0  501 -0.00000000000E+00 -0.00000000000E+00 -0.94598225320E+03  0.94598225320E+03  0.00000000000E+00 0.  1.
         23    2    1    2    0    0 -0.84990854201E+03 -0.81981947442E+03  0.78519297390E+03  0.14210254304E+04  0.91305898867E+02 0.  0.
         11    1    3    3    0    0 -0.65822454259E+03 -0.62105878494E+03  0.55562029020E+03  0.10619263014E+04  0.00000000000E+00 0. -1.
        -11    1    3    3    0    0 -0.19168399942E+03 -0.19876068948E+03  0.22957268370E+03  0.35909912896E+03  0.00000000000E+00 0.  1.
         22    1    1    2    0    0  0.84990854201E+03  0.81981947442E+03 -0.73009532066E+02  0.11831225178E+04  0.00000000000E+00 0.  1.
<mgrwt>
<rscale>  0 0.25048715E+04</rscale>
<asrwt>0</asrwt>
<pdfrwt beam="1">  1        2 0.25510242E+00 0.25048715E+04</pdfrwt>
<pdfrwt beam="2">  1       -2 0.14553573E+00 0.25048715E+04</pdfrwt>
<totfact> 0.29942088E+00</totfact>
</mgrwt>
</event>
<event>
 6    1  0.1585031E-006  0.2355724E+04  0.7818608E-02  0.8456268E-01
         -2   -1    0    0    0  501 -0.00000000000E+00  0.00000000000E+00  0.25688691307E+04  0.25688691307E+04  0.00000000000E+00 0.  1.
          2   -1    0    0  501    0  0.00000000000E+00 -0.00000000000E+00 -0.54006622066E+03  0.54006622066E+03  0.00000000000E+00 0. -1.
         23    2    1    2    0    0 -0.39568390597E+03 -0.66277266580E+03  0.21869941369E+04  0.23209900333E+04  0.90653296110E+02 0.  0.
         11    1    3    3    0    0 -0.80043058928E+02 -0.18753667282E+03  0.66628066368E+03  0.69678319277E+03  0.00000000000E+00 0. -1.
        -11    1    3    3    0    0 -0.31564084704E+03 -0.47523599298E+03  0.15207134732E+04  0.16242068405E+04  0.00000000000E+00 0.  1.
         22    1    1    2    0    0  0.39568390597E+03  0.66277266580E+03 -0.15819122683E+03  0.78794531804E+03  0.00000000000E+00 0. -1.
<mgrwt>
<rscale>  0 0.23557245E+04</rscale>
<asrwt>0</asrwt>
<pdfrwt beam="1">  1        2 0.83087112E-01 0.23557245E+04</pdfrwt>
<pdfrwt beam="2">  1       -2 0.39521063E+00 0.23557245E+04</pdfrwt>
<totfact> 0.40534654E-01</totfact>
</mgrwt>
</event>
<event>
 6    1  0.1585031E-006  0.3328254E+04  0.7818608E-02  0.8155743E-01
          1   -1    0    0  501    0  0.00000000000E+00  0.00000000000E+00  0.35303883092E+04  0.35303883092E+04  0.00000000000E+00 0. -1.
         -1   -1    0    0    0  501 -0.00000000000E+00 -0.00000000000E+00 -0.78442304867E+03  0.78442304867E+03  0.00000000000E+00 0.  1.
         23    2    1    2    0    0 -0.15186867005E+04  0.36904106749E+03  0.21110057489E+04  0.26278690989E+04  0.82159145293E+02 0.  0.
         11    1    3    3    0    0 -0.97038330881E+03  0.19945413960E+03  0.13064451374E+04  0.16395806222E+04  0.00000000000E+00 0. -1.
        -11    1    3    3    0    0 -0.54830339170E+03  0.16958692789E+03  0.80456061150E+03  0.98828847663E+03  0.00000000000E+00 0.  1.
         22    1    1    2    0    0  0.15186867005E+04 -0.36904106749E+03  0.63495951165E+03  0.16869422590E+04  0.00000000000E+00 0.  1.
<mgrwt>
<rscale>  0 0.33282536E+04</rscale>
<asrwt>0</asrwt>
<pdfrwt beam="1">  1        1 0.54313665E+00 0.33282536E+04</pdfrwt>
<pdfrwt beam="2">  1       -1 0.12068047E+00 0.33282536E+04</pdfrwt>
<totfact> 0.11930237E-01</totfact>
</mgrwt>
</event>
<event>
 6    1  0.1585031E-006  0.3584348E+04  0.7818608E-02  0.8094086E-01
          2   -1    0    0  501    0  0.00000000000E+00  0.00000000000E+00  0.29905285663E+04  0.29905285663E+04  0.00000000000E+00 0.  1.
         -2   -1    0    0    0  501 -0.00000000000E+00 -0.00000000000E+00 -0.10740199297E+04  0.10740199297E+04  0.00000000000E+00 0. -1.
         23    2    1    2    0    0  0.36071014389E+03 -0.66852924377E+02  0.29467586533E+04  0.29709323758E+04  0.92040748219E+02 0.  0.
         11    1    3    3    0    0  0.15256036326E+03 -0.56971728579E+02  0.10171246514E+04  0.10300791225E+04  0.00000000000E+00 0. -1.
        -11    1    3    3    0    0  0.20814978063E+03 -0.98811957983E+01  0.19296340019E+04  0.19408532532E+04  0.00000000000E+00 0.  1.
         22    1    1    2    0    0 -0.36071014389E+03  0.66852924377E+02 -0.10302500167E+04  0.10936161202E+04  0.00000000000E+00 0. -1.
<mgrwt>
<rscale>  0 0.35843478E+04</rscale>
<asrwt>0</asrwt>
<pdfrwt beam="1">  1        2 0.46008132E+00 0.35843478E+04</pdfrwt>
<pdfrwt beam="2">  1       -2 0.16523384E+00 0.35843478E+04</pdfrwt>
<totfact> 0.33196784E-01</totfact>
</mgrwt>
</event>
<event>
 6    1  0.1585031E-006  0.2109706E+04  0.7818608E-02  0.8556980E-01
          2   -1    0    0  501    0  0.00000000000E+00  0.00000000000E+00  0.92997640086E+03  0.92997640086E+03  0.00000000000E+00 0. -1.
         -2   -1    0    0    0  501 -0.00000000000E+00 -0.00000000000E+00 -0.11964974022E+04  0.11964974022E+04  0.00000000000E+00 0.  1.
         23    2    1    2    0    0 -0.19364854663E+03 -0.10202934473E+04 -0.30610747934E+03  0.10872117728E+04  0.99142179382E+02 0.  0.
         11    1    3    3    0    0 -0.15326199200E+03 -0.70249413338E+03 -0.16817474679E+03  0.73842399140E+03  0.00000000000E+00 0.  1.
        -11    1    3    3    0    0 -0.40386554637E+02 -0.31779931396E+03 -0.13793273256E+03  0.34878778141E+03  0.00000000000E+00 0. -1.
         22    1    1    2    0    0  0.19364854663E+03  0.10202934473E+04  0.39586477991E+02  0.10392620303E+04  0.00000000000E+00 0.  1.
<mgrwt>
<rscale>  0 0.21097055E+04</rscale>
<asrwt>0</asrwt>
<pdfrwt beam="1">  1        2 0.14307329E+00 0.21097055E+04</pdfrwt>
<pdfrwt beam="2">  1       -2 0.18407652E+00 0.21097055E+04</pdfrwt>
<totfact> 0.43805620E+00</totfact>
</mgrwt>
</event>
<event>
 6    1  0.1585031E-006  0.2777269E+04  0.7818608E-02  0.8310360E-01
          1   -1    0    0  501    0  0.00000000000E+00  0.00000000000E+00  0.16186211384E+04  0.16186211384E+04  0.00000000000E+00 0. -1.
         -1   -1    0    0    0  501 -0.00000000000E+00 -0.00000000000E+00 -0.11913265813E+04  0.11913265813E+04  0.00000000000E+00 0.  1.
         23    2    1    2    0    0 -0.11004621598E+04  0.80401820019E+03 -0.45270661299E+02  0.13674567779E+04  0.10210962454E+03 0.  0.
         13    1    3    3    0    0 -0.58886307482E+03  0.37345140771E+03 -0.66292132815E+00  0.69729915694E+03  0.00000000000E+00 0.  1.
        -13    1    3    3    0    0 -0.51159908494E+03  0.43056679249E+03 -0.44607739971E+02  0.67015762099E+03  0.00000000000E+00 0. -1.
         22    1    1    2    0    0  0.11004621598E+04 -0.80401820019E+03  0.47256521844E+03  0.14424909417E+04  0.00000000000E+00 0.  1.
<mgrwt>
<rscale>  0 0.27772694E+04</rscale>
<asrwt>0</asrwt>
<pdfrwt beam="1">  1        1 0.24901864E+00 0.27772694E+04</pdfrwt>
<pdfrwt beam="2">  1       -1 0.18328101E+00 0.27772694E+04</pdfrwt>
<totfact> 0.92660685E-01</totfact>
</mgrwt>
</event>
<event>
 6    1  0.1585031E-006  0.2220621E+04  0.7818608E-02  0.8509894E-01
          2   -1    0    0  501    0  0.00000000000E+00  0.00000000000E+00  0.31369163896E+04  0.31369163896E+04  0.00000000000E+00 0. -1.
         -2   -1    0    0    0  501 -0.00000000000E+00 -0.00000000000E+00 -0.39299386867E+03  0.39299386867E+03  0.00000000000E+00 0.  1.
         23    2    1    2    0    0 -0.89855327839E+03  0.56876615041E+03  0.87941637197E+03  0.13834536183E+04  0.98375965885E+02 0.  0.
         11    1    3    3    0    0 -0.31700896970E+03  0.17002733345E+03  0.34802221702E+03  0.50052317082E+03  0.00000000000E+00 0.  1.
        -11    1    3    3    0    0 -0.58154430868E+03  0.39873881696E+03  0.53139415496E+03  0.88293044745E+03  0.00000000000E+00 0. -1.
         22    1    1    2    0    0  0.89855327839E+03 -0.56876615041E+03  0.18645061490E+04  0.21464566400E+04  0.00000000000E+00 0. -1.
<mgrwt>
<rscale>  0 0.22206206E+04</rscale>
<asrwt>0</asrwt>
<pdfrwt beam="1">  1        2 0.48260251E+00 0.22206206E+04</pdfrwt>
<pdfrwt beam="2">  1       -2 0.60460597E-01 0.22206206E+04</pdfrwt>
<totfact> 0.33187193E+00</totfact>
</mgrwt>
</event>
<event>
 6    1  0.1585031E-006  0.1783495E+04  0.7818608E-02  0.8715126E-01
         -1   -1    0    0    0  501 -0.00000000000E+00  0.00000000000E+00  0.50071927540E+03  0.50071927540E+03  0.00000000000E+00 0.  1.
          1   -1    0    0  501    0  0.00000000000E+00 -0.00000000000E+00 -0.15881428304E+04  0.15881428304E+04  0.00000000000E+00 0. -1.
         23    2    1    2    0    0  0.76505348569E+03  0.22543566694E+03 -0.83875338680E+02  0.80697400680E+03  0.89687787993E+02 0.  0.
         13    1    3    3    0    0  0.26669036305E+03  0.84038018307E+02  0.13173213172E+02  0.27992797611E+03  0.00000000000E+00 0.  1.
        -13    1    3    3    0    0  0.49836312264E+03  0.14139764863E+03 -0.97048551852E+02  0.52704603069E+03  0.00000000000E+00 0. -1.
         22    1    1    2    0    0 -0.76505348569E+03 -0.22543566694E+03 -0.10035482164E+04  0.12818880990E+04  0.00000000000E+00 0. -1.
<mgrwt>
<rscale>  0 0.17834951E+04</rscale>
<asrwt>0</asrwt>
<pdfrwt beam="1">  1        1 0.24432967E+00 0.17834951E+04</pdfrwt>
<pdfrwt beam="2">  1       -1 0.77033734E-01 0.17834951E+04</pdfrwt>
<totfact> 0.90799236E+00</totfact>
</mgrwt>
</event>
<event>
 6    1  0.1585031E-006  0.2750876E+04  0.7818608E-02  0.8318684E-01
          1   -1    0    0  501    0  0.00000000000E+00  0.00000000000E+00  0.10668204914E+04  0.10668204914E+04  0.00000000000E+00 0. -1.
         -1   -1    0    0    0  501 -0.00000000000E+00 -0.00000000000E+00 -0.17733342400E+04  0.17733342400E+04  0.00000000000E+00 0.  1.
         23    2    1    2    0    0  0.66592835887E+02 -0.10408135396E+04 -0.12770740928E+04  0.16513458585E+04  0.91090482229E+02 0.  0.
         13    1    3    3    0    0 -0.56334049914E+01 -0.28053128219E+03 -0.39638911337E+03  0.48564788143E+03  0.00000000000E+00 0. -1.
        -13    1    3    3    0    0  0.72226240878E+02 -0.76028225741E+03 -0.88068497943E+03  0.11656979771E+04  0.00000000000E+00 0.  1.
         22    1    1    2    0    0 -0.66592835887E+02  0.10408135396E+04  0.57056034422E+03  0.11888088729E+04  0.00000000000E+00 0. -1.
<mgrwt>
<rscale>  0 0.27508757E+04</rscale>
<asrwt>0</asrwt>
<pdfrwt beam="1">  1        1 0.16412623E+00 0.27508757E+04</pdfrwt>
<pdfrwt beam="2">  1       -1 0.27282065E+00 0.27508757E+04</pdfrwt>
<totfact> 0.57856748E-01</totfact>
</mgrwt>
</event>
<event>
 6    1  0.1585031E-006  0.5599936E+04  0.7818608E-02  0.7742086E-01
          1   -1    0    0  501    0  0.00000000000E+00  0.00000000000E+00  0.19567603639E+04  0.19567603639E+04  0.00000000000E+00 0. -1.
         -1   -1    0    0    0  501 -0.00000000000E+00 -0.00000000000E+00 -0.40065309277E+04  0.40065309277E+04  0.00000000000E+00 0.  1.
         23    2    1    2    0    0 -0.71067877924E+03  0.10498880448E+04  0.16322770891E+04  0.20690899418E+04  0.97341964472E+02 0.  0.
         13    1    3    3    0    0 -0.56814110812E+03  0.87425304896E+03  0.13907043938E+04  0.17381488495E+04  0.00000000000E+00 0. -1.
        -13    1    3    3    0    0 -0.14253767112E+03  0.17563499582E+03  0.24157269534E+03  0.33094109230E+03  0.00000000000E+00 0.  1.
         22    1    1    2    0    0  0.71067877924E+03 -0.10498880448E+04 -0.36820476530E+04  0.38942013498E+04  0.00000000000E+00 0.  1.
<mgrwt>
<rscale>  0 0.55999360E+04</rscale>
<asrwt>0</asrwt>
<pdfrwt beam="1">  1        1 0.30104006E+00 0.55999360E+04</pdfrwt>
<pdfrwt beam="2">  1       -1 0.61638937E+00 0.55999360E+04</pdfrwt>
<totfact> 0.85344615E-04</totfact>
</mgrwt>
</event>
<event>
 6    1  0.1585031E-006  0.3791950E+04  0.7818608E-02  0.8047885E-01
          1   -1    0    0  501    0  0.00000000000E+00  0.00000000000E+00  0.11138436300E+04  0.11138436300E+04  0.00000000000E+00 0. -1.
         -1   -1    0    0    0  501 -0.00000000000E+00 -0.00000000000E+00 -0.32273122425E+04  0.32273122425E+04  0.00000000000E+00 0.  1.
         23    2    1    2    0    0 -0.10691166567E+04 -0.15604016343E+04 -0.11865974331E+04  0.22347480608E+04  0.90673815718E+02 0.  0.
         11    1    3    3    0    0 -0.76201306961E+03 -0.10374162825E+04 -0.80883853233E+03  0.15202355846E+04  0.00000000000E+00 0.  1.
        -11    1    3    3    0    0 -0.30710358712E+03 -0.52298535186E+03 -0.37775890074E+03  0.71451247615E+03  0.00000000000E+00 0. -1.
         22    1    1    2    0    0  0.10691166567E+04  0.15604016343E+04 -0.92687117945E+03  0.21064078118E+04  0.00000000000E+00 0. -1.
<mgrwt>
<rscale>  0 0.37919500E+04</rscale>
<asrwt>0</asrwt>
<pdfrwt beam="1">  1        1 0.17136056E+00 0.37919500E+04</pdfrwt>
<pdfrwt beam="2">  1       -1 0.49650957E+00 0.37919500E+04</pdfrwt>
<totfact> 0.15474958E-02</totfact>
</mgrwt>
</event>
<event>
 6    1  0.1585031E-006  0.1082130E+04  0.7818608E-02  0.9222786E-01
          1   -1    0    0  501    0  0.00000000000E+00  0.00000000000E+00  0.10848238190E+04  0.10848238190E+04  0.00000000000E+00 0. -1.
         -1   -1    0    0    0  501 -0.00000000000E+00 -0.00000000000E+00 -0.26986080400E+03  0.26986080400E+03  0.00000000000E+00 0.  1.
         23    2    1    2    0    0  0.20594805935E+03  0.10978187221E+03 -0.19535502497E+03  0.31776167286E+03  0.91335821788E+02 0.  0.
         11    1    3    3    0    0  0.19814484633E+03  0.95526131935E+02 -0.14160317568E+03  0.26160673036E+03  0.00000000000E+00 0. -1.
        -11    1    3    3    0    0  0.78032130186E+01  0.14255740276E+02 -0.53751849295E+02  0.56154942497E+02  0.00000000000E+00 0.  1.
         22    1    1    2    0    0 -0.20594805935E+03 -0.10978187221E+03  0.10103180399E+04  0.10369229501E+04  0.00000000000E+00 0. -1.
<mgrwt>
<rscale>  0 0.10821302E+04</rscale>
<asrwt>0</asrwt>
<pdfrwt beam="1">  1        1 0.16689597E+00 0.10821302E+04</pdfrwt>
<pdfrwt beam="2">  1       -1 0.41517047E-01 0.10821302E+04</pdfrwt>
<totfact> 0.73817026E+01</totfact>
</mgrwt>
</event>
<event>
 6    1  0.1585031E-006  0.2433237E+04  0.7818608E-02  0.8427164E-01
         -2   -1    0    0    0  501 -0.00000000000E+00  0.00000000000E+00  0.56150774337E+03  0.56150774337E+03  0.00000000000E+00 0.  1.
          2   -1    0    0  501    0  0.00000000000E+00 -0.00000000000E+00 -0.26360469641E+04  0.26360469641E+04  0.00000000000E+00 0. -1.
         23    2    1    2    0    0  0.97729160290E+03 -0.59177376951E+03 -0.15816865494E+04  0.19532883264E+04  0.91147541415E+02 0.  0.
         13    1    3    3    0    0  0.89317132733E+03 -0.56844435847E+03 -0.14538375880E+04  0.17984792857E+04  0.00000000000E+00 0. -1.
        -13    1    3    3    0    0  0.84120275570E+02 -0.23329411043E+02 -0.12784896131E+03  0.15480904072E+03  0.00000000000E+00 0.  1.
         22    1    1    2    0    0 -0.97729160290E+03  0.59177376951E+03 -0.49285267140E+03  0.12442663811E+04  0.00000000000E+00 0.  1.
<mgrwt>
<rscale>  0 0.24332372E+04</rscale>
<asrwt>0</asrwt>
<pdfrwt beam="1">  1        2 0.40554569E+00 0.24332372E+04</pdfrwt>
<pdfrwt beam="2">  1       -2 0.86385807E-01 0.24332372E+04</pdfrwt>
<totfact> 0.30176518E+00</totfact>
</mgrwt>
</event>
<event>
 6    1  0.1585031E-006  0.8982830E+03  0.7818608E-02  0.9427730E-01
          1   -1    0    0  501    0  0.00000000000E+00  0.00000000000E+00  0.27610797864E+03  0.27610797864E+03  0.00000000000E+00 0. -1.
         -1   -1    0    0    0  501 -0.00000000000E+00 -0.00000000000E+00 -0.73061299032E+03  0.73061299032E+03  0.00000000000E+00 0.  1.
         23    2    1    2    0    0  0.27077614997E+03  0.30375658280E+03 -0.43030342513E+03  0.59907712713E+03  0.90247335601E+02 0.  0.
         13    1    3    3    0    0  0.28702050420E+02  0.55338975962E+02 -0.11261769556E+03  0.12872045413E+03  0.00000000000E+00 0. -1.
        -13    1    3    3    0    0  0.24207409955E+03  0.24841760684E+03 -0.31768572958E+03  0.47035667301E+03  0.00000000000E+00 0.  1.
         22    1    1    2    0    0 -0.27077614997E+03 -0.30375658280E+03 -0.24201586544E+02  0.40764384183E+03  0.00000000000E+00 0.  1.
<mgrwt>
<rscale>  0 0.89828298E+03</rscale>
<asrwt>0</asrwt>
<pdfrwt beam="1">  1        1 0.42478151E-01 0.89828298E+03</pdfrwt>
<pdfrwt beam="2">  1       -1 0.11240200E+00 0.89828298E+03</pdfrwt>
<totfact> 0.71441136E+01</totfact>
</mgrwt>
</event>
<event>
 6    1  0.1756880E-006  0.4215112E+04  0.7818608E-02  0.7962504E-01
         -2   -1    0    0    0  501 -0.00000000000E+00  0.00000000000E+00  0.15417387621E+04  0.15417387621E+04  0.00000000000E+00 0.  1.
          2   -1    0    0  501    0  0.00000000000E+00 -0.00000000000E+00 -0.28810282841E+04  0.28810282841E+04  0.00000000000E+00 0. -1.
         23    2    1    2    0    0 -0.18400322210E+04  0.83200593409E+03 -0.40690343289E+02  0.20218688235E+04  0.91353088492E+02 0.  0.
         13    1    3    3    0    0 -0.12692830248E+04  0.53856697070E+03 -0.55520869383E+02  0.13799334571E+04  0.00000000000E+00 0. -1.
        -13    1    3    3    0    0 -0.57074919617E+03  0.29343896339E+03  0.14830526094E+02  0.64193536642E+03  0.00000000000E+00 0.  1.
         22    1    1    2    0    0  0.18400322210E+04 -0.83200593409E+03 -0.12985991787E+04  0.24008982227E+04  0.00000000000E+00 0. -1.
<mgrwt>
<rscale>  0 0.42151123E+04</rscale>
<asrwt>0</asrwt>
<pdfrwt beam="1">  1        2 0.44323511E+00 0.42151123E+04</pdfrwt>
<pdfrwt beam="2">  1       -2 0.23719058E+00 0.42151123E+04</pdfrwt>
<totfact> 0.12333587E-01</totfact>
</mgrwt>
</event>
<event>
 6    1  0.1585031E-006  0.2765979E+04  0.7818608E-02  0.8313909E-01
          1   -1    0    0  501    0  0.00000000000E+00  0.00000000000E+00  0.29365700736E+04  0.29365700736E+04  0.00000000000E+00 0. -1.
         -1   -1    0    0    0  501 -0.00000000000E+00 -0.00000000000E+00 -0.65132459926E+03  0.65132459926E+03  0.00000000000E+00 0.  1.
         23    2    1    2    0    0 -0.32586642885E+03  0.17119211689E+03  0.28710883138E+04  0.28960077580E+04  0.90648544072E+02 0.  0.
         13    1    3    3    0    0 -0.13942282638E+03  0.89492723941E+02  0.16223218861E+04  0.16307593244E+04  0.00000000000E+00 0. -1.
        -13    1    3    3    0    0 -0.18644360247E+03  0.81699392946E+02  0.12487664278E+04  0.12652484336E+04  0.00000000000E+00 0.  1.
         22    1    1    2    0    0  0.32586642885E+03 -0.17119211689E+03 -0.58584283948E+03  0.69188691482E+03  0.00000000000E+00 0.  1.
<mgrwt>
<rscale>  0 0.27659793E+04</rscale>
<asrwt>0</asrwt>
<pdfrwt beam="1">  1        1 0.45178000E+00 0.27659793E+04</pdfrwt>
<pdfrwt beam="2">  1       -1 0.10020379E+00 0.27659793E+04</pdfrwt>
<totfact> 0.54724796E-01</totfact>
</mgrwt>
</event>
<event>
 6    1  0.1585031E-006  0.1814888E+04  0.7818608E-02  0.8698422E-01
          2   -1    0    0  501    0  0.00000000000E+00  0.00000000000E+00  0.14144546248E+04  0.14144546248E+04  0.00000000000E+00 0. -1.
         -2   -1    0    0    0  501 -0.00000000000E+00 -0.00000000000E+00 -0.58217085622E+03  0.58217085622E+03  0.00000000000E+00 0.  1.
         23    2    1    2    0    0  0.49024938813E+03  0.62316984757E+03  0.89788078527E+03  0.12010199946E+04  0.87028738433E+02 0.  0.
         11    1    3    3    0    0  0.40149991327E+03  0.45119961498E+03  0.69037703272E+03  0.91728061149E+03  0.00000000000E+00 0. -1.
        -11    1    3    3    0    0  0.88749474855E+02  0.17197023259E+03  0.20750375254E+03  0.28373938307E+03  0.00000000000E+00 0.  1.
         22    1    1    2    0    0 -0.49024938813E+03 -0.62316984757E+03 -0.65597016694E+02  0.79560548645E+03  0.00000000000E+00 0.  1.
<mgrwt>
<rscale>  0 0.18148876E+04</rscale>
<asrwt>0</asrwt>
<pdfrwt beam="1">  1        2 0.21760840E+00 0.18148876E+04</pdfrwt>
<pdfrwt beam="2">  1       -2 0.89564747E-01 0.18148876E+04</pdfrwt>
<totfact> 0.14308436E+01</totfact>
</mgrwt>
</event>
<event>
 6    1  0.1585031E-006  0.2498945E+04  0.7818608E-02  0.8403362E-01
          2   -1    0    0  501    0  0.00000000000E+00  0.00000000000E+00  0.27862505683E+04  0.27862505683E+04  0.00000000000E+00 0. -1.
         -2   -1    0    0    0  501 -0.00000000000E+00 -0.00000000000E+00 -0.56031609771E+03  0.56031609771E+03  0.00000000000E+00 0.  1.
         23    2    1    2    0    0  0.69941306356E+03  0.10282711922E+04  0.12525164279E+04  0.17673064075E+04  0.89745515627E+02 0.  0.
         13    1    3    3    0    0  0.15397062033E+03  0.24150369654E+03  0.23785747274E+03  0.37229983173E+03  0.00000000000E+00 0.  1.
        -13    1    3    3    0    0  0.54544244323E+03  0.78676749570E+03  0.10146589552E+04  0.13950065758E+04  0.00000000000E+00 0. -1.
         22    1    1    2    0    0 -0.69941306356E+03 -0.10282711922E+04  0.97341804266E+03  0.15792602585E+04  0.00000000000E+00 0.  1.
<mgrwt>
<rscale>  0 0.24989446E+04</rscale>
<asrwt>0</asrwt>
<pdfrwt beam="1">  1        2 0.42865392E+00 0.24989446E+04</pdfrwt>
<pdfrwt beam="2">  1       -2 0.86202478E-01 0.24989446E+04</pdfrwt>
<totfact> 0.24531649E+00</totfact>
</mgrwt>
</event>
<event>
 6    1  0.1585031E-006  0.1640170E+04  0.7818608E-02  0.8796243E-01
          2   -1    0    0  501    0  0.00000000000E+00  0.00000000000E+00  0.17425157094E+04  0.17425157094E+04  0.00000000000E+00 0. -1.
         -2   -1    0    0    0  501 -0.00000000000E+00 -0.00000000000E+00 -0.38595868848E+03  0.38595868848E+03  0.00000000000E+00 0.  1.
         23    2    1    2    0    0  0.11254499628E+03 -0.37178182060E+03 -0.25298932227E+03  0.47271851938E+03  0.92580252061E+02 0.  0.
         11    1    3    3    0    0  0.36830272518E+02 -0.26966117293E+03 -0.17519909344E+03  0.32367937763E+03  0.00000000000E+00 0. -1.
        -11    1    3    3    0    0  0.75714723758E+02 -0.10212064767E+03 -0.77790228827E+02  0.14903914176E+03  0.00000000000E+00 0.  1.
         22    1    1    2    0    0 -0.11254499628E+03  0.37178182060E+03  0.16095463432E+04  0.16557558785E+04  0.00000000000E+00 0. -1.
<mgrwt>
<rscale>  0 0.16401696E+04</rscale>
<asrwt>0</asrwt>
<pdfrwt beam="1">  1        2 0.26807934E+00 0.16401696E+04</pdfrwt>
<pdfrwt beam="2">  1       -2 0.59378261E-01 0.16401696E+04</pdfrwt>
<totfact> 0.23504171E+01</totfact>
</mgrwt>
</event>
<event>
 6    1  0.1585031E-006  0.7066464E+03  0.7818608E-02  0.9705933E-01
         -2   -1    0    0    0  501 -0.00000000000E+00  0.00000000000E+00  0.62512181621E+02  0.62512181621E+02  0.00000000000E+00 0.  1.
          2   -1    0    0  501    0  0.00000000000E+00 -0.00000000000E+00 -0.19970072157E+04  0.19970072157E+04  0.00000000000E+00 0. -1.
         23    2    1    2    0    0  0.18896400533E+03 -0.17417659334E+03 -0.16648750788E+04  0.16870414768E+04  0.90857226161E+02 0.  0.
         13    1    3    3    0    0  0.71202527247E+02 -0.12082234682E+02 -0.44526208624E+03  0.45108104119E+03  0.00000000000E+00 0.  1.
        -13    1    3    3    0    0  0.11776147808E+03 -0.16209435866E+03 -0.12196129925E+04  0.12359604356E+04  0.00000000000E+00 0. -1.
         22    1    1    2    0    0 -0.18896400533E+03  0.17417659334E+03 -0.26961995531E+03  0.37247792052E+03  0.00000000000E+00 0.  1.
<mgrwt>
<rscale>  0 0.70664638E+03</rscale>
<asrwt>0</asrwt>
<pdfrwt beam="1">  1        2 0.30723191E+00 0.70664638E+03</pdfrwt>
<pdfrwt beam="2">  1       -2 0.96172577E-02 0.70664638E+03</pdfrwt>
<totfact> 0.50357075E+02</totfact>
</mgrwt>
</event>
<event>
 6    1  0.1585031E-006  0.1327361E+04  0.7818608E-02  0.9008145E-01
          1   -1    0    0  501    0  0.00000000000E+00  0.00000000000E+00  0.13342573500E+04  0.13342573500E+04  0.00000000000E+00 0. -1.
         -1   -1    0    0    0  501 -0.00000000000E+00 -0.00000000000E+00 -0.33012491591E+03  0.33012491591E+03  0.00000000000E+00 0.  1.
         23    2    1    2    0    0  0.25780899277E+03 -0.43846286423E+03  0.10329105914E+04  0.11549283009E+04  0.90774062915E+02 0.  0.
         11    1    3    3    0    0  0.12938616658E+03 -0.25049815618E+03  0.66478925481E+03  0.72210446590E+03  0.00000000000E+00 0.  1.
        -11    1    3    3    0    0  0.12842282619E+03 -0.18796470804E+03  0.36812133655E+03  0.43282383504E+03  0.00000000000E+00 0. -1.
         22    1    1    2    0    0 -0.25780899277E+03  0.43846286423E+03 -0.28778157300E+02  0.50945396494E+03  0.00000000000E+00 0.  1.
<mgrwt>
<rscale>  0 0.13273607E+04</rscale>
<asrwt>0</asrwt>
<pdfrwt beam="1">  1        1 0.20527036E+00 0.13273607E+04</pdfrwt>
<pdfrwt beam="2">  1       -1 0.50788449E-01 0.13273607E+04</pdfrwt>
<totfact> 0.32656306E+01</totfact>
</mgrwt>
</event>
<event>
 6    1  0.1585031E-006  0.1240515E+04  0.7818608E-02  0.9078115E-01
          2   -1    0    0  501    0  0.00000000000E+00  0.00000000000E+00  0.14294269079E+04  0.14294269079E+04  0.00000000000E+00 0. -1.
         -2   -1    0    0    0  501 -0.00000000000E+00 -0.00000000000E+00 -0.26914224809E+03  0.26914224809E+03  0.00000000000E+00 0.  1.
         23    2    1    2    0    0 -0.14254901437E+02 -0.31477862515E+03 -0.14349178152E+03  0.35725569746E+03  0.88050877002E+02 0.  0.
         11    1    3    3    0    0 -0.13088892528E+02 -0.18449889587E+03 -0.36184469461E+02  0.18846877066E+03  0.00000000000E+00 0.  1.
        -11    1    3    3    0    0 -0.11660089087E+01 -0.13027972928E+03 -0.10730731206E+03  0.16878692680E+03  0.00000000000E+00 0. -1.
         22    1    1    2    0    0  0.14254901437E+02  0.31477862515E+03  0.13037764413E+04  0.13413134585E+04  0.00000000000E+00 0. -1.
<mgrwt>
<rscale>  0 0.12405147E+04</rscale>
<asrwt>0</asrwt>
<pdfrwt beam="1">  1        2 0.21991183E+00 0.12405147E+04</pdfrwt>
<pdfrwt beam="2">  1       -2 0.41406501E-01 0.12405147E+04</pdfrwt>
<totfact> 0.75661765E+01</totfact>
</mgrwt>
</event>
<event>
 6    1  0.1585031E-006  0.4412734E+04  0.7818608E-02  0.7926095E-01
          2   -1    0    0  501    0  0.00000000000E+00  0.00000000000E+00  0.45012351057E+04  0.45012351057E+04  0.00000000000E+00 0. -1.
         -2   -1    0    0    0  501 -0.00000000000E+00 -0.00000000000E+00 -0.10814932026E+04  0.10814932026E+04  0.00000000000E+00 0.  1.
         23    2    1    2    0    0  0.65947848626E+03  0.20992836029E+04  0.18982746916E+04  0.29075150468E+04  0.91068232721E+02 0.  0.
         13    1    3    3    0    0  0.49615095012E+03  0.14448823831E+04  0.13013732286E+04  0.20068440762E+04  0.00000000000E+00 0.  1.
        -13    1    3    3    0    0  0.16332753614E+03  0.65440121982E+03  0.59690146304E+03  0.90067097052E+03  0.00000000000E+00 0. -1.
         22    1    1    2    0    0 -0.65947848626E+03 -0.20992836029E+04  0.15214672115E+04  0.26752132616E+04  0.00000000000E+00 0.  1.
<mgrwt>
<rscale>  0 0.44127339E+04</rscale>
<asrwt>0</asrwt>
<pdfrwt beam="1">  1        2 0.69249770E+00 0.44127339E+04</pdfrwt>
<pdfrwt beam="2">  1       -2 0.16638357E+00 0.44127339E+04</pdfrwt>
<totfact> 0.21011027E-02</totfact>
</mgrwt>
</event>
<event>
 6    1  0.1585031E-006  0.1301132E+04  0.7818608E-02  0.9028668E-01
         -2   -1    0    0    0  501 -0.00000000000E+00  0.00000000000E+00  0.29322750679E+03  0.29322750679E+03  0.00000000000E+00 0.  1.
          2   -1    0    0  501    0  0.00000000000E+00 -0.00000000000E+00 -0.14433712114E+04  0.14433712114E+04  0.00000000000E+00 0. -1.
         23    2    1    2    0    0  0.18663494802E+03  0.38255282773E+03  0.72851301245E+02  0.44164850517E+03  0.92557118623E+02 0.  0.
         11    1    3    3    0    0  0.70601486952E+02  0.60689034641E+02  0.82789567484E+01  0.93468015975E+02  0.00000000000E+00 0. -1.
        -11    1    3    3    0    0  0.11603346107E+03  0.32186379308E+03  0.64572344496E+02  0.34818048920E+03  0.00000000000E+00 0.  1.
         22    1    1    2    0    0 -0.18663494802E+03 -0.38255282773E+03 -0.12229950058E+04  0.12949502130E+04  0.00000000000E+00 0. -1.
<mgrwt>
<rscale>  0 0.13011320E+04</rscale>
<asrwt>0</asrwt>
<pdfrwt beam="1">  1        2 0.22205711E+00 0.13011320E+04</pdfrwt>
<pdfrwt beam="2">  1       -2 0.45111925E-01 0.13011320E+04</pdfrwt>
<totfact> 0.62402761E+01</totfact>
</mgrwt>
</event>
<event>
 6    1  0.1585031E-006  0.3889141E+03  0.7818608E-02  0.1047687E+00
          1   -1    0    0  501    0  0.00000000000E+00  0.00000000000E+00  0.29200992061E+03  0.29200992061E+03  0.00000000000E+00 0. -1.
         -1   -1    0    0    0  501 -0.00000000000E+00 -0.00000000000E+00 -0.12949406382E+03  0.12949406382E+03  0.00000000000E+00 0.  1.
         23    2    1    2    0    0 -0.56531217438E+02  0.88902014556E+02  0.24865627502E+03  0.28541754724E+03  0.92379036744E+02 0.  0.
         13    1    3    3    0    0 -0.78818698338E+02  0.52254828173E+02  0.14358924430E+03  0.17193261864E+03  0.00000000000E+00 0.  1.
        -13    1    3    3    0    0  0.22287480900E+02  0.36647186383E+02  0.10506703072E+03  0.11348492860E+03  0.00000000000E+00 0. -1.
         22    1    1    2    0    0  0.56531217438E+02 -0.88902014556E+02 -0.86140418223E+02  0.13608643720E+03  0.00000000000E+00 0.  1.
<mgrwt>
<rscale>  0 0.38891414E+03</rscale>
<asrwt>0</asrwt>
<pdfrwt beam="1">  1        1 0.44924603E-01 0.38891414E+03</pdfrwt>
<pdfrwt beam="2">  1       -1 0.19922164E-01 0.38891414E+03</pdfrwt>
<totfact> 0.18488819E+03</totfact>
</mgrwt>
</event>
<event>
 6    1  0.1585031E-006  0.2257270E+04  0.7818608E-02  0.8494962E-01
         -1   -1    0    0    0  501 -0.00000000000E+00  0.00000000000E+00  0.15295069348E+04  0.15295069348E+04  0.00000000000E+00 0.  1.
          1   -1    0    0  501    0  0.00000000000E+00 -0.00000000000E+00 -0.83282834924E+03  0.83282834924E+03  0.00000000000E+00 0. -1.
         23    2    1    2    0    0  0.10290944491E+04  0.41902368092E+03  0.15034491010E+03  0.11241524561E+04  0.80615893102E+02 0.  0.
         13    1    3    3    0    0  0.19343024106E+03  0.62544534965E+02  0.55266211510E+02  0.21066900851E+03  0.00000000000E+00 0. -1.
        -13    1    3    3    0    0  0.83566420805E+03  0.35647914596E+03  0.95078698591E+02  0.91348344760E+03  0.00000000000E+00 0.  1.
         22    1    1    2    0    0 -0.10290944491E+04 -0.41902368092E+03  0.54633367541E+03  0.12381828279E+04  0.00000000000E+00 0.  1.
<mgrwt>
<rscale>  0 0.22572698E+04</rscale>
<asrwt>0</asrwt>
<pdfrwt beam="1">  1        1 0.12812744E+00 0.22572698E+04</pdfrwt>
<pdfrwt beam="2">  1       -1 0.23530876E+00 0.22572698E+04</pdfrwt>
<totfact> 0.16356639E+00</totfact>
</mgrwt>
</event>
<event>
 6    1  0.1585031E-006  0.2250806E+04  0.7818608E-02  0.8497574E-01
         -2   -1    0    0    0  501 -0.00000000000E+00  0.00000000000E+00  0.47942451341E+03  0.47942451341E+03  0.00000000000E+00 0. -1.
          2   -1    0    0  501    0  0.00000000000E+00 -0.00000000000E+00 -0.26417754381E+04  0.26417754381E+04  0.00000000000E+00 0.  1.
         23    2    1    2    0    0 -0.95335795999E+03 -0.20086713878E+03 -0.30735983087E+03  0.10259121514E+04  0.93737235725E+02 0.  0.
         11    1    3    3    0    0 -0.75654611299E+03 -0.19767630876E+03 -0.24688452779E+03  0.81999385009E+03  0.00000000000E+00 0. -1.
        -11    1    3    3    0    0 -0.19681184700E+03 -0.31908300216E+01 -0.60475303082E+02  0.20591830127E+03  0.00000000000E+00 0.  1.
         22    1    1    2    0    0  0.95335795999E+03  0.20086713878E+03 -0.18549910938E+04  0.20952878002E+04  0.00000000000E+00 0.  1.
<mgrwt>
<rscale>  0 0.22508060E+04</rscale>
<asrwt>0</asrwt>
<pdfrwt beam="1">  1        2 0.40642699E+00 0.22508060E+04</pdfrwt>
<pdfrwt beam="2">  1       -2 0.73757618E-01 0.22508060E+04</pdfrwt>
<totfact> 0.43379958E+00</totfact>
</mgrwt>
</event>
<event>
 6    1  0.1585031E-006  0.1168428E+04  0.7818608E-02  0.9140949E-01
          1   -1    0    0  501    0  0.00000000000E+00  0.00000000000E+00  0.10552651481E+04  0.10552651481E+04  0.00000000000E+00 0. -1.
         -1   -1    0    0    0  501 -0.00000000000E+00 -0.00000000000E+00 -0.32343176931E+03  0.32343176931E+03  0.00000000000E+00 0.  1.
         23    2    1    2    0    0 -0.50890225125E+03  0.24595844634E+03  0.52818896794E+03  0.77790734967E+03  0.81726373719E+02 0.  0.
         13    1    3    3    0    0 -0.30922955743E+03  0.18856480183E+03  0.31154834966E+03  0.47774677168E+03  0.00000000000E+00 0.  1.
        -13    1    3    3    0    0 -0.19967269382E+03  0.57393644508E+02  0.21664061828E+03  0.30016057799E+03  0.00000000000E+00 0. -1.
         22    1    1    2    0    0  0.50890225125E+03 -0.24595844634E+03  0.20364441089E+03  0.60078956777E+03  0.00000000000E+00 0.  1.
<mgrwt>
<rscale>  0 0.11684285E+04</rscale>
<asrwt>0</asrwt>
<pdfrwt beam="1">  1        1 0.16234848E+00 0.11684285E+04</pdfrwt>
<pdfrwt beam="2">  1       -1 0.49758734E-01 0.11684285E+04</pdfrwt>
<totfact> 0.55077851E+01</totfact>
</mgrwt>
</event>
<event>
 6    1  0.1585031E-006  0.8169858E+03  0.7818608E-02  0.9535751E-01
          1   -1    0    0  501    0  0.00000000000E+00  0.00000000000E+00  0.76915060834E+03  0.76915060834E+03  0.00000000000E+00 0. -1.
         -1   -1    0    0    0  501 -0.00000000000E+00 -0.00000000000E+00 -0.21694899206E+03  0.21694899206E+03  0.00000000000E+00 0.  1.
         23    2    1    2    0    0  0.19557873033E+03  0.35186980115E+03  0.24755028839E+03  0.48124731675E+03  0.90853937017E+02 0.  0.
         13    1    3    3    0    0  0.15403394018E+03  0.28090977194E+03  0.15024170695E+03  0.35384929731E+03  0.00000000000E+00 0. -1.
        -13    1    3    3    0    0  0.41544790151E+02  0.70960029211E+02  0.97308581437E+02  0.12739801943E+03  0.00000000000E+00 0.  1.
         22    1    1    2    0    0 -0.19557873033E+03 -0.35186980115E+03  0.30465132789E+03  0.50485228365E+03  0.00000000000E+00 0.  1.
<mgrwt>
<rscale>  0 0.81698580E+03</rscale>
<asrwt>0</asrwt>
<pdfrwt beam="1">  1        1 0.11833086E+00 0.81698580E+03</pdfrwt>
<pdfrwt beam="2">  1       -1 0.33376768E-01 0.81698580E+03</pdfrwt>
<totfact> 0.20074503E+02</totfact>
</mgrwt>
</event>
<event>
 6    1  0.1585031E-006  0.4424733E+04  0.7818608E-02  0.7923948E-01
          1   -1    0    0  501    0  0.00000000000E+00  0.00000000000E+00  0.17324489912E+04  0.17324489912E+04  0.00000000000E+00 0. -1.
         -1   -1    0    0    0  501 -0.00000000000E+00 -0.00000000000E+00 -0.28252293803E+04  0.28252293803E+04  0.00000000000E+00 0.  1.
         23    2    1    2    0    0 -0.24893438482E+03 -0.21901913564E+04 -0.72969825130E+03  0.23236830393E+04  0.90204344082E+02 0.  0.
         11    1    3    3    0    0 -0.12296491374E+03 -0.10163868765E+04 -0.38568811468E+03  0.10940374649E+04  0.00000000000E+00 0. -1.
        -11    1    3    3    0    0 -0.12596947107E+03 -0.11738044799E+04 -0.34401013662E+03  0.12296455744E+04  0.00000000000E+00 0.  1.
         22    1    1    2    0    0  0.24893438482E+03  0.21901913564E+04 -0.36308213779E+03  0.22339953322E+04  0.00000000000E+00 0.  1.
<mgrwt>
<rscale>  0 0.44247331E+04</rscale>
<asrwt>0</asrwt>
<pdfrwt beam="1">  1        1 0.26653062E+00 0.44247331E+04</pdfrwt>
<pdfrwt beam="2">  1       -1 0.43465067E+00 0.44247331E+04</pdfrwt>
<totfact> 0.14147467E-02</totfact>
</mgrwt>
</event>
<event>
 6    1  0.1585031E-006  0.1791610E+04  0.7818608E-02  0.8710774E-01
         -2   -1    0    0    0  501 -0.00000000000E+00  0.00000000000E+00  0.15439461719E+04  0.15439461719E+04  0.00000000000E+00 0.  1.
          2   -1    0    0  501    0  0.00000000000E+00 -0.00000000000E+00 -0.51975019353E+03  0.51975019353E+03  0.00000000000E+00 0. -1.
         23    2    1    2    0    0  0.38219129309E+03  0.80700914339E+03  0.47494542294E+03  0.10153595328E+04  0.89709999768E+02 0.  0.
         13    1    3    3    0    0  0.31915123170E+03  0.61497143752E+03  0.33554696618E+03  0.76983059447E+03  0.00000000000E+00 0. -1.
        -13    1    3    3    0    0  0.63040061387E+02  0.19203770587E+03  0.13939845675E+03  0.24552893834E+03  0.00000000000E+00 0.  1.
         22    1    1    2    0    0 -0.38219129309E+03 -0.80700914339E+03  0.54925055544E+03  0.10483368326E+04  0.00000000000E+00 0.  1.
<mgrwt>
<rscale>  0 0.17916097E+04</rscale>
<asrwt>0</asrwt>
<pdfrwt beam="1">  1        2 0.79961569E-01 0.17916097E+04</pdfrwt>
<pdfrwt beam="2">  1       -2 0.23753018E+00 0.17916097E+04</pdfrwt>
<totfact> 0.42647544E+00</totfact>
</mgrwt>
</event>
<event>
 6    1  0.1585031E-006  0.2699649E+04  0.7818608E-02  0.8335119E-01
         -2   -1    0    0    0  501 -0.00000000000E+00  0.00000000000E+00  0.19115387553E+04  0.19115387553E+04  0.00000000000E+00 0.  1.
          2   -1    0    0  501    0  0.00000000000E+00 -0.00000000000E+00 -0.95317253172E+03  0.95317253172E+03  0.00000000000E+00 0. -1.
         23    2    1    2    0    0 -0.78154041954E+03  0.85182512437E+03  0.12160635048E+04  0.16803045331E+04  0.90561617286E+02 0.  0.
         11    1    3    3    0    0 -0.43339936481E+03  0.40727926601E+03  0.60845791193E+03  0.85084219485E+03  0.00000000000E+00 0.  1.
        -11    1    3    3    0    0 -0.34814105473E+03  0.44454585836E+03  0.60760559286E+03  0.82946233830E+03  0.00000000000E+00 0. -1.
         22    1    1    2    0    0  0.78154041954E+03 -0.85182512437E+03 -0.25769728120E+03  0.11844067539E+04  0.00000000000E+00 0.  1.
<mgrwt>
<rscale>  0 0.26996490E+04</rscale>
<asrwt>0</asrwt>
<pdfrwt beam="1">  1        2 0.14664193E+00 0.26996490E+04</pdfrwt>
<pdfrwt beam="2">  1       -2 0.29408289E+00 0.26996490E+04</pdfrwt>
<totfact> 0.81893177E-01</totfact>
</mgrwt>
</event>
<event>
 6    1  0.1585031E-006  0.5601127E+04  0.7818608E-02  0.7741925E-01
         -2   -1    0    0    0  501 -0.00000000000E+00  0.00000000000E+00  0.24641841844E+04  0.24641841844E+04  0.00000000000E+00 0.  1.
          2   -1    0    0  501    0  0.00000000000E+00 -0.00000000000E+00 -0.31828610390E+04  0.31828610390E+04  0.00000000000E+00 0. -1.
         23    2    1    2    0    0 -0.30495218464E+02  0.55227568810E+03 -0.31265638742E+04  0.31764464513E+04  0.92043489393E+02 0.  0.
         11    1    3    3    0    0 -0.40571078519E+02  0.97919129536E+02 -0.63033294778E+03  0.63918212850E+03  0.00000000000E+00 0. -1.
        -11    1    3    3    0    0  0.10075860055E+02  0.45435655857E+03 -0.24962309265E+04  0.25372643228E+04  0.00000000000E+00 0.  1.
         22    1    1    2    0    0  0.30495218464E+02 -0.55227568810E+03  0.24078870196E+04  0.24705987722E+04  0.00000000000E+00 0.  1.
<mgrwt>
<rscale>  0 0.56011270E+04</rscale>
<asrwt>0</asrwt>
<pdfrwt beam="1">  1        2 0.48967093E+00 0.56011270E+04</pdfrwt>
<pdfrwt beam="2">  1       -2 0.37910526E+00 0.56011270E+04</pdfrwt>
<totfact> 0.93689738E-03</totfact>
</mgrwt>
</event>
<event>
 6    1  0.1585031E-006  0.2238803E+04  0.7818608E-02  0.8502449E-01
         -1   -1    0    0    0  501 -0.00000000000E+00  0.00000000000E+00  0.57177297573E+03  0.57177297573E+03  0.00000000000E+00 0.  1.
          1   -1    0    0  501    0  0.00000000000E+00 -0.00000000000E+00 -0.21915328987E+04  0.21915328987E+04  0.00000000000E+00 0. -1.
         23    2    1    2    0    0 -0.50914909334E+03  0.96518791726E+03 -0.51083182104E+03  0.12074967441E+04  0.79238391251E+02 0.  0.
         13    1    3    3    0    0 -0.18005172627E+03  0.36248534650E+03 -0.23057313289E+03  0.46580921006E+03  0.00000000000E+00 0. -1.
        -13    1    3    3    0    0 -0.32909736707E+03  0.60270257076E+03 -0.28025868815E+03  0.74168753400E+03  0.00000000000E+00 0.  1.
         22    1    1    2    0    0  0.50914909334E+03 -0.96518791726E+03 -0.11089281019E+04  0.15558091304E+04  0.00000000000E+00 0. -1.
<mgrwt>
<rscale>  0 0.22388026E+04</rscale>
<asrwt>0</asrwt>
<pdfrwt beam="1">  1        1 0.33715891E+00 0.22388026E+04</pdfrwt>
<pdfrwt beam="2">  1       -1 0.87965073E-01 0.22388026E+04</pdfrwt>
<totfact> 0.25479170E+00</totfact>
</mgrwt>
</event>
<event>
 6    1  0.1927523E-006  0.2473984E+04  0.7818608E-02  0.8412313E-01
          2   -1    0    0  501    0  0.00000000000E+00  0.00000000000E+00  0.20354409439E+04  0.20354409439E+04  0.00000000000E+00 0.  1.
         -2   -1    0    0    0  501 -0.00000000000E+00 -0.00000000000E+00 -0.75175330693E+03  0.75175330693E+03  0.00000000000E+00 0. -1.
         23    2    1    2    0    0 -0.27152362237E+03 -0.53883958842E+03  0.18571152656E+04  0.19547926502E+04  0.90906633217E+02 0.  0.
         13    1    3    3    0    0 -0.95778958007E+02 -0.22701307320E+03  0.62756067984E+03  0.67419652260E+03  0.00000000000E+00 0.  1.
        -13    1    3    3    0    0 -0.17574466437E+03 -0.31182651522E+03  0.12295545858E+04  0.12805961276E+04  0.00000000000E+00 0. -1.
         22    1    1    2    0    0  0.27152362237E+03  0.53883958842E+03 -0.57342762860E+03  0.83240160067E+03  0.00000000000E+00 0. -1.
<mgrwt>
<rscale>  0 0.24739842E+04</rscale>
<asrwt>0</asrwt>
<pdfrwt beam="1">  1        2 0.31314476E+00 0.24739842E+04</pdfrwt>
<pdfrwt beam="2">  1       -2 0.11565436E+00 0.24739842E+04</pdfrwt>
<totfact> 0.33182214E+00</totfact>
</mgrwt>
</event>
<event>
 6    1  0.1585031E-006  0.1158565E+04  0.7818608E-02  0.9149918E-01
         -2   -1    0    0    0  501 -0.00000000000E+00  0.00000000000E+00  0.18951011031E+03  0.18951011031E+03  0.00000000000E+00 0.  1.
          2   -1    0    0  501    0  0.00000000000E+00 -0.00000000000E+00 -0.17707138482E+04  0.17707138482E+04  0.00000000000E+00 0. -1.
         23    2    1    2    0    0 -0.57479523001E+03  0.10742036123E+01 -0.74679763565E+03  0.94699927770E+03  0.93328521868E+02 0.  0.
         11    1    3    3    0    0 -0.34394597588E+03  0.47180399640E+00 -0.51942308889E+03  0.62297624529E+03  0.00000000000E+00 0. -1.
        -11    1    3    3    0    0 -0.23084925413E+03  0.60239961593E+00 -0.22737454676E+03  0.32402303241E+03  0.00000000000E+00 0.  1.
         22    1    1    2    0    0  0.57479523001E+03 -0.10742036123E+01 -0.83440610225E+03  0.10132246808E+04  0.00000000000E+00 0. -1.
<mgrwt>
<rscale>  0 0.11585649E+04</rscale>
<asrwt>0</asrwt>
<pdfrwt beam="1">  1        2 0.27241751E+00 0.11585649E+04</pdfrwt>
<pdfrwt beam="2">  1       -2 0.29155402E-01 0.11585649E+04</pdfrwt>
<totfact> 0.95868151E+01</totfact>
</mgrwt>
</event>
<event>
 6    1  0.1585031E-006  0.1535529E+04  0.7818608E-02  0.8861164E-01
         -2   -1    0    0    0  501 -0.00000000000E+00  0.00000000000E+00  0.28171580049E+03  0.28171580049E+03  0.00000000000E+00 0.  1.
          2   -1    0    0  501    0  0.00000000000E+00 -0.00000000000E+00 -0.20924003908E+04  0.20924003908E+04  0.00000000000E+00 0. -1.
         23    2    1    2    0    0 -0.64642032418E+02 -0.28427037614E+03 -0.20021606669E+04  0.20253306884E+04  0.91262381104E+02 0.  0.
         13    1    3    3    0    0 -0.19939295410E+02 -0.10612620917E+03 -0.10561227372E+04  0.10616287410E+04  0.00000000000E+00 0. -1.
        -13    1    3    3    0    0 -0.44702737008E+02 -0.17814416696E+03 -0.94603792974E+03  0.96370194740E+03  0.00000000000E+00 0.  1.
         22    1    1    2    0    0  0.64642032418E+02  0.28427037614E+03  0.19147607660E+03  0.34878550287E+03  0.00000000000E+00 0.  1.
<mgrwt>
<rscale>  0 0.15355289E+04</rscale>
<asrwt>0</asrwt>
<pdfrwt beam="1">  1        2 0.32190774E+00 0.15355289E+04</pdfrwt>
<pdfrwt beam="2">  1       -2 0.43340894E-01 0.15355289E+04</pdfrwt>
<totfact> 0.28878812E+01</totfact>
</mgrwt>
</event>
<event>
 6    1  0.1585031E-006  0.1051791E+04  0.7818608E-02  0.9253497E-01
          1   -1    0    0  501    0  0.00000000000E+00  0.00000000000E+00  0.88438623410E+03  0.88438623410E+03  0.00000000000E+00 0. -1.
         -1   -1    0    0    0  501 -0.00000000000E+00 -0.00000000000E+00 -0.31272085185E+03  0.31272085185E+03  0.00000000000E+00 0.  1.
         23    2    1    2    0    0  0.51474030625E+03 -0.69479540704E+02  0.23161795558E+03  0.57628727164E+03  0.93140499534E+02 0.  0.
         11    1    3    3    0    0  0.19167922849E+03 -0.65345046157E+02  0.64484963906E+02  0.21253049725E+03  0.00000000000E+00 0. -1.
        -11    1    3    3    0    0  0.32306107776E+03 -0.41344945473E+01  0.16713299168E+03  0.36375677439E+03  0.00000000000E+00 0.  1.
         22    1    1    2    0    0 -0.51474030625E+03  0.69479540704E+02  0.34004742667E+03  0.62081981431E+03  0.00000000000E+00 0.  1.
<mgrwt>
<rscale>  0 0.10517909E+04</rscale>
<asrwt>0</asrwt>
<pdfrwt beam="1">  1        1 0.13605942E+00 0.10517909E+04</pdfrwt>
<pdfrwt beam="2">  1       -1 0.48110901E-01 0.10517909E+04</pdfrwt>
<totfact> 0.80874210E+01</totfact>
</mgrwt>
</event>
<event>
 6    1  0.1585031E-006  0.2893909E+04  0.7818608E-02  0.8274692E-01
         -2   -1    0    0    0  501 -0.00000000000E+00  0.00000000000E+00  0.16147408999E+04  0.16147408999E+04  0.00000000000E+00 0.  1.
          2   -1    0    0  501    0  0.00000000000E+00 -0.00000000000E+00 -0.12966029711E+04  0.12966029711E+04  0.00000000000E+00 0. -1.
         23    2    1    2    0    0 -0.31646650735E+03  0.91632066902E+03 -0.91949060663E+03  0.13392373192E+04  0.91098862040E+02 0.  0.
         11    1    3    3    0    0 -0.13866936014E+03  0.53945840150E+03 -0.52343072281E+03  0.76434565477E+03  0.00000000000E+00 0. -1.
        -11    1    3    3    0    0 -0.17779714721E+03  0.37686226752E+03 -0.39605988382E+03  0.57489166441E+03  0.00000000000E+00 0.  1.
         22    1    1    2    0    0  0.31646650735E+03 -0.91632066902E+03  0.12376285354E+04  0.15721065519E+04  0.00000000000E+00 0.  1.
<mgrwt>
<rscale>  0 0.28939094E+04</rscale>
<asrwt>0</asrwt>
<pdfrwt beam="1">  1        2 0.19947738E+00 0.28939094E+04</pdfrwt>
<pdfrwt beam="2">  1       -2 0.24842168E+00 0.28939094E+04</pdfrwt>
<totfact> 0.94238512E-01</totfact>
</mgrwt>
</event>
<event>
 6    1  0.1585031E-006  0.2027250E+04  0.7818608E-02  0.8593986E-01
         -1   -1    0    0    0  501 -0.00000000000E+00  0.00000000000E+00  0.17034687968E+04  0.17034687968E+04  0.00000000000E+00 0.  1.
          1   -1    0    0  501    0  0.00000000000E+00 -0.00000000000E+00 -0.60314291732E+03  0.60314291732E+03  0.00000000000E+00 0. -1.
         23    2    1    2    0    0  0.16049783111E+03  0.60142649251E+03 -0.35578540148E+03  0.72302924321E+03  0.93352316202E+02 0.  0.
         13    1    3    3    0    0  0.60305526551E+02  0.91270371274E+02 -0.67659558876E+02  0.12862679780E+03  0.00000000000E+00 0.  1.
        -13    1    3    3    0    0  0.10019230456E+03  0.51015612124E+03 -0.28812584260E+03  0.59440244541E+03  0.00000000000E+00 0. -1.
         22    1    1    2    0    0 -0.16049783111E+03 -0.60142649251E+03  0.14561112810E+04  0.15835824710E+04  0.00000000000E+00 0.  1.
<mgrwt>
<rscale>  0 0.20272495E+04</rscale>
<asrwt>0</asrwt>
<pdfrwt beam="1">  1        1 0.92791219E-01 0.20272495E+04</pdfrwt>
<pdfrwt beam="2">  1       -1 0.26207212E+00 0.20272495E+04</pdfrwt>
<totfact> 0.18300203E+00</totfact>
</mgrwt>
</event>
<event>
 6    1  0.1585031E-006  0.6367952E+04  0.7818608E-02  0.7646382E-01
         -1   -1    0    0    0  501 -0.00000000000E+00  0.00000000000E+00  0.38929730878E+04  0.38929730878E+04  0.00000000000E+00 0.  1.
          1   -1    0    0  501    0  0.00000000000E+00 -0.00000000000E+00 -0.26041027185E+04  0.26041027185E+04  0.00000000000E+00 0. -1.
         23    2    1    2    0    0 -0.20363067585E+04  0.82626300496E+03 -0.17052401548E+04  0.27830545895E+04  0.91066427739E+02 0.  0.
         11    1    3    3    0    0 -0.11083671877E+04  0.40768898076E+03 -0.94529687259E+03  0.15127043019E+04  0.00000000000E+00 0. -1.
        -11    1    3    3    0    0 -0.92793957086E+03  0.41857402419E+03 -0.75994328219E+03  0.12703502875E+04  0.00000000000E+00 0.  1.
         22    1    1    2    0    0  0.20363067585E+04 -0.82626300496E+03  0.29941105241E+04  0.37140212168E+04  0.00000000000E+00 0.  1.
<mgrwt>
<rscale>  0 0.63679516E+04</rscale>
<asrwt>0</asrwt>
<pdfrwt beam="1">  1        1 0.40063119E+00 0.63679516E+04</pdfrwt>
<pdfrwt beam="2">  1       -1 0.59891894E+00 0.63679516E+04</pdfrwt>
<totfact> 0.33972084E-04</totfact>
</mgrwt>
</event>
<event>
 6    1  0.1585031E-006  0.5016270E+04  0.7818608E-02  0.7826002E-01
         -1   -1    0    0    0  501 -0.00000000000E+00  0.00000000000E+00  0.18927092791E+04  0.18927092791E+04  0.00000000000E+00 0.  1.
          1   -1    0    0  501    0  0.00000000000E+00 -0.00000000000E+00 -0.33236704089E+04  0.33236704089E+04  0.00000000000E+00 0. -1.
         23    2    1    2    0    0  0.15872537556E+02 -0.12686008401E+04 -0.29646162632E+04  0.32259781965E+04  0.91573507862E+02 0.  0.
         13    1    3    3    0    0  0.35150158750E+02 -0.52894254187E+03 -0.13269780311E+04  0.14289459197E+04  0.00000000000E+00 0.  1.
        -13    1    3    3    0    0 -0.19277621194E+02 -0.73965829827E+03 -0.16376382320E+04  0.17970322768E+04  0.00000000000E+00 0. -1.
         22    1    1    2    0    0 -0.15872537556E+02  0.12686008401E+04  0.15336551334E+04  0.19904014914E+04  0.00000000000E+00 0.  1.
<mgrwt>
<rscale>  0 0.50162703E+04</rscale>
<asrwt>0</asrwt>
<pdfrwt beam="1">  1        1 0.51133390E+00 0.50162703E+04</pdfrwt>
<pdfrwt beam="2">  1       -1 0.29118605E+00 0.50162703E+04</pdfrwt>
<totfact> 0.92978919E-03</totfact>
</mgrwt>
</event>
<event>
 6    1  0.1585031E-006  0.1009041E+04  0.7818608E-02  0.9298684E-01
         -2   -1    0    0    0  501 -0.00000000000E+00  0.00000000000E+00  0.37806701220E+03  0.37806701220E+03  0.00000000000E+00 0.  1.
          2   -1    0    0  501    0  0.00000000000E+00 -0.00000000000E+00 -0.67326899473E+03  0.67326899473E+03  0.00000000000E+00 0. -1.
         23    2    1    2    0    0  0.32840922116E+03  0.20067529442E+03  0.18421634436E+03  0.43654732576E+03  0.92275217504E+02 0.  0.
         13    1    3    3    0    0  0.10956381846E+03  0.84385409878E+02  0.11329247636E+03  0.17877447501E+03  0.00000000000E+00 0.  1.
        -13    1    3    3    0    0  0.21884540270E+03  0.11628988454E+03  0.70923867997E+02  0.25777285075E+03  0.00000000000E+00 0. -1.
         22    1    1    2    0    0 -0.32840922116E+03 -0.20067529442E+03 -0.47941832689E+03  0.61478868117E+03  0.00000000000E+00 0. -1.
<mgrwt>
<rscale>  0 0.10090407E+04</rscale>
<asrwt>0</asrwt>
<pdfrwt beam="1">  1        2 0.10357984E+00 0.10090407E+04</pdfrwt>
<pdfrwt beam="2">  1       -2 0.58164157E-01 0.10090407E+04</pdfrwt>
<totfact> 0.11882138E+02</totfact>
</mgrwt>
</event>
<event>
 6    1  0.1585031E-006  0.1475036E+04  0.7818608E-02  0.8901226E-01
         -1   -1    0    0    0  501 -0.00000000000E+00  0.00000000000E+00  0.13206825721E+04  0.13206825721E+04  0.00000000000E+00 0.  1.
          1   -1    0    0  501    0  0.00000000000E+00 -0.00000000000E+00 -0.41185731284E+03  0.41185731284E+03  0.00000000000E+00 0. -1.
         23    2    1    2    0    0  0.89500710385E+02 -0.20745744421E+03  0.12770536730E+04  0.13005200555E+04  0.97146088829E+02 0.  0.
         13    1    3    3    0    0  0.16227606246E+02 -0.14282436659E+03  0.63436062245E+03  0.65044256796E+03  0.00000000000E+00 0.  1.
        -13    1    3    3    0    0  0.73273104139E+02 -0.64633077621E+02  0.64269305058E+03  0.65007748752E+03  0.00000000000E+00 0. -1.
         22    1    1    2    0    0 -0.89500710385E+02  0.20745744421E+03 -0.36822841379E+03  0.43201982945E+03  0.00000000000E+00 0. -1.
<mgrwt>
<rscale>  0 0.14750360E+04</rscale>
<asrwt>0</asrwt>
<pdfrwt beam="1">  1        1 0.63362664E-01 0.14750360E+04</pdfrwt>
<pdfrwt beam="2">  1       -1 0.20318193E+00 0.14750360E+04</pdfrwt>
<totfact> 0.80021115E+00</totfact>
</mgrwt>
</event>
<event>
 6    1  0.1585031E-006  0.1790105E+04  0.7818608E-02  0.8711579E-01
         -1   -1    0    0    0  501 -0.00000000000E+00  0.00000000000E+00  0.43007052093E+03  0.43007052093E+03  0.00000000000E+00 0.  1.
          1   -1    0    0  501    0  0.00000000000E+00 -0.00000000000E+00 -0.18627627894E+04  0.18627627894E+04  0.00000000000E+00 0. -1.
         23    2    1    2    0    0 -0.46362917902E+03 -0.59142048726E+03 -0.13355611111E+04  0.15350967663E+04  0.89824228939E+02 0.  0.
         11    1    3    3    0    0 -0.14671563944E+03 -0.21258822335E+03 -0.54166040622E+03  0.60009601500E+03  0.00000000000E+00 0. -1.
        -11    1    3    3    0    0 -0.31691353959E+03 -0.37883226391E+03 -0.79390070487E+03  0.93500075131E+03  0.00000000000E+00 0.  1.
         22    1    1    2    0    0  0.46362917902E+03  0.59142048726E+03 -0.97131157384E+02  0.75773654401E+03  0.00000000000E+00 0.  1.
<mgrwt>
<rscale>  0 0.17901054E+04</rscale>
<asrwt>0</asrwt>
<pdfrwt beam="1">  1        1 0.28657889E+00 0.17901054E+04</pdfrwt>
<pdfrwt beam="2">  1       -1 0.66164695E-01 0.17901054E+04</pdfrwt>
<totfact> 0.80737293E+00</totfact>
</mgrwt>
</event>
<event>
 6    1  0.1585031E-006  0.3743947E+04  0.7818608E-02  0.8058292E-01
         -1   -1    0    0    0  501 -0.00000000000E+00  0.00000000000E+00  0.23456426986E+04  0.23456426986E+04  0.00000000000E+00 0.  1.
          1   -1    0    0  501    0  0.00000000000E+00 -0.00000000000E+00 -0.14939550077E+04  0.14939550077E+04  0.00000000000E+00 0. -1.
         23    2    1    2    0    0  0.37679220008E+03 -0.11655814177E+04 -0.10240879488E+04  0.15992658885E+04  0.91339213660E+02 0.  0.
         13    1    3    3    0    0  0.19661173284E+03 -0.73803560131E+03 -0.66186730912E+03  0.10106537771E+04  0.00000000000E+00 0.  1.
        -13    1    3    3    0    0  0.18018046724E+03 -0.42754581640E+03 -0.36222063971E+03  0.58861211144E+03  0.00000000000E+00 0. -1.
         22    1    1    2    0    0 -0.37679220008E+03  0.11655814177E+04  0.18757756397E+04  0.22403318178E+04  0.00000000000E+00 0.  1.
<mgrwt>
<rscale>  0 0.37439469E+04</rscale>
<asrwt>0</asrwt>
<pdfrwt beam="1">  1        1 0.22983923E+00 0.37439469E+04</pdfrwt>
<pdfrwt beam="2">  1       -1 0.36086811E+00 0.37439469E+04</pdfrwt>
<totfact> 0.69418889E-02</totfact>
</mgrwt>
</event>
<event>
 6    1  0.1585031E-006  0.1100271E+04  0.7818608E-02  0.9204928E-01
         -2   -1    0    0    0  501 -0.00000000000E+00  0.00000000000E+00  0.29401369617E+03  0.29401369617E+03  0.00000000000E+00 0.  1.
          2   -1    0    0  501    0  0.00000000000E+00 -0.00000000000E+00 -0.10293703573E+04  0.10293703573E+04  0.00000000000E+00 0. -1.
         23    2    1    2    0    0  0.30511515004E+03  0.24377822518E+03 -0.82981575686E+03  0.92158111836E+03  0.90523419781E+02 0.  0.
         11    1    3    3    0    0  0.14703791641E+03  0.16170562903E+03 -0.38997156922E+03  0.44704215027E+03  0.00000000000E+00 0. -1.
        -11    1    3    3    0    0  0.15807723364E+03  0.82072596152E+02 -0.43984418764E+03  0.47453896809E+03  0.00000000000E+00 0.  1.
         22    1    1    2    0    0 -0.30511515004E+03 -0.24377822518E+03  0.94459095758E+02  0.40180293507E+03  0.00000000000E+00 0.  1.
<mgrwt>
<rscale>  0 0.11002708E+04</rscale>
<asrwt>0</asrwt>
<pdfrwt beam="1">  1        2 0.15836467E+00 0.11002708E+04</pdfrwt>
<pdfrwt beam="2">  1       -2 0.45232876E-01 0.11002708E+04</pdfrwt>
<totfact> 0.11095660E+02</totfact>
</mgrwt>
</event>
<event>
 6    1  0.1585031E-006  0.1246836E+04  0.7818608E-02  0.9072821E-01
          2   -1    0    0  501    0  0.00000000000E+00  0.00000000000E+00  0.89410257541E+03  0.89410257541E+03  0.00000000000E+00 0. -1.
         -2   -1    0    0    0  501 -0.00000000000E+00 -0.00000000000E+00 -0.43468144902E+03  0.43468144902E+03  0.00000000000E+00 0.  1.
         23    2    1    2    0    0 -0.31142443903E+03 -0.32331818971E+03  0.68684899717E+03  0.82555120612E+03  0.90848313111E+02 0.  0.
         11    1    3    3    0    0 -0.24219550011E+02 -0.71455289574E+02  0.12908077457E+03  0.14951351569E+03  0.00000000000E+00 0. -1.
        -11    1    3    3    0    0 -0.28720488902E+03 -0.25186290013E+03  0.55776822260E+03  0.67603769043E+03  0.00000000000E+00 0.  1.
         22    1    1    2    0    0  0.31142443903E+03  0.32331818971E+03 -0.22742787078E+03  0.50323281831E+03  0.00000000000E+00 0.  1.
<mgrwt>
<rscale>  0 0.12468357E+04</rscale>
<asrwt>0</asrwt>
<pdfrwt beam="1">  1        2 0.13755424E+00 0.12468357E+04</pdfrwt>
<pdfrwt beam="2">  1       -2 0.66874069E-01 0.12468357E+04</pdfrwt>
<totfact> 0.59790036E+01</totfact>
</mgrwt>
</event>
<event>
 6    1  0.1585031E-006  0.2569010E+04  0.7818608E-02  0.8378805E-01
         -2   -1    0    0    0  501 -0.00000000000E+00  0.00000000000E+00  0.72483656831E+03  0.72483656831E+03  0.00000000000E+00 0. -1.
          2   -1    0    0  501    0  0.00000000000E+00 -0.00000000000E+00 -0.22763109013E+04  0.22763109013E+04  0.00000000000E+00 0.  1.
         23    2    1    2    0    0  0.31787166519E+03  0.11472579049E+04 -0.13347377942E+04  0.17910987834E+04  0.96264098634E+02 0.  0.
         13    1    3    3    0    0  0.24016676648E+03  0.85372197805E+03 -0.92942409317E+03  0.12846596578E+04  0.00000000000E+00 0. -1.
        -13    1    3    3    0    0  0.77704898706E+02  0.29353592684E+03 -0.40531370100E+03  0.50643912551E+03  0.00000000000E+00 0.  1.
         22    1    1    2    0    0 -0.31787166519E+03 -0.11472579049E+04 -0.21673653880E+03  0.12100486863E+04  0.00000000000E+00 0. -1.
<mgrwt>
<rscale>  0 0.25690102E+04</rscale>
<asrwt>0</asrwt>
<pdfrwt beam="1">  1        2 0.35020167E+00 0.25690102E+04</pdfrwt>
<pdfrwt beam="2">  1       -2 0.11151332E+00 0.25690102E+04</pdfrwt>
<totfact> 0.26352981E+00</totfact>
</mgrwt>
</event>
<event>
 6    1  0.1585031E-006  0.1768247E+04  0.7818608E-02  0.8723370E-01
         -2   -1    0    0    0  501 -0.00000000000E+00  0.00000000000E+00  0.24994841658E+03  0.24994841658E+03  0.00000000000E+00 0.  1.
          2   -1    0    0  501    0  0.00000000000E+00 -0.00000000000E+00 -0.31273432421E+04  0.31273432421E+04  0.00000000000E+00 0. -1.
         23    2    1    2    0    0 -0.87009061906E+03  0.92663471687E+02 -0.16434670665E+04  0.18646046723E+04  0.10061004333E+03 0.  0.
         13    1    3    3    0    0 -0.14756497763E+03  0.53745229180E+02 -0.30668820647E+03  0.34456005031E+03  0.00000000000E+00 0. -1.
        -13    1    3    3    0    0 -0.72252564143E+03  0.38918242507E+02 -0.13367788601E+04  0.15200446220E+04  0.00000000000E+00 0.  1.
         22    1    1    2    0    0  0.87009061906E+03 -0.92663471687E+02 -0.12339277589E+04  0.15126869863E+04  0.00000000000E+00 0. -1.
<mgrwt>
<rscale>  0 0.17682471E+04</rscale>
<asrwt>0</asrwt>
<pdfrwt beam="1">  1        2 0.48112974E+00 0.17682471E+04</pdfrwt>
<pdfrwt beam="2">  1       -2 0.38453602E-01 0.17682471E+04</pdfrwt>
<totfact> 0.87830510E+00</totfact>
</mgrwt>
</event>
<event>
 6    1  0.1585031E-006  0.1332521E+04  0.7818608E-02  0.9004166E-01
         -2   -1    0    0    0  501 -0.00000000000E+00  0.00000000000E+00  0.17275898446E+03  0.17275898446E+03  0.00000000000E+00 0.  1.
          2   -1    0    0  501    0  0.00000000000E+00 -0.00000000000E+00 -0.25694920558E+04  0.25694920558E+04  0.00000000000E+00 0. -1.
         23    2    1    2    0    0 -0.17500204181E+03  0.82285306308E+02 -0.25093583993E+04  0.25184630809E+04  0.91543034296E+02 0.  0.
         11    1    3    3    0    0 -0.94446802345E+02  0.49773949497E+02 -0.18936276525E+04  0.18966347383E+04  0.00000000000E+00 0.  1.
        -11    1    3    3    0    0 -0.80555239460E+02  0.32511356811E+02 -0.61573074686E+03  0.62182834252E+03  0.00000000000E+00 0. -1.
         22    1    1    2    0    0  0.17500204181E+03 -0.82285306308E+02  0.11262532798E+03  0.22378795940E+03  0.00000000000E+00 0.  1.
<mgrwt>
<rscale>  0 0.13325207E+04</rscale>
<asrwt>0</asrwt>
<pdfrwt beam="1">  1        2 0.39530644E+00 0.13325207E+04</pdfrwt>
<pdfrwt beam="2">  1       -2 0.26578307E-01 0.13325207E+04</pdfrwt>
<totfact> 0.39994913E+01</totfact>
</mgrwt>
</event>
<event>
 6    1  0.1585031E-006  0.2740288E+04  0.7818608E-02  0.8322050E-01
         -1   -1    0    0    0  501 -0.00000000000E+00  0.00000000000E+00  0.86290511217E+03  0.86290511217E+03  0.00000000000E+00 0.  1.
          1   -1    0    0  501    0  0.00000000000E+00 -0.00000000000E+00 -0.21755513495E+04  0.21755513495E+04  0.00000000000E+00 0. -1.
         23    2    1    2    0    0 -0.11317785509E+04  0.76828014767E+03 -0.60901376611E+03  0.15001860927E+04  0.92105764057E+02 0.  0.
         11    1    3    3    0    0 -0.16192937372E+03  0.14983984956E+03 -0.90259135845E+02  0.23836907138E+03  0.00000000000E+00 0. -1.
        -11    1    3    3    0    0 -0.96984917717E+03  0.61844029811E+03 -0.51875463026E+03  0.12618170213E+04  0.00000000000E+00 0.  1.
         22    1    1    2    0    0  0.11317785509E+04 -0.76828014767E+03 -0.70363247122E+03  0.15382703690E+04  0.00000000000E+00 0. -1.
<mgrwt>
<rscale>  0 0.27402879E+04</rscale>
<asrwt>0</asrwt>
<pdfrwt beam="1">  1        1 0.33470021E+00 0.27402879E+04</pdfrwt>
<pdfrwt beam="2">  1       -1 0.13275463E+00 0.27402879E+04</pdfrwt>
<totfact> 0.94696870E-01</totfact>
</mgrwt>
</event>
<event>
 6    1  0.1585031E-006  0.4697901E+04  0.7818608E-02  0.7876878E-01
          1   -1    0    0  501    0  0.00000000000E+00  0.00000000000E+00  0.44118281417E+04  0.44118281417E+04  0.00000000000E+00 0. -1.
         -1   -1    0    0    0  501 -0.00000000000E+00 -0.00000000000E+00 -0.12506306053E+04  0.12506306053E+04  0.00000000000E+00 0.  1.
         23    2    1    2    0    0  0.73166935170E+03  0.19718358619E+04  0.32273315360E+03  0.21297039072E+04  0.89472552147E+02 0.  0.
         13    1    3    3    0    0  0.40944514826E+03  0.10275869827E+04  0.20614481396E+03  0.11252004358E+04  0.00000000000E+00 0.  1.
        -13    1    3    3    0    0  0.32222420344E+03  0.94424887919E+03  0.11658833964E+03  0.10045034714E+04  0.00000000000E+00 0. -1.
         22    1    1    2    0    0 -0.73166935170E+03 -0.19718358619E+04  0.28384643828E+04  0.35327548399E+04  0.00000000000E+00 0. -1.
<mgrwt>
<rscale>  0 0.46979005E+04</rscale>
<asrwt>0</asrwt>
<pdfrwt beam="1">  1        1 0.67874278E+00 0.46979005E+04</pdfrwt>
<pdfrwt beam="2">  1       -1 0.19240471E+00 0.46979005E+04</pdfrwt>
<totfact> 0.49397583E-03</totfact>
</mgrwt>
</event>
<event>
 6    1  0.1585031E-006  0.2182576E+04  0.7818608E-02  0.8525716E-01
         -1   -1    0    0    0  501 -0.00000000000E+00  0.00000000000E+00  0.12517093087E+04  0.12517093087E+04  0.00000000000E+00 0.  1.
          1   -1    0    0  501    0  0.00000000000E+00 -0.00000000000E+00 -0.95142617379E+03  0.95142617379E+03  0.00000000000E+00 0. -1.
         23    2    1    2    0    0  0.18565512777E+03  0.82543938821E+03  0.84321004406E+03  0.11978556017E+04  0.89648503220E+02 0.  0.
         11    1    3    3    0    0  0.11234422546E+03  0.57076513817E+03  0.63206291364E+03  0.85900965929E+03  0.00000000000E+00 0.  1.
        -11    1    3    3    0    0  0.73310902312E+02  0.25467425004E+03  0.21114713042E+03  0.33884594245E+03  0.00000000000E+00 0. -1.
         22    1    1    2    0    0 -0.18565512777E+03 -0.82543938821E+03 -0.54292690911E+03  0.10052798808E+04  0.00000000000E+00 0.  1.
<mgrwt>
<rscale>  0 0.21825755E+04</rscale>
<asrwt>0</asrwt>
<pdfrwt beam="1">  1        1 0.14637326E+00 0.21825755E+04</pdfrwt>
<pdfrwt beam="2">  1       -1 0.19257066E+00 0.21825755E+04</pdfrwt>
<totfact> 0.25587264E+00</totfact>
</mgrwt>
</event>
<event>
 6    1  0.1585031E-006  0.1362587E+04  0.7818608E-02  0.8981354E-01
          2   -1    0    0  501    0  0.00000000000E+00  0.00000000000E+00  0.15950020080E+04  0.15950020080E+04  0.00000000000E+00 0. -1.
         -2   -1    0    0    0  501 -0.00000000000E+00 -0.00000000000E+00 -0.29100961734E+03  0.29100961734E+03  0.00000000000E+00 0.  1.
         23    2    1    2    0    0 -0.39257220012E+03  0.12864218251E+03  0.13994571257E+04  0.14620124991E+04  0.91315701231E+02 0.  0.
         11    1    3    3    0    0 -0.20387901083E+03  0.11235546117E+03  0.81877864247E+03  0.85122785790E+03  0.00000000000E+00 0. -1.
        -11    1    3    3    0    0 -0.18869318929E+03  0.16286721345E+02  0.58067848326E+03  0.61078464117E+03  0.00000000000E+00 0.  1.
         22    1    1    2    0    0  0.39257220012E+03 -0.12864218251E+03 -0.95464735070E+02  0.42399912626E+03  0.00000000000E+00 0.  1.
<mgrwt>
<rscale>  0 0.13625871E+04</rscale>
<asrwt>0</asrwt>
<pdfrwt beam="1">  1        2 0.24538492E+00 0.13625871E+04</pdfrwt>
<pdfrwt beam="2">  1       -2 0.44770711E-01 0.13625871E+04</pdfrwt>
<totfact> 0.51812370E+01</totfact>
</mgrwt>
</event>
<event>
 6    1  0.1585031E-006  0.2179909E+04  0.7818608E-02  0.8526837E-01
          2   -1    0    0  501    0  0.00000000000E+00  0.00000000000E+00  0.13281953800E+04  0.13281953800E+04  0.00000000000E+00 0. -1.
         -2   -1    0    0    0  501 -0.00000000000E+00 -0.00000000000E+00 -0.89444727519E+03  0.89444727519E+03  0.00000000000E+00 0.  1.
         23    2    1    2    0    0 -0.88230575121E+03  0.38076741685E+03  0.73753547138E+03  0.12148063448E+04  0.91370780144E+02 0.  0.
         11    1    3    3    0    0 -0.37613182391E+03  0.19355849497E+03  0.36852626988E+03  0.56102731798E+03  0.00000000000E+00 0. -1.
        -11    1    3    3    0    0 -0.50617392730E+03  0.18720892188E+03  0.36900920150E+03  0.65377902682E+03  0.00000000000E+00 0.  1.
         22    1    1    2    0    0  0.88230575121E+03 -0.38076741685E+03 -0.30378736662E+03  0.10078363104E+04  0.00000000000E+00 0.  1.
<mgrwt>
<rscale>  0 0.21799089E+04</rscale>
<asrwt>0</asrwt>
<pdfrwt beam="1">  1        2 0.20433775E+00 0.21799089E+04</pdfrwt>
<pdfrwt beam="2">  1       -2 0.13760727E+00 0.21799089E+04</pdfrwt>
<totfact> 0.54747158E+00</totfact>
</mgrwt>
</event>
<event>
 6    1  0.1585031E-006  0.6071487E+04  0.7818608E-02  0.7681601E-01
         -1   -1    0    0    0  501 -0.00000000000E+00  0.00000000000E+00  0.22467657405E+04  0.22467657405E+04  0.00000000000E+00 0.  1.
          1   -1    0    0  501    0  0.00000000000E+00 -0.00000000000E+00 -0.41017801817E+04  0.41017801817E+04  0.00000000000E+00 0. -1.
         23    2    1    2    0    0  0.29612501806E+04  0.57039316081E+03 -0.56964885135E+03  0.30703580554E+04  0.90817314212E+02 0.  0.
         11    1    3    3    0    0  0.24736360548E+04  0.49727444516E+03 -0.44928654696E+03  0.25628140016E+04  0.00000000000E+00 0. -1.
        -11    1    3    3    0    0  0.48761412581E+03  0.73118715650E+02 -0.12036230439E+03  0.50754405383E+03  0.00000000000E+00 0.  1.
         22    1    1    2    0    0 -0.29612501806E+04 -0.57039316081E+03 -0.12853655899E+04  0.32781878668E+04  0.00000000000E+00 0. -1.
<mgrwt>
<rscale>  0 0.60714872E+04</rscale>
<asrwt>0</asrwt>
<pdfrwt beam="1">  1        1 0.63104310E+00 0.60714872E+04</pdfrwt>
<pdfrwt beam="2">  1       -1 0.34565627E+00 0.60714872E+04</pdfrwt>
<totfact> 0.85473412E-04</totfact>
</mgrwt>
</event>
<event>
 6    1  0.1585031E-006  0.4589670E+04  0.7818608E-02  0.7895124E-01
          2   -1    0    0  501    0  0.00000000000E+00  0.00000000000E+00  0.42097263187E+04  0.42097263187E+04  0.00000000000E+00 0. -1.
         -2   -1    0    0    0  501 -0.00000000000E+00 -0.00000000000E+00 -0.12509760979E+04  0.12509760979E+04  0.00000000000E+00 0.  1.
         23    2    1    2    0    0  0.16324522459E+04  0.13253862389E+04  0.38921510462E+03  0.21404524666E+04  0.92191903265E+02 0.  0.
         11    1    3    3    0    0  0.68577586683E+03  0.54857460659E+03  0.20839131569E+03  0.90257940314E+03  0.00000000000E+00 0. -1.
        -11    1    3    3    0    0  0.94667637902E+03  0.77681163232E+03  0.18082378894E+03  0.12378730635E+04  0.00000000000E+00 0.  1.
         22    1    1    2    0    0 -0.16324522459E+04 -0.13253862389E+04  0.25695351162E+04  0.33202499500E+04  0.00000000000E+00 0.  1.
<mgrwt>
<rscale>  0 0.45896697E+04</rscale>
<asrwt>0</asrwt>
<pdfrwt beam="1">  1        2 0.64765019E+00 0.45896697E+04</pdfrwt>
<pdfrwt beam="2">  1       -2 0.19245786E+00 0.45896697E+04</pdfrwt>
<totfact> 0.25449886E-02</totfact>
</mgrwt>
</event>
<event>
 6    1  0.1585031E-006  0.6877139E+03  0.7818608E-02  0.9738477E-01
          2   -1    0    0  501    0  0.00000000000E+00  0.00000000000E+00  0.71134609905E+03  0.71134609905E+03  0.00000000000E+00 0. -1.
         -2   -1    0    0    0  501 -0.00000000000E+00 -0.00000000000E+00 -0.16621669770E+03  0.16621669770E+03  0.00000000000E+00 0.  1.
         23    2    1    2    0    0 -0.68878161768E+02  0.32521095471E+03  0.35042168095E+03  0.49231292638E+03  0.95238105663E+02 0.  0.
         11    1    3    3    0    0 -0.47115951995E+02  0.22484772869E+03  0.30013944321E+03  0.37796838412E+03  0.00000000000E+00 0. -1.
        -11    1    3    3    0    0 -0.21762209773E+02  0.10036322602E+03  0.50282237747E+02  0.11434454226E+03  0.00000000000E+00 0.  1.
         22    1    1    2    0    0  0.68878161768E+02 -0.32521095471E+03  0.19470772040E+03  0.38524987036E+03  0.00000000000E+00 0.  1.
<mgrwt>
<rscale>  0 0.68771389E+03</rscale>
<asrwt>0</asrwt>
<pdfrwt beam="1">  1        2 0.10943786E+00 0.68771389E+03</pdfrwt>
<pdfrwt beam="2">  1       -2 0.25571800E-01 0.68771389E+03</pdfrwt>
<totfact> 0.55552083E+02</totfact>
</mgrwt>
</event>
<event>
 6    1  0.1585031E-006  0.1030243E+04  0.7818608E-02  0.9275982E-01
         -2   -1    0    0    0  501 -0.00000000000E+00  0.00000000000E+00  0.49735351028E+03  0.49735351028E+03  0.00000000000E+00 0.  1.
          2   -1    0    0  501    0  0.00000000000E+00 -0.00000000000E+00 -0.53352473748E+03  0.53352473748E+03  0.00000000000E+00 0. -1.
         23    2    1    2    0    0 -0.35427197511E+02  0.43151638700E+03  0.25374402433E+03  0.50980979578E+03  0.89769256543E+02 0.  0.
         13    1    3    3    0    0 -0.42630788721E+02  0.96839207391E+02  0.80038233648E+02  0.13267002329E+03  0.00000000000E+00 0. -1.
        -13    1    3    3    0    0  0.72035912102E+01  0.33467717961E+03  0.17370579068E+03  0.37713977249E+03  0.00000000000E+00 0.  1.
         22    1    1    2    0    0  0.35427197511E+02 -0.43151638700E+03 -0.28991525153E+03  0.52106845197E+03  0.00000000000E+00 0. -1.
<mgrwt>
<rscale>  0 0.10302435E+04</rscale>
<asrwt>0</asrwt>
<pdfrwt beam="1">  1        2 0.82080729E-01 0.10302435E+04</pdfrwt>
<pdfrwt beam="2">  1       -2 0.76515925E-01 0.10302435E+04</pdfrwt>
<totfact> 0.86945586E+01</totfact>
</mgrwt>
</event>
<event>
 6    1  0.1585031E-006  0.1728331E+04  0.7818608E-02  0.8745369E-01
         -2   -1    0    0    0  501 -0.00000000000E+00  0.00000000000E+00  0.87190931226E+03  0.87190931226E+03  0.00000000000E+00 0.  1.
          2   -1    0    0  501    0  0.00000000000E+00 -0.00000000000E+00 -0.85649054581E+03  0.85649054581E+03  0.00000000000E+00 0. -1.
         23    2    1    2    0    0 -0.68597932020E+03  0.39766325397E+03  0.34509202740E+03  0.86968678010E+03  0.92535921672E+02 0.  0.
         11    1    3    3    0    0 -0.39753937711E+03  0.18316806254E+03  0.21245350153E+03  0.48654350864E+03  0.00000000000E+00 0. -1.
        -11    1    3    3    0    0 -0.28843994309E+03  0.21449519144E+03  0.13263852586E+03  0.38314327146E+03  0.00000000000E+00 0.  1.
         22    1    1    2    0    0  0.68597932020E+03 -0.39766325397E+03 -0.32967326094E+03  0.85871307797E+03  0.00000000000E+00 0. -1.
<mgrwt>
<rscale>  0 0.17283311E+04</rscale>
<asrwt>0</asrwt>
<pdfrwt beam="1">  1        2 0.13176778E+00 0.17283311E+04</pdfrwt>
<pdfrwt beam="2">  1       -2 0.13413989E+00 0.17283311E+04</pdfrwt>
<totfact> 0.11956700E+01</totfact>
</mgrwt>
</event>
<event>
 6    1  0.1585031E-006  0.4164395E+04  0.7818608E-02  0.7972180E-01
          2   -1    0    0  501    0  0.00000000000E+00  0.00000000000E+00  0.30171119921E+04  0.30171119921E+04  0.00000000000E+00 0. -1.
         -2   -1    0    0    0  501 -0.00000000000E+00 -0.00000000000E+00 -0.14369857474E+04  0.14369857474E+04  0.00000000000E+00 0.  1.
         23    2    1    2    0    0 -0.23728390309E+03  0.10584259682E+04 -0.11092546242E+04  0.15542117696E+04  0.92516066362E+02 0.  0.
         13    1    3    3    0    0 -0.12931886577E+03  0.62620725246E+03 -0.71621616893E+03  0.96011691617E+03  0.00000000000E+00 0. -1.
        -13    1    3    3    0    0 -0.10796503732E+03  0.43221871571E+03 -0.39303845529E+03  0.59409485340E+03  0.00000000000E+00 0.  1.
         22    1    1    2    0    0  0.23728390309E+03 -0.10584259682E+04  0.26893808689E+04  0.28998859700E+04  0.00000000000E+00 0. -1.
<mgrwt>
<rscale>  0 0.41643952E+04</rscale>
<asrwt>0</asrwt>
<pdfrwt beam="1">  1        2 0.46417108E+00 0.41643952E+04</pdfrwt>
<pdfrwt beam="2">  1       -2 0.22107473E+00 0.41643952E+04</pdfrwt>
<totfact> 0.12858269E-01</totfact>
</mgrwt>
</event>
<event>
 6    1  0.1585031E-006  0.1251790E+04  0.7818608E-02  0.9068695E-01
         -2   -1    0    0    0  501 -0.00000000000E+00  0.00000000000E+00  0.17094337408E+03  0.17094337408E+03  0.00000000000E+00 0.  1.
          2   -1    0    0  501    0  0.00000000000E+00 -0.00000000000E+00 -0.22916618806E+04  0.22916618806E+04  0.00000000000E+00 0. -1.
         23    2    1    2    0    0  0.43021175065E+03 -0.20468555105E+03 -0.27739050126E+03  0.55870492636E+03  0.90704902550E+02 0.  0.
         13    1    3    3    0    0  0.18657733900E+03 -0.13891780197E+03 -0.13117122091E+03  0.26704896242E+03  0.00000000000E+00 0. -1.
        -13    1    3    3    0    0  0.24363441165E+03 -0.65767749078E+02 -0.14621928034E+03  0.29165596394E+03  0.00000000000E+00 0.  1.
         22    1    1    2    0    0 -0.43021175065E+03  0.20468555105E+03 -0.18433280052E+04  0.19039003283E+04  0.00000000000E+00 0. -1.
<mgrwt>
<rscale>  0 0.12517898E+04</rscale>
<asrwt>0</asrwt>
<pdfrwt beam="1">  1        2 0.35256334E+00 0.12517898E+04</pdfrwt>
<pdfrwt beam="2">  1       -2 0.26298982E-01 0.12517898E+04</pdfrwt>
<totfact> 0.59150430E+01</totfact>
</mgrwt>
</event>
<event>
 6    1  0.1585031E-006  0.2553600E+04  0.7818608E-02  0.8384135E-01
         -2   -1    0    0    0  501 -0.00000000000E+00  0.00000000000E+00  0.50088790974E+03  0.50088790974E+03  0.00000000000E+00 0.  1.
          2   -1    0    0  501    0  0.00000000000E+00 -0.00000000000E+00 -0.32546571685E+04  0.32546571685E+04  0.00000000000E+00 0. -1.
         23    2    1    2    0    0 -0.21650916409E+03  0.95342370971E+03 -0.25822182841E+04  0.27629108428E+04  0.99659772696E+02 0.  0.
         13    1    3    3    0    0 -0.13280942473E+03  0.73924163806E+03 -0.20440214746E+04  0.21776455936E+04  0.00000000000E+00 0. -1.
        -13    1    3    3    0    0 -0.83699739361E+02  0.21418207165E+03 -0.53819680951E+03  0.58526524923E+03  0.00000000000E+00 0.  1.
         22    1    1    2    0    0  0.21650916409E+03 -0.95342370971E+03 -0.17155097464E+03  0.99263423539E+03  0.00000000000E+00 0.  1.
<mgrwt>
<rscale>  0 0.25536001E+04</rscale>
<asrwt>0</asrwt>
<pdfrwt beam="1">  1        2 0.50071647E+00 0.25536001E+04</pdfrwt>
<pdfrwt beam="2">  1       -2 0.77059680E-01 0.25536001E+04</pdfrwt>
<totfact> 0.15943283E+00</totfact>
</mgrwt>
</event>
<event>
 6    1  0.1585031E-006  0.2482688E+04  0.7818608E-02  0.8409179E-01
          1   -1    0    0  501    0  0.00000000000E+00  0.00000000000E+00  0.19925779329E+04  0.19925779329E+04  0.00000000000E+00 0. -1.
         -1   -1    0    0    0  501 -0.00000000000E+00 -0.00000000000E+00 -0.77333727219E+03  0.77333727219E+03  0.00000000000E+00 0.  1.
         23    2    1    2    0    0 -0.17799891982E+03 -0.65852507692E+03  0.17636194192E+04  0.18931683202E+04  0.91618449859E+02 0.  0.
         13    1    3    3    0    0  0.38596248687E+01 -0.64233163404E+02  0.21728733910E+03  0.22661549753E+03  0.00000000000E+00 0.  1.
        -13    1    3    3    0    0 -0.18185854468E+03 -0.59429191352E+03  0.15463320801E+04  0.16665528227E+04  0.00000000000E+00 0. -1.
         22    1    1    2    0    0  0.17799891982E+03  0.65852507692E+03 -0.54437875850E+03  0.87274688490E+03  0.00000000000E+00 0.  1.
<mgrwt>
<rscale>  0 0.24826879E+04</rscale>
<asrwt>0</asrwt>
<pdfrwt beam="1">  1        1 0.30655045E+00 0.24826879E+04</pdfrwt>
<pdfrwt beam="2">  1       -1 0.11897497E+00 0.24826879E+04</pdfrwt>
<totfact> 0.16955823E+00</totfact>
</mgrwt>
</event>
<event>
 6    1  0.1585031E-006  0.1004931E+04  0.7818608E-02  0.9303153E-01
          2   -1    0    0  501    0  0.00000000000E+00  0.00000000000E+00  0.15313229524E+04  0.15313229524E+04  0.00000000000E+00 0. -1.
         -2   -1    0    0    0  501 -0.00000000000E+00 -0.00000000000E+00 -0.16487165878E+03  0.16487165878E+03  0.00000000000E+00 0.  1.
         23    2    1    2    0    0  0.19313406985E+02  0.36200202013E+03  0.11165808517E+03  0.39008417701E+03  0.90992675006E+02 0.  0.
         13    1    3    3    0    0 -0.22737417625E+02  0.14167793454E+03  0.77851460335E+02  0.16324973866E+03  0.00000000000E+00 0. -1.
        -13    1    3    3    0    0  0.42050824610E+02  0.22032408559E+03  0.33806624840E+02  0.22683443835E+03  0.00000000000E+00 0.  1.
         22    1    1    2    0    0 -0.19313406985E+02 -0.36200202013E+03  0.12547932084E+04  0.13061104341E+04  0.00000000000E+00 0. -1.
<mgrwt>
<rscale>  0 0.10049314E+04</rscale>
<asrwt>0</asrwt>
<pdfrwt beam="1">  1        2 0.23558814E+00 0.10049314E+04</pdfrwt>
<pdfrwt beam="2">  1       -2 0.25364872E-01 0.10049314E+04</pdfrwt>
<totfact> 0.16986259E+02</totfact>
</mgrwt>
</event>
<event>
 6    1  0.1585031E-006  0.1200297E+04  0.7818608E-02  0.9112596E-01
         -2   -1    0    0    0  501 -0.00000000000E+00  0.00000000000E+00  0.12096824244E+03  0.12096824244E+03  0.00000000000E+00 0. -1.
          2   -1    0    0  501    0  0.00000000000E+00 -0.00000000000E+00 -0.29774616402E+04  0.29774616402E+04  0.00000000000E+00 0.  1.
         23    2    1    2    0    0  0.10368887184E+02  0.24861353497E+03 -0.28364314148E+04  0.28487927725E+04  0.91437881377E+02 0.  0.
         13    1    3    3    0    0 -0.32490491425E+02  0.12826550083E+03 -0.17182798972E+04  0.17233669011E+04  0.00000000000E+00 0.  1.
        -13    1    3    3    0    0  0.42859378608E+02  0.12034803414E+03 -0.11181515176E+04  0.11254258714E+04  0.00000000000E+00 0. -1.
         22    1    1    2    0    0 -0.10368887184E+02 -0.24861353497E+03 -0.20061982938E+02  0.24963711013E+03  0.00000000000E+00 0. -1.
<mgrwt>
<rscale>  0 0.12002971E+04</rscale>
<asrwt>0</asrwt>
<pdfrwt beam="1">  1        2 0.45807105E+00 0.12002971E+04</pdfrwt>
<pdfrwt beam="2">  1       -2 0.18610497E-01 0.12002971E+04</pdfrwt>
<totfact> 0.43642795E+01</totfact>
</mgrwt>
</event>
<event>
 6    1  0.1585031E-006  0.3253581E+04  0.7818608E-02  0.8174808E-01
         -2   -1    0    0    0  501 -0.00000000000E+00  0.00000000000E+00  0.12965345327E+04  0.12965345327E+04  0.00000000000E+00 0. -1.
          2   -1    0    0  501    0  0.00000000000E+00 -0.00000000000E+00 -0.20411697863E+04  0.20411697863E+04  0.00000000000E+00 0.  1.
         23    2    1    2    0    0  0.13822539062E+04 -0.83730552408E+03 -0.55248141477E+03  0.17102432596E+04  0.89386193346E+02 0.  0.
         13    1    3    3    0    0  0.31022783023E+03 -0.23222006238E+03 -0.13673769071E+03  0.41093145424E+03  0.00000000000E+00 0. -1.
        -13    1    3    3    0    0  0.10720260760E+04 -0.60508546170E+03 -0.41574372406E+03  0.12993118054E+04  0.00000000000E+00 0.  1.
         22    1    1    2    0    0 -0.13822539062E+04  0.83730552408E+03 -0.19215383885E+03  0.16274610593E+04  0.00000000000E+00 0.  1.
<mgrwt>
<rscale>  0 0.32535809E+04</rscale>
<asrwt>0</asrwt>
<pdfrwt beam="1">  1        2 0.31402612E+00 0.32535809E+04</pdfrwt>
<pdfrwt beam="2">  1       -2 0.19946685E+00 0.32535809E+04</pdfrwt>
<totfact> 0.71242847E-01</totfact>
</mgrwt>
</event>
<event>
 6    1  0.1585031E-006  0.2074587E+04  0.7818608E-02  0.8572521E-01
         -2   -1    0    0    0  501 -0.00000000000E+00  0.00000000000E+00  0.91293829222E+03  0.91293829222E+03  0.00000000000E+00 0.  1.
          2   -1    0    0  501    0  0.00000000000E+00 -0.00000000000E+00 -0.11785876378E+04  0.11785876378E+04  0.00000000000E+00 0. -1.
         23    2    1    2    0    0 -0.98929735511E+03 -0.25882584785E+03 -0.29531271357E+03  0.10685010077E+04  0.93726881210E+02 0.  0.
         11    1    3    3    0    0 -0.92329093646E+03 -0.25741685701E+03 -0.29358161991E+03  0.10024568615E+04  0.00000000000E+00 0.  1.
        -11    1    3    3    0    0 -0.66006418653E+02 -0.14089908350E+01 -0.17310936581E+01  0.66044146174E+02  0.00000000000E+00 0. -1.
         22    1    1    2    0    0  0.98929735511E+03  0.25882584785E+03  0.29663367987E+02  0.10230249223E+04  0.00000000000E+00 0.  1.
<mgrwt>
<rscale>  0 0.20745870E+04</rscale>
<asrwt>0</asrwt>
<pdfrwt beam="1">  1        2 0.18132118E+00 0.20745870E+04</pdfrwt>
<pdfrwt beam="2">  1       -2 0.14045204E+00 0.20745870E+04</pdfrwt>
<totfact> 0.64174054E+00</totfact>
</mgrwt>
</event>
<event>
 6    1  0.1585031E-006  0.2927525E+04  0.7818608E-02  0.8264735E-01
         -1   -1    0    0    0  501 -0.00000000000E+00  0.00000000000E+00  0.13886658309E+04  0.13886658309E+04  0.00000000000E+00 0.  1.
          1   -1    0    0  501    0  0.00000000000E+00 -0.00000000000E+00 -0.15429207664E+04  0.15429207664E+04  0.00000000000E+00 0. -1.
         23    2    1    2    0    0  0.33716243823E+03 -0.13692036845E+04  0.31067789269E+03  0.14468105961E+04  0.91339523913E+02 0.  0.
         11    1    3    3    0    0  0.21413660897E+03 -0.82550847550E+03  0.14331235273E+03  0.86478735008E+03  0.00000000000E+00 0. -1.
        -11    1    3    3    0    0  0.12302582926E+03 -0.54369520895E+03  0.16736553995E+03  0.58202324599E+03  0.00000000000E+00 0.  1.
         22    1    1    2    0    0 -0.33716243823E+03  0.13692036845E+04 -0.46493282822E+03  0.14847760013E+04  0.00000000000E+00 0.  1.
<mgrwt>
<rscale>  0 0.29275255E+04</rscale>
<asrwt>0</asrwt>
<pdfrwt beam="1">  1        1 0.23737243E+00 0.29275255E+04</pdfrwt>
<pdfrwt beam="2">  1       -1 0.21364090E+00 0.29275255E+04</pdfrwt>
<totfact> 0.63541208E-01</totfact>
</mgrwt>
</event>
<event>
 6    1  0.1585031E-006  0.3940924E+04  0.7818608E-02  0.8016571E-01
          2   -1    0    0  501    0  0.00000000000E+00  0.00000000000E+00  0.15362355867E+04  0.15362355867E+04  0.00000000000E+00 0. -1.
         -2   -1    0    0    0  501 -0.00000000000E+00 -0.00000000000E+00 -0.25274249718E+04  0.25274249718E+04  0.00000000000E+00 0.  1.
         23    2    1    2    0    0  0.22170502977E+03  0.19562527457E+04 -0.44453562800E+03  0.20204013348E+04  0.91278168095E+02 0.  0.
         11    1    3    3    0    0  0.54854174622E+02  0.60889132323E+03 -0.17901517299E+03  0.63702751600E+03  0.00000000000E+00 0. -1.
        -11    1    3    3    0    0  0.16685085514E+03  0.13473614225E+04 -0.26552045501E+03  0.13833738188E+04  0.00000000000E+00 0.  1.
         22    1    1    2    0    0 -0.22170502977E+03 -0.19562527457E+04 -0.54665375709E+03  0.20432592237E+04  0.00000000000E+00 0.  1.
<mgrwt>
<rscale>  0 0.39409238E+04</rscale>
<asrwt>0</asrwt>
<pdfrwt beam="1">  1        2 0.23634394E+00 0.39409238E+04</pdfrwt>
<pdfrwt beam="2">  1       -2 0.38883461E+00 0.39409238E+04</pdfrwt>
<totfact> 0.84204651E-02</totfact>
</mgrwt>
</event>
<event>
 6    1  0.1585031E-006  0.1962116E+04  0.7818608E-02  0.8624540E-01
          2   -1    0    0  501    0  0.00000000000E+00  0.00000000000E+00  0.34279767280E+04  0.34279767280E+04  0.00000000000E+00 0. -1.
         -2   -1    0    0    0  501 -0.00000000000E+00 -0.00000000000E+00 -0.28077044513E+03  0.28077044513E+03  0.00000000000E+00 0.  1.
         23    2    1    2    0    0  0.87184986562E+03 -0.44152376388E+03  0.14746084618E+04  0.17715716795E+04  0.94502262400E+02 0.  0.
         13    1    3    3    0    0  0.41439408495E+03 -0.22971813004E+03  0.79363177978E+03  0.92430745902E+03  0.00000000000E+00 0. -1.
        -13    1    3    3    0    0  0.45745578068E+03 -0.21180563384E+03  0.68097668206E+03  0.84726422049E+03  0.00000000000E+00 0.  1.
         22    1    1    2    0    0 -0.87184986562E+03  0.44152376388E+03  0.16725978211E+04  0.19371754937E+04  0.00000000000E+00 0. -1.
<mgrwt>
<rscale>  0 0.19621157E+04</rscale>
<asrwt>0</asrwt>
<pdfrwt beam="1">  1        2 0.52738101E+00 0.19621157E+04</pdfrwt>
<pdfrwt beam="2">  1       -2 0.43195455E-01 0.19621157E+04</pdfrwt>
<totfact> 0.43436251E+00</totfact>
</mgrwt>
</event>
<event>
 6    1  0.1585031E-006  0.1599784E+04  0.7818608E-02  0.8820681E-01
          1   -1    0    0  501    0  0.00000000000E+00  0.00000000000E+00  0.75763776918E+03  0.75763776918E+03  0.00000000000E+00 0. -1.
         -1   -1    0    0    0  501 -0.00000000000E+00 -0.00000000000E+00 -0.84450227512E+03  0.84450227512E+03  0.00000000000E+00 0.  1.
         23    2    1    2    0    0 -0.68844620802E+03  0.37915554893E+03  0.90624868827E+02  0.79639840471E+03  0.91216448874E+02 0.  0.
         11    1    3    3    0    0 -0.38065490364E+03  0.18312169528E+03  0.87952506340E+02  0.43147115120E+03  0.00000000000E+00 0. -1.
        -11    1    3    3    0    0 -0.30779130439E+03  0.19603385365E+03  0.26723624870E+01  0.36492725351E+03  0.00000000000E+00 0.  1.
         22    1    1    2    0    0  0.68844620802E+03 -0.37915554893E+03 -0.17748937476E+03  0.80574163960E+03  0.00000000000E+00 0.  1.
<mgrwt>
<rscale>  0 0.15997835E+04</rscale>
<asrwt>0</asrwt>
<pdfrwt beam="1">  1        1 0.11655966E+00 0.15997835E+04</pdfrwt>
<pdfrwt beam="2">  1       -1 0.12992343E+00 0.15997835E+04</pdfrwt>
<totfact> 0.11751136E+01</totfact>
</mgrwt>
</event>
<event>
 6    1  0.1585031E-006  0.1998369E+04  0.7818608E-02  0.8607384E-01
         -1   -1    0    0    0  501 -0.00000000000E+00  0.00000000000E+00  0.46481824842E+03  0.46481824842E+03  0.00000000000E+00 0.  1.
          1   -1    0    0  501    0  0.00000000000E+00 -0.00000000000E+00 -0.21478705895E+04  0.21478705895E+04  0.00000000000E+00 0. -1.
         23    2    1    2    0    0  0.85139150106E+03 -0.50456007008E+03 -0.68432774361E+03  0.12066663722E+04  0.91054493713E+02 0.  0.
         13    1    3    3    0    0  0.65084664571E+03 -0.35961367460E+03 -0.55184820915E+03  0.92599125111E+03  0.00000000000E+00 0. -1.
        -13    1    3    3    0    0  0.20054485535E+03 -0.14494639549E+03 -0.13247953446E+03  0.28067512113E+03  0.00000000000E+00 0.  1.
         22    1    1    2    0    0 -0.85139150106E+03  0.50456007008E+03 -0.99872459748E+03  0.14060224657E+04  0.00000000000E+00 0. -1.
<mgrwt>
<rscale>  0 0.19983688E+04</rscale>
<asrwt>0</asrwt>
<pdfrwt beam="1">  1        1 0.33044162E+00 0.19983688E+04</pdfrwt>
<pdfrwt beam="2">  1       -1 0.71510502E-01 0.19983688E+04</pdfrwt>
<totfact> 0.43308480E+00</totfact>
</mgrwt>
</event>
<event>
 6    1  0.1585031E-006  0.2214133E+04  0.7818608E-02  0.8512569E-01
         -2   -1    0    0    0  501 -0.00000000000E+00  0.00000000000E+00  0.15091388865E+04  0.15091388865E+04  0.00000000000E+00 0.  1.
          2   -1    0    0  501    0  0.00000000000E+00 -0.00000000000E+00 -0.81211615369E+03  0.81211615369E+03  0.00000000000E+00 0. -1.
         23    2    1    2    0    0 -0.47329071281E+03  0.95318977011E+03  0.36378170100E+02  0.10686473303E+04  0.90049478504E+02 0.  0.
         11    1    3    3    0    0 -0.34666105353E+03  0.77096769977E+03  0.11928713468E+02  0.84540367537E+03  0.00000000000E+00 0.  1.
        -11    1    3    3    0    0 -0.12662965927E+03  0.18222207034E+03  0.24449456633E+02  0.22324365491E+03  0.00000000000E+00 0. -1.
         22    1    1    2    0    0  0.47329071281E+03 -0.95318977011E+03  0.66064456268E+03  0.12526077099E+04  0.00000000000E+00 0. -1.
<mgrwt>
<rscale>  0 0.22141328E+04</rscale>
<asrwt>0</asrwt>
<pdfrwt beam="1">  1        2 0.12494095E+00 0.22141328E+04</pdfrwt>
<pdfrwt beam="2">  1       -2 0.23217521E+00 0.22141328E+04</pdfrwt>
<totfact> 0.25532065E+00</totfact>
</mgrwt>
</event>
<event>
 6    1  0.1585031E-006  0.1172204E+04  0.7818608E-02  0.9137540E-01
          1   -1    0    0  501    0  0.00000000000E+00  0.00000000000E+00  0.12772308473E+04  0.12772308473E+04  0.00000000000E+00 0. -1.
         -1   -1    0    0    0  501 -0.00000000000E+00 -0.00000000000E+00 -0.26895330545E+03  0.26895330545E+03  0.00000000000E+00 0.  1.
         23    2    1    2    0    0 -0.56561805894E+03  0.13864796242E+03  0.51064517475E+03  0.78016521114E+03  0.93553279504E+02 0.  0.
         13    1    3    3    0    0 -0.14776960147E+03  0.41574628539E+02  0.83291979533E+02  0.17464781336E+03  0.00000000000E+00 0. -1.
        -13    1    3    3    0    0 -0.41784845746E+03  0.97073333882E+02  0.42735319521E+03  0.60551739778E+03  0.00000000000E+00 0.  1.
         22    1    1    2    0    0  0.56561805894E+03 -0.13864796242E+03  0.49763236707E+03  0.76601894156E+03  0.00000000000E+00 0.  1.
<mgrwt>
<rscale>  0 0.11722038E+04</rscale>
<asrwt>0</asrwt>
<pdfrwt beam="1">  1        1 0.19649705E+00 0.11722038E+04</pdfrwt>
<pdfrwt beam="2">  1       -1 0.41377432E-01 0.11722038E+04</pdfrwt>
<totfact> 0.53280629E+01</totfact>
</mgrwt>
</event>
<event>
 6    1  0.1585031E-006  0.1895255E+04  0.7818608E-02  0.8657222E-01
         -3   -1    0    0    0  501 -0.00000000000E+00  0.00000000000E+00  0.72511368323E+03  0.72511368323E+03  0.00000000000E+00 0.  1.
          3   -1    0    0  501    0  0.00000000000E+00 -0.00000000000E+00 -0.12384237529E+04  0.12384237529E+04  0.00000000000E+00 0. -1.
         23    2    1    2    0    0  0.10036846987E+00 -0.71185362728E+03 -0.90212361715E+03  0.11524199530E+04  0.86655240873E+02 0.  0.
         11    1    3    3    0    0  0.19322063977E+02 -0.21949745826E+03 -0.22425679037E+03  0.31439399544E+03  0.00000000000E+00 0. -1.
        -11    1    3    3    0    0 -0.19221695507E+02 -0.49235616903E+03 -0.67786682678E+03  0.83802595759E+03  0.00000000000E+00 0.  1.
         22    1    1    2    0    0 -0.10036846987E+00  0.71185362728E+03  0.38881354746E+03  0.81111748313E+03  0.00000000000E+00 0.  1.
<mgrwt>
<rscale>  0 0.18952551E+04</rscale>
<asrwt>0</asrwt>
<pdfrwt beam="1">  1        3 0.19052673E+00 0.18952551E+04</pdfrwt>
<pdfrwt beam="2">  1       -3 0.11155595E+00 0.18952551E+04</pdfrwt>
<totfact> 0.27968419E-01</totfact>
</mgrwt>
</event>
<event>
 6    1  0.1585031E-006  0.1810298E+04  0.7818608E-02  0.8700842E-01
          2   -1    0    0  501    0  0.00000000000E+00  0.00000000000E+00  0.84195839687E+03  0.84195839687E+03  0.00000000000E+00 0.  1.
         -2   -1    0    0    0  501 -0.00000000000E+00 -0.00000000000E+00 -0.97308171892E+03  0.97308171892E+03  0.00000000000E+00 0. -1.
         23    2    1    2    0    0  0.36370914297E+03 -0.79903356428E+03 -0.27431337803E+03  0.92552206109E+03  0.10297707838E+03 0.  0.
         11    1    3    3    0    0  0.30922381408E+02 -0.65767023912E+02  0.58940305768E+01  0.72912514033E+02  0.00000000000E+00 0.  1.
        -11    1    3    3    0    0  0.33278676156E+03 -0.73326654036E+03 -0.28020740861E+03  0.85260954705E+03  0.00000000000E+00 0. -1.
         22    1    1    2    0    0 -0.36370914297E+03  0.79903356428E+03  0.14319005598E+03  0.88951805471E+03  0.00000000000E+00 0. -1.
<mgrwt>
<rscale>  0 0.18102976E+04</rscale>
<asrwt>0</asrwt>
<pdfrwt beam="1">  1        2 0.12953206E+00 0.18102976E+04</pdfrwt>
<pdfrwt beam="2">  1       -2 0.14970488E+00 0.18102976E+04</pdfrwt>
<totfact> 0.91321030E+00</totfact>
</mgrwt>
</event>
<event>
 6    1  0.1585031E-006  0.1973153E+04  0.7818608E-02  0.8619276E-01
         -1   -1    0    0    0  501 -0.00000000000E+00  0.00000000000E+00  0.73104131980E+03  0.73104131980E+03  0.00000000000E+00 0.  1.
          1   -1    0    0  501    0  0.00000000000E+00 -0.00000000000E+00 -0.13314338618E+04  0.13314338618E+04  0.00000000000E+00 0. -1.
         23    2    1    2    0    0  0.47175837556E+03  0.62809149733E+03  0.31938819214E+03  0.85290852664E+03  0.91592814199E+02 0.  0.
         11    1    3    3    0    0  0.18123093511E+03  0.23206452837E+03  0.72771378797E+02  0.30330557321E+03  0.00000000000E+00 0. -1.
        -11    1    3    3    0    0  0.29052744045E+03  0.39602696895E+03  0.24661681334E+03  0.54960295343E+03  0.00000000000E+00 0.  1.
         22    1    1    2    0    0 -0.47175837556E+03 -0.62809149733E+03 -0.91978073419E+03  0.12095666550E+04  0.00000000000E+00 0. -1.
<mgrwt>
<rscale>  0 0.19731530E+04</rscale>
<asrwt>0</asrwt>
<pdfrwt beam="1">  1        1 0.20483598E+00 0.19731530E+04</pdfrwt>
<pdfrwt beam="2">  1       -1 0.11246790E+00 0.19731530E+04</pdfrwt>
<totfact> 0.57828360E+00</totfact>
</mgrwt>
</event>
<event>
 6    1  0.1585031E-006  0.1745437E+04  0.7818608E-02  0.8735866E-01
          3   -1    0    0  501    0  0.00000000000E+00  0.00000000000E+00  0.44369870575E+03  0.44369870575E+03  0.00000000000E+00 0. -1.
         -3   -1    0    0    0  501 -0.00000000000E+00 -0.00000000000E+00 -0.17165648062E+04  0.17165648062E+04  0.00000000000E+00 0.  1.
         23    2    1    2    0    0 -0.28125964723E+03 -0.80204519095E+03 -0.40572035250E+03  0.94604556376E+03  0.89497077072E+02 0.  0.
         13    1    3    3    0    0 -0.12078900230E+03 -0.45024171590E+03 -0.19118669309E+03  0.50384515223E+03  0.00000000000E+00 0. -1.
        -13    1    3    3    0    0 -0.16047064493E+03 -0.35180347505E+03 -0.21453365942E+03  0.44220041154E+03  0.00000000000E+00 0.  1.
         22    1    1    2    0    0  0.28125964723E+03  0.80204519095E+03 -0.86714574791E+03  0.12142179481E+04  0.00000000000E+00 0. -1.
<mgrwt>
<rscale>  0 0.17454370E+04</rscale>
<asrwt>0</asrwt>
<pdfrwt beam="1">  1        3 0.68261339E-01 0.17454370E+04</pdfrwt>
<pdfrwt beam="2">  1       -3 0.26408689E+00 0.17454370E+04</pdfrwt>
<totfact> 0.31056885E-01</totfact>
</mgrwt>
</event>
<event>
 6    1  0.1585031E-006  0.2372574E+04  0.7818608E-02  0.8449843E-01
          2   -1    0    0  501    0  0.00000000000E+00  0.00000000000E+00  0.21556021110E+04  0.21556021110E+04  0.00000000000E+00 0. -1.
         -2   -1    0    0    0  501 -0.00000000000E+00 -0.00000000000E+00 -0.65284645144E+03  0.65284645144E+03  0.00000000000E+00 0.  1.
         23    2    1    2    0    0 -0.13130788911E+02  0.10490020584E+04  0.10109818816E+03  0.10576711913E+04  0.88711718471E+02 0.  0.
         11    1    3    3    0    0  0.17560987497E+02  0.84163119724E+02  0.24040402472E+02  0.89273512055E+02  0.00000000000E+00 0.  1.
        -11    1    3    3    0    0 -0.30691776407E+02  0.96483893871E+03  0.77057785683E+02  0.96839767923E+03  0.00000000000E+00 0. -1.
         22    1    1    2    0    0  0.13130788911E+02 -0.10490020584E+04  0.14016574714E+04  0.17507773711E+04  0.00000000000E+00 0. -1.
<mgrwt>
<rscale>  0 0.23725743E+04</rscale>
<asrwt>0</asrwt>
<pdfrwt beam="1">  1        2 0.33163109E+00 0.23725743E+04</pdfrwt>
<pdfrwt beam="2">  1       -2 0.10043792E+00 0.23725743E+04</pdfrwt>
<totfact> 0.40290084E+00</totfact>
</mgrwt>
</event>
<event>
 6    1  0.1585031E-006  0.1270306E+04  0.7818608E-02  0.9053450E-01
         -1   -1    0    0    0  501 -0.00000000000E+00  0.00000000000E+00  0.69047044936E+03  0.69047044936E+03  0.00000000000E+00 0.  1.
          1   -1    0    0  501    0  0.00000000000E+00 -0.00000000000E+00 -0.58426707681E+03  0.58426707681E+03  0.00000000000E+00 0. -1.
         23    2    1    2    0    0  0.42066085844E+03  0.90456624115E+02 -0.41093260024E+03  0.60200609905E+03  0.91693962123E+02 0.  0.
         13    1    3    3    0    0  0.71579319065E+02 -0.96400195425E+01 -0.38566019718E+02  0.81877144378E+02  0.00000000000E+00 0.  1.
        -13    1    3    3    0    0  0.34908153938E+03  0.10009664366E+03 -0.37236658052E+03  0.52012895468E+03  0.00000000000E+00 0. -1.
         22    1    1    2    0    0 -0.42066085844E+03 -0.90456624115E+02  0.51713597278E+03  0.67273142711E+03  0.00000000000E+00 0.  1.
<mgrwt>
<rscale>  0 0.12703057E+04</rscale>
<asrwt>0</asrwt>
<pdfrwt beam="1">  1        1 0.89887242E-01 0.12703057E+04</pdfrwt>
<pdfrwt beam="2">  1       -1 0.10622622E+00 0.12703057E+04</pdfrwt>
<totfact> 0.29049655E+01</totfact>
</mgrwt>
</event>
<event>
 6    1  0.1585031E-006  0.3548211E+04  0.7818608E-02  0.8102459E-01
          3   -1    0    0  501    0  0.00000000000E+00  0.00000000000E+00  0.27701356272E+04  0.27701356272E+04  0.00000000000E+00 0. -1.
         -3   -1    0    0    0  501 -0.00000000000E+00 -0.00000000000E+00 -0.11362083077E+04  0.11362083077E+04  0.00000000000E+00 0.  1.
         23    2    1    2    0    0  0.15222926498E+04  0.62748235656E+03  0.15411793256E+04  0.22571892395E+04  0.92523131323E+02 0.  0.
         11    1    3    3    0    0  0.47372181974E+03  0.18223429759E+03  0.53199742120E+03  0.73528427012E+03  0.00000000000E+00 0. -1.
        -11    1    3    3    0    0  0.10485708300E+04  0.44524805896E+03  0.10091819044E+04  0.15219049693E+04  0.00000000000E+00 0.  1.
         22    1    1    2    0    0 -0.15222926498E+04 -0.62748235656E+03  0.92747993887E+02  0.16491546955E+04  0.00000000000E+00 0.  1.
<mgrwt>
<rscale>  0 0.35482114E+04</rscale>
<asrwt>0</asrwt>
<pdfrwt beam="1">  1        3 0.42617471E+00 0.35482114E+04</pdfrwt>
<pdfrwt beam="2">  1       -3 0.17480128E+00 0.35482114E+04</pdfrwt>
<totfact> 0.36765178E-03</totfact>
</mgrwt>
</event>
<event>
 6    1  0.1585031E-006  0.1575016E+04  0.7818608E-02  0.8836045E-01
          2   -1    0    0  501    0  0.00000000000E+00  0.00000000000E+00  0.13303658672E+04  0.13303658672E+04  0.00000000000E+00 0. -1.
         -2   -1    0    0    0  501 -0.00000000000E+00 -0.00000000000E+00 -0.46616403619E+03  0.46616403619E+03  0.00000000000E+00 0.  1.
         23    2    1    2    0    0 -0.30859566331E+03 -0.63940745646E+03  0.81503089399E+03  0.10848481206E+04  0.92449488356E+02 0.  0.
         13    1    3    3    0    0 -0.13078063479E+03 -0.35743238610E+03  0.39381146190E+03  0.54767595583E+03  0.00000000000E+00 0.  1.
        -13    1    3    3    0    0 -0.17781502853E+03 -0.28197507036E+03  0.42121943209E+03  0.53717216480E+03  0.00000000000E+00 0. -1.
         22    1    1    2    0    0  0.30859566331E+03  0.63940745646E+03  0.49170936970E+02  0.71168178271E+03  0.00000000000E+00 0. -1.
<mgrwt>
<rscale>  0 0.15750158E+04</rscale>
<asrwt>0</asrwt>
<pdfrwt beam="1">  1        2 0.20467167E+00 0.15750158E+04</pdfrwt>
<pdfrwt beam="2">  1       -2 0.71717545E-01 0.15750158E+04</pdfrwt>
<totfact> 0.26880480E+01</totfact>
</mgrwt>
</event>
<event>
 6    1  0.1585031E-006  0.8325471E+03  0.7818608E-02  0.9514066E-01
         -1   -1    0    0    0  501 -0.00000000000E+00  0.00000000000E+00  0.17090269382E+03  0.17090269382E+03  0.00000000000E+00 0.  1.
          1   -1    0    0  501    0  0.00000000000E+00 -0.00000000000E+00 -0.10139316956E+04  0.10139316956E+04  0.00000000000E+00 0. -1.
         23    2    1    2    0    0 -0.15521765375E+02  0.36463360274E+03 -0.69659095250E+03  0.79158803953E+03  0.90410617582E+02 0.  0.
         13    1    3    3    0    0 -0.36712973058E+02  0.23674861179E+03 -0.37670833689E+03  0.44643803451E+03  0.00000000000E+00 0. -1.
        -13    1    3    3    0    0  0.21191207683E+02  0.12788499094E+03 -0.31988261561E+03  0.34515000502E+03  0.00000000000E+00 0.  1.
         22    1    1    2    0    0  0.15521765375E+02 -0.36463360274E+03 -0.14643804933E+03  0.39324634993E+03  0.00000000000E+00 0.  1.
<mgrwt>
<rscale>  0 0.83254708E+03</rscale>
<asrwt>0</asrwt>
<pdfrwt beam="1">  1        1 0.15598949E+00 0.83254708E+03</pdfrwt>
<pdfrwt beam="2">  1       -1 0.26292722E-01 0.83254708E+03</pdfrwt>
<totfact> 0.19116515E+02</totfact>
</mgrwt>
</event>
<event>
 6    1  0.1585031E-006  0.1672133E+04  0.7818608E-02  0.8777419E-01
         -2   -1    0    0    0  501 -0.00000000000E+00  0.00000000000E+00  0.35091321743E+03  0.35091321743E+03  0.00000000000E+00 0.  1.
          2   -1    0    0  501    0  0.00000000000E+00 -0.00000000000E+00 -0.19919658609E+04  0.19919658609E+04  0.00000000000E+00 0. -1.
         23    2    1    2    0    0 -0.36944456406E+03  0.74610951909E+03 -0.76512637583E+03  0.11344025470E+04  0.91005864258E+02 0.  0.
         13    1    3    3    0    0 -0.20121041918E+03  0.44128490008E+03 -0.38767269070E+03  0.62089299476E+03  0.00000000000E+00 0. -1.
        -13    1    3    3    0    0 -0.16823414488E+03  0.30482461901E+03 -0.37745368512E+03  0.51350955227E+03  0.00000000000E+00 0.  1.
         22    1    1    2    0    0  0.36944456406E+03 -0.74610951909E+03 -0.87592626770E+03  0.12084765314E+04  0.00000000000E+00 0.  1.
<mgrwt>
<rscale>  0 0.16721329E+04</rscale>
<asrwt>0</asrwt>
<pdfrwt beam="1">  1        2 0.30645629E+00 0.16721329E+04</pdfrwt>
<pdfrwt beam="2">  1       -2 0.53986648E-01 0.16721329E+04</pdfrwt>
<totfact> 0.20804345E+01</totfact>
</mgrwt>
</event>
<event>
 6    1  0.1585031E-006  0.5001822E+04  0.7818608E-02  0.7828226E-01
          1   -1    0    0  501    0  0.00000000000E+00  0.00000000000E+00  0.35553294660E+04  0.35553294660E+04  0.00000000000E+00 0. -1.
         -1   -1    0    0    0  501 -0.00000000000E+00 -0.00000000000E+00 -0.17592054715E+04  0.17592054715E+04  0.00000000000E+00 0.  1.
         23    2    1    2    0    0 -0.19114697820E+04  0.51642928912E+03 -0.72375934726E+03  0.21098152938E+04  0.84125163371E+02 0.  0.
         13    1    3    3    0    0 -0.17586850186E+04  0.45854558921E+03 -0.68155288872E+03  0.19410696515E+04  0.00000000000E+00 0. -1.
        -13    1    3    3    0    0 -0.15278476346E+03  0.57883699912E+02 -0.42206458544E+02  0.16874564232E+03  0.00000000000E+00 0.  1.
         22    1    1    2    0    0  0.19114697820E+04 -0.51642928912E+03  0.25198833417E+04  0.32047196436E+04  0.00000000000E+00 0. -1.
<mgrwt>
<rscale>  0 0.50018217E+04</rscale>
<asrwt>0</asrwt>
<pdfrwt beam="1">  1        1 0.54697377E+00 0.50018217E+04</pdfrwt>
<pdfrwt beam="2">  1       -1 0.27064700E+00 0.50018217E+04</pdfrwt>
<totfact> 0.83325096E-03</totfact>
</mgrwt>
</event>
<event>
 6    1  0.1708254E-006  0.3658241E+04  0.7818608E-02  0.8077280E-01
         -1   -1    0    0    0  501 -0.00000000000E+00  0.00000000000E+00  0.10948597595E+04  0.10948597595E+04  0.00000000000E+00 0.  1.
          1   -1    0    0  501    0  0.00000000000E+00 -0.00000000000E+00 -0.30558077205E+04  0.30558077205E+04  0.00000000000E+00 0. -1.
         23    2    1    2    0    0 -0.75482785469E+03 -0.18357620458E+03  0.89628480252E+03  0.11897141913E+04  0.92887547848E+02 0.  0.
         11    1    3    3    0    0 -0.37162984069E+03 -0.62107733188E+02  0.37687250687E+03  0.53291556128E+03  0.00000000000E+00 0. -1.
        -11    1    3    3    0    0 -0.38319801400E+03 -0.12146847139E+03  0.51941229564E+03  0.65679862998E+03  0.00000000000E+00 0.  1.
         22    1    1    2    0    0  0.75482785469E+03  0.18357620458E+03 -0.28572327635E+04  0.29609532887E+04  0.00000000000E+00 0. -1.
<mgrwt>
<rscale>  0 0.36582405E+04</rscale>
<asrwt>0</asrwt>
<pdfrwt beam="1">  1        1 0.47012425E+00 0.36582405E+04</pdfrwt>
<pdfrwt beam="2">  1       -1 0.16843997E+00 0.36582405E+04</pdfrwt>
<totfact> 0.11058320E-01</totfact>
</mgrwt>
</event>
<event>
 6    1  0.1585031E-006  0.1738868E+04  0.7818608E-02  0.8739502E-01
         -2   -1    0    0    0  501 -0.00000000000E+00  0.00000000000E+00  0.72527867636E+03  0.72527867636E+03  0.00000000000E+00 0.  1.
          2   -1    0    0  501    0  0.00000000000E+00 -0.00000000000E+00 -0.10422416430E+04  0.10422416430E+04  0.00000000000E+00 0. -1.
         23    2    1    2    0    0  0.84343098493E+03 -0.19126172980E+03 -0.22075977020E+03  0.89734106736E+03  0.92353881412E+02 0.  0.
         11    1    3    3    0    0  0.49690879010E+03 -0.14319084882E+03 -0.96285505825E+02  0.52601602970E+03  0.00000000000E+00 0. -1.
        -11    1    3    3    0    0  0.34652219482E+03 -0.48070880984E+02 -0.12447426437E+03  0.37132503766E+03  0.00000000000E+00 0.  1.
         22    1    1    2    0    0 -0.84343098493E+03  0.19126172980E+03 -0.96203196444E+02  0.87017925201E+03  0.00000000000E+00 0. -1.
<mgrwt>
<rscale>  0 0.17388682E+04</rscale>
<asrwt>0</asrwt>
<pdfrwt beam="1">  1        2 0.16034487E+00 0.17388682E+04</pdfrwt>
<pdfrwt beam="2">  1       -2 0.11158133E+00 0.17388682E+04</pdfrwt>
<totfact> 0.14254934E+01</totfact>
</mgrwt>
</event>
<event>
 6    1  0.1585031E-006  0.2138746E+04  0.7818608E-02  0.8544365E-01
         -1   -1    0    0    0  501 -0.00000000000E+00  0.00000000000E+00  0.62538973745E+03  0.62538973745E+03  0.00000000000E+00 0.  1.
          1   -1    0    0  501    0  0.00000000000E+00 -0.00000000000E+00 -0.18285532346E+04  0.18285532346E+04  0.00000000000E+00 0. -1.
         23    2    1    2    0    0 -0.83806818864E+03 -0.46777421748E+03 -0.11386885181E+04  0.14920032492E+04  0.91055736047E+02 0.  0.
         13    1    3    3    0    0 -0.43116740918E+03 -0.19156923496E+03 -0.58124795072E+03  0.74863428104E+03  0.00000000000E+00 0. -1.
        -13    1    3    3    0    0 -0.40690077946E+03 -0.27620498253E+03 -0.55744056737E+03  0.74336896818E+03  0.00000000000E+00 0.  1.
         22    1    1    2    0    0  0.83806818864E+03  0.46777421748E+03 -0.64474979000E+02  0.96193972279E+03  0.00000000000E+00 0.  1.
<mgrwt>
<rscale>  0 0.21387458E+04</rscale>
<asrwt>0</asrwt>
<pdfrwt beam="1">  1        1 0.28131588E+00 0.21387458E+04</pdfrwt>
<pdfrwt beam="2">  1       -1 0.96213807E-01 0.21387458E+04</pdfrwt>
<totfact> 0.37153055E+00</totfact>
</mgrwt>
</event>
<event>
 6    1  0.1585031E-006  0.2583451E+04  0.7818608E-02  0.8373844E-01
         -1   -1    0    0    0  501 -0.00000000000E+00  0.00000000000E+00  0.10668989909E+04  0.10668989909E+04  0.00000000000E+00 0.  1.
          1   -1    0    0  501    0  0.00000000000E+00 -0.00000000000E+00 -0.15639299026E+04  0.15639299026E+04  0.00000000000E+00 0. -1.
         23    2    1    2    0    0  0.12117759276E+04  0.43909932150E+03 -0.19100359636E+03  0.13061169132E+04  0.90828984079E+02 0.  0.
         13    1    3    3    0    0  0.51050307073E+03  0.22324781863E+03 -0.10977163070E+03  0.56789328633E+03  0.00000000000E+00 0.  1.
        -13    1    3    3    0    0  0.70127285686E+03  0.21585150287E+03 -0.81231965662E+02  0.73822362690E+03  0.00000000000E+00 0. -1.
         22    1    1    2    0    0 -0.12117759276E+04 -0.43909932150E+03 -0.30602731531E+03  0.13247119802E+04  0.00000000000E+00 0. -1.
<mgrwt>
<rscale>  0 0.25834514E+04</rscale>
<asrwt>0</asrwt>
<pdfrwt beam="1">  1        1 0.24060460E+00 0.25834514E+04</pdfrwt>
<pdfrwt beam="2">  1       -1 0.16413831E+00 0.25834514E+04</pdfrwt>
<totfact> 0.14174837E+00</totfact>
</mgrwt>
</event>
<event>
 6    1  0.1585031E-006  0.2748840E+04  0.7818608E-02  0.8319330E-01
         -2   -1    0    0    0  501 -0.00000000000E+00  0.00000000000E+00  0.15308374939E+04  0.15308374939E+04  0.00000000000E+00 0. -1.
          2   -1    0    0  501    0  0.00000000000E+00 -0.00000000000E+00 -0.12339848370E+04  0.12339848370E+04  0.00000000000E+00 0.  1.
         23    2    1    2    0    0  0.33652009103E+02  0.13711514864E+04  0.87499861028E+02  0.13773723500E+04  0.91156505312E+02 0.  0.
         13    1    3    3    0    0  0.23885842495E+01  0.76789820528E+03  0.91196153432E+02  0.77329819436E+03  0.00000000000E+00 0. -1.
        -13    1    3    3    0    0  0.31263424853E+02  0.60325328112E+03 -0.36962924038E+01  0.60407415562E+03  0.00000000000E+00 0.  1.
         22    1    1    2    0    0 -0.33652009103E+02 -0.13711514864E+04  0.20935279580E+03  0.13874499809E+04  0.00000000000E+00 0. -1.
<mgrwt>
<rscale>  0 0.27488399E+04</rscale>
<asrwt>0</asrwt>
<pdfrwt beam="1">  1        2 0.18984382E+00 0.27488399E+04</pdfrwt>
<pdfrwt beam="2">  1       -2 0.23551346E+00 0.27488399E+04</pdfrwt>
<totfact> 0.12476591E+00</totfact>
</mgrwt>
</event>
<event>
 6    1  0.1585031E-006  0.2167738E+04  0.7818608E-02  0.8531978E-01
         -2   -1    0    0    0  501 -0.00000000000E+00  0.00000000000E+00  0.10214002413E+04  0.10214002413E+04  0.00000000000E+00 0.  1.
          2   -1    0    0  501    0  0.00000000000E+00 -0.00000000000E+00 -0.11501583072E+04  0.11501583072E+04  0.00000000000E+00 0. -1.
         23    2    1    2    0    0  0.30184396842E+03 -0.10316495942E+04  0.59689434172E+02  0.10802643045E+04  0.89428589216E+02 0.  0.
         11    1    3    3    0    0  0.11559562823E+03 -0.55251717162E+03  0.24860323399E+02  0.56502708774E+03  0.00000000000E+00 0. -1.
        -11    1    3    3    0    0  0.18624834019E+03 -0.47913242259E+03  0.34829110773E+02  0.51523721678E+03  0.00000000000E+00 0.  1.
         22    1    1    2    0    0 -0.30184396842E+03  0.10316495942E+04 -0.18844750004E+03  0.10912942439E+04  0.00000000000E+00 0. -1.
<mgrwt>
<rscale>  0 0.21677380E+04</rscale>
<asrwt>0</asrwt>
<pdfrwt beam="1">  1        2 0.17694743E+00 0.21677380E+04</pdfrwt>
<pdfrwt beam="2">  1       -2 0.15713850E+00 0.21677380E+04</pdfrwt>
<totfact> 0.49213452E+00</totfact>
</mgrwt>
</event>
<event>
 6    1  0.1585031E-006  0.1507906E+04  0.7818608E-02  0.8879213E-01
          1   -1    0    0  501    0  0.00000000000E+00  0.00000000000E+00  0.82731949398E+03  0.82731949398E+03  0.00000000000E+00 0. -1.
         -1   -1    0    0    0  501 -0.00000000000E+00 -0.00000000000E+00 -0.68709258790E+03  0.68709258790E+03  0.00000000000E+00 0.  1.
         23    2    1    2    0    0  0.80214077420E+01 -0.33555899012E+03 -0.60436995066E+03  0.69765712604E+03  0.93798984132E+02 0.  0.
         13    1    3    3    0    0 -0.32031882850E+02 -0.19498687697E+03 -0.28942310447E+03  0.35044494163E+03  0.00000000000E+00 0.  1.
        -13    1    3    3    0    0  0.40053290592E+02 -0.14057211315E+03 -0.31494684618E+03  0.34721218441E+03  0.00000000000E+00 0. -1.
         22    1    1    2    0    0 -0.80214077420E+01  0.33555899012E+03  0.74459685674E+03  0.81675495584E+03  0.00000000000E+00 0. -1.
<mgrwt>
<rscale>  0 0.15079060E+04</rscale>
<asrwt>0</asrwt>
<pdfrwt beam="1">  1        1 0.12727992E+00 0.15079060E+04</pdfrwt>
<pdfrwt beam="2">  1       -1 0.10570655E+00 0.15079060E+04</pdfrwt>
<totfact> 0.16971002E+01</totfact>
</mgrwt>
</event>
<event>
 6    1  0.1585031E-006  0.8471046E+03  0.7818608E-02  0.9494231E-01
          1   -1    0    0  501    0  0.00000000000E+00  0.00000000000E+00  0.13546268843E+04  0.13546268843E+04  0.00000000000E+00 0. -1.
         -1   -1    0    0    0  501 -0.00000000000E+00 -0.00000000000E+00 -0.13243244013E+03  0.13243244013E+03  0.00000000000E+00 0.  1.
         23    2    1    2    0    0  0.13518264155E+03 -0.37323433050E+03  0.85259200172E+03  0.94467184532E+03  0.88958203155E+02 0.  0.
         13    1    3    3    0    0  0.13497399446E+03 -0.30138361415E+03  0.74936745331E+03  0.81890270615E+03  0.00000000000E+00 0.  1.
        -13    1    3    3    0    0  0.20864708533E+00 -0.71850716354E+02  0.10322454841E+03  0.12576913918E+03  0.00000000000E+00 0. -1.
         22    1    1    2    0    0 -0.13518264155E+03  0.37323433050E+03  0.36960244248E+03  0.54238747914E+03  0.00000000000E+00 0.  1.
<mgrwt>
<rscale>  0 0.84710458E+03</rscale>
<asrwt>0</asrwt>
<pdfrwt beam="1">  1        1 0.20840413E+00 0.84710458E+03</pdfrwt>
<pdfrwt beam="2">  1       -1 0.20374223E-01 0.84710458E+03</pdfrwt>
<totfact> 0.16568419E+02</totfact>
</mgrwt>
</event>
<event>
 6    1  0.1585031E-006  0.2753445E+04  0.7818608E-02  0.8317869E-01
          2   -1    0    0  501    0  0.00000000000E+00  0.00000000000E+00  0.92950479100E+03  0.92950479100E+03  0.00000000000E+00 0. -1.
         -2   -1    0    0    0  501 -0.00000000000E+00 -0.00000000000E+00 -0.20391130791E+04  0.20391130791E+04  0.00000000000E+00 0.  1.
         23    2    1    2    0    0 -0.48202255125E+03  0.12600996507E+04 -0.84285881413E+03  0.15933534769E+04  0.90373957694E+02 0.  0.
         13    1    3    3    0    0 -0.41302198253E+03  0.98602531533E+03 -0.68423144937E+03  0.12692540159E+04  0.00000000000E+00 0.  1.
        -13    1    3    3    0    0 -0.69000568722E+02  0.27407433533E+03 -0.15862736476E+03  0.32409946100E+03  0.00000000000E+00 0. -1.
         22    1    1    2    0    0  0.48202255125E+03 -0.12600996507E+04 -0.26674947401E+03  0.13752643933E+04  0.00000000000E+00 0.  1.
<mgrwt>
<rscale>  0 0.27534454E+04</rscale>
<asrwt>0</asrwt>
<pdfrwt beam="1">  1        2 0.14300074E+00 0.27534454E+04</pdfrwt>
<pdfrwt beam="2">  1       -2 0.31370970E+00 0.27534454E+04</pdfrwt>
<totfact> 0.64064933E-01</totfact>
</mgrwt>
</event>
<event>
 6    1  0.1585031E-006  0.2417040E+04  0.7818608E-02  0.8433152E-01
         -1   -1    0    0    0  501 -0.00000000000E+00  0.00000000000E+00  0.83634741124E+03  0.83634741124E+03  0.00000000000E+00 0. -1.
          1   -1    0    0  501    0  0.00000000000E+00 -0.00000000000E+00 -0.17463077847E+04  0.17463077847E+04  0.00000000000E+00 0.  1.
         23    2    1    2    0    0  0.10371243992E+04  0.61305435938E+03 -0.53062873945E+03  0.13195815023E+04  0.90916529059E+02 0.  0.
         11    1    3    3    0    0  0.74732723486E+03  0.41948367321E+03 -0.41660119189E+03  0.95290141208E+03  0.00000000000E+00 0. -1.
        -11    1    3    3    0    0  0.28979716433E+03  0.19357068617E+03 -0.11402754756E+03  0.36668009027E+03  0.00000000000E+00 0.  1.
         22    1    1    2    0    0 -0.10371243992E+04 -0.61305435938E+03 -0.37933163405E+03  0.12630736936E+04  0.00000000000E+00 0.  1.
<mgrwt>
<rscale>  0 0.24170395E+04</rscale>
<asrwt>0</asrwt>
<pdfrwt beam="1">  1        1 0.26866273E+00 0.24170395E+04</pdfrwt>
<pdfrwt beam="2">  1       -1 0.12866883E+00 0.24170395E+04</pdfrwt>
<totfact> 0.20638773E+00</totfact>
</mgrwt>
</event>
<event>
 6    1  0.1585031E-006  0.3053174E+04  0.7818608E-02  0.8228708E-01
          2   -1    0    0  501    0  0.00000000000E+00  0.00000000000E+00  0.17106101349E+04  0.17106101349E+04  0.00000000000E+00 0. -1.
         -2   -1    0    0    0  501 -0.00000000000E+00 -0.00000000000E+00 -0.13623602685E+04  0.13623602685E+04  0.00000000000E+00 0.  1.
         23    2    1    2    0    0  0.55842257250E+03 -0.86785652789E+03  0.13046416918E+04  0.16659536848E+04  0.91109897651E+02 0.  0.
         11    1    3    3    0    0  0.34494970013E+03 -0.45410659319E+03  0.73311785897E+03  0.92879754992E+03  0.00000000000E+00 0.  1.
        -11    1    3    3    0    0  0.21347287237E+03 -0.41374993470E+03  0.57152383283E+03  0.73715613489E+03  0.00000000000E+00 0. -1.
         22    1    1    2    0    0 -0.55842257250E+03  0.86785652789E+03 -0.95639182548E+03  0.14070167186E+04  0.00000000000E+00 0.  1.
<mgrwt>
<rscale>  0 0.30531736E+04</rscale>
<asrwt>0</asrwt>
<pdfrwt beam="1">  1        2 0.26317079E+00 0.30531736E+04</pdfrwt>
<pdfrwt beam="2">  1       -2 0.20959389E+00 0.30531736E+04</pdfrwt>
<totfact> 0.94997725E-01</totfact>
</mgrwt>
</event>
<event>
 6    1  0.1585031E-006  0.1249220E+04  0.7818608E-02  0.9070832E-01
          2   -1    0    0  501    0  0.00000000000E+00  0.00000000000E+00  0.26419382950E+04  0.26419382950E+04  0.00000000000E+00 0. -1.
         -2   -1    0    0    0  501 -0.00000000000E+00 -0.00000000000E+00 -0.14767110808E+03  0.14767110808E+03  0.00000000000E+00 0.  1.
         23    2    1    2    0    0  0.36224414107E+03 -0.47848453933E+03  0.89423687551E+03  0.10807310371E+04  0.90286837346E+02 0.  0.
         13    1    3    3    0    0  0.14437737858E+03 -0.12599192861E+03  0.31037056291E+03  0.36475838557E+03  0.00000000000E+00 0. -1.
        -13    1    3    3    0    0  0.21786676249E+03 -0.35249261072E+03  0.58386631260E+03  0.71597265157E+03  0.00000000000E+00 0.  1.
         22    1    1    2    0    0 -0.36224414107E+03  0.47848453933E+03  0.16000303114E+04  0.17088783659E+04  0.00000000000E+00 0. -1.
<mgrwt>
<rscale>  0 0.12492205E+04</rscale>
<asrwt>0</asrwt>
<pdfrwt beam="1">  1        2 0.40645201E+00 0.12492205E+04</pdfrwt>
<pdfrwt beam="2">  1       -2 0.22718634E-01 0.12492205E+04</pdfrwt>
<totfact> 0.48557306E+01</totfact>
</mgrwt>
</event>
<event>
 6    1  0.1585031E-006  0.2043001E+04  0.7818608E-02  0.8586776E-01
          2   -1    0    0  501    0  0.00000000000E+00  0.00000000000E+00  0.12406240850E+04  0.12406240850E+04  0.00000000000E+00 0.  1.
         -2   -1    0    0    0  501 -0.00000000000E+00 -0.00000000000E+00 -0.84107909103E+03  0.84107909103E+03  0.00000000000E+00 0. -1.
         23    2    1    2    0    0  0.40988658281E+03  0.34220596034E+03 -0.68446498906E+03  0.87332013519E+03  0.95309009153E+02 0.  0.
         11    1    3    3    0    0  0.34375053294E+03  0.29010790237E+03 -0.51280805573E+03  0.68212837936E+03  0.00000000000E+00 0. -1.
        -11    1    3    3    0    0  0.66136049878E+02  0.52098057968E+02 -0.17165693333E+03  0.19119175583E+03  0.00000000000E+00 0.  1.
         22    1    1    2    0    0 -0.40988658281E+03 -0.34220596034E+03  0.10840099830E+04  0.12083830408E+04  0.00000000000E+00 0.  1.
<mgrwt>
<rscale>  0 0.20430007E+04</rscale>
<asrwt>0</asrwt>
<pdfrwt beam="1">  1        2 0.19086524E+00 0.20430007E+04</pdfrwt>
<pdfrwt beam="2">  1       -2 0.12939678E+00 0.20430007E+04</pdfrwt>
<totfact> 0.72899319E+00</totfact>
</mgrwt>
</event>
<event>
 6    1  0.1585031E-006  0.2044378E+04  0.7818608E-02  0.8586149E-01
          2   -1    0    0  501    0  0.00000000000E+00  0.00000000000E+00  0.19120346329E+04  0.19120346329E+04  0.00000000000E+00 0. -1.
         -2   -1    0    0    0  501 -0.00000000000E+00 -0.00000000000E+00 -0.54647060032E+03  0.54647060032E+03  0.00000000000E+00 0.  1.
         23    2    1    2    0    0 -0.85222150894E+03  0.50536241796E+03  0.97625434011E+03  0.13939702594E+04  0.91694458524E+02 0.  0.
         11    1    3    3    0    0 -0.37396540163E+03  0.17615616531E+03  0.43761413379E+03  0.60198608479E+03  0.00000000000E+00 0. -1.
        -11    1    3    3    0    0 -0.47825610732E+03  0.32920625265E+03  0.53864020632E+03  0.79198417461E+03  0.00000000000E+00 0.  1.
         22    1    1    2    0    0  0.85222150894E+03 -0.50536241796E+03  0.38930969243E+03  0.10645349738E+04  0.00000000000E+00 0.  1.
<mgrwt>
<rscale>  0 0.20443784E+04</rscale>
<asrwt>0</asrwt>
<pdfrwt beam="1">  1        2 0.29415917E+00 0.20443784E+04</pdfrwt>
<pdfrwt beam="2">  1       -2 0.84072401E-01 0.20443784E+04</pdfrwt>
<totfact> 0.85508533E+00</totfact>
</mgrwt>
</event>
<event>
 6    1  0.1585031E-006  0.2308104E+04  0.7818608E-02  0.8474733E-01
          1   -1    0    0  501    0  0.00000000000E+00  0.00000000000E+00  0.81561431264E+03  0.81561431264E+03  0.00000000000E+00 0. -1.
         -1   -1    0    0    0  501 -0.00000000000E+00 -0.00000000000E+00 -0.16329239553E+04  0.16329239553E+04  0.00000000000E+00 0.  1.
         23    2    1    2    0    0 -0.53156946594E+03 -0.89455873482E+03 -0.93416944263E+03  0.14014195354E+04  0.92210300412E+02 0.  0.
         13    1    3    3    0    0 -0.27140980347E+03 -0.47059865744E+03 -0.42644361923E+03  0.69063777640E+03  0.00000000000E+00 0.  1.
        -13    1    3    3    0    0 -0.26015966247E+03 -0.42396007738E+03 -0.50772582340E+03  0.71078175900E+03  0.00000000000E+00 0. -1.
         22    1    1    2    0    0  0.53156946594E+03  0.89455873482E+03  0.11685979998E+03  0.10471187325E+04  0.00000000000E+00 0. -1.
<mgrwt>
<rscale>  0 0.23081041E+04</rscale>
<asrwt>0</asrwt>
<pdfrwt beam="1">  1        1 0.12547913E+00 0.23081041E+04</pdfrwt>
<pdfrwt beam="2">  1       -1 0.25121907E+00 0.23081041E+04</pdfrwt>
<totfact> 0.13249200E+00</totfact>
</mgrwt>
</event>
<event>
 6    1  0.1585031E-006  0.2798719E+04  0.7818608E-02  0.8303666E-01
          2   -1    0    0  501    0  0.00000000000E+00  0.00000000000E+00  0.22626012871E+04  0.22626012871E+04  0.00000000000E+00 0. -1.
         -2   -1    0    0    0  501 -0.00000000000E+00 -0.00000000000E+00 -0.86546708807E+03  0.86546708807E+03  0.00000000000E+00 0.  1.
         23    2    1    2    0    0  0.37667560508E+03 -0.34278904685E+03  0.21543550821E+04  0.22155047841E+04  0.88469127030E+02 0.  0.
         11    1    3    3    0    0  0.17679122384E+03 -0.21502813435E+03  0.12417962255E+04  0.12726154568E+04  0.00000000000E+00 0. -1.
        -11    1    3    3    0    0  0.19988438124E+03 -0.12776091250E+03  0.91255885661E+03  0.94288932723E+03  0.00000000000E+00 0.  1.
         22    1    1    2    0    0 -0.37667560508E+03  0.34278904685E+03 -0.75722088304E+03  0.91256359111E+03  0.00000000000E+00 0.  1.
<mgrwt>
<rscale>  0 0.27987190E+04</rscale>
<asrwt>0</asrwt>
<pdfrwt beam="1">  1        2 0.34809250E+00 0.27987190E+04</pdfrwt>
<pdfrwt beam="2">  1       -2 0.13314878E+00 0.27987190E+04</pdfrwt>
<totfact> 0.16928502E+00</totfact>
</mgrwt>
</event>
<event>
 6    1  0.1585031E-006  0.2910789E+04  0.7818608E-02  0.8269675E-01
          2   -1    0    0  501    0  0.00000000000E+00  0.00000000000E+00  0.38192640571E+04  0.38192640571E+04  0.00000000000E+00 0. -1.
         -2   -1    0    0    0  501 -0.00000000000E+00 -0.00000000000E+00 -0.55460227451E+03  0.55460227451E+03  0.00000000000E+00 0.  1.
         23    2    1    2    0    0 -0.72275741653E+03 -0.11761910597E+04  0.94786066323E+03  0.16769475122E+04  0.88934973587E+02 0.  0.
         13    1    3    3    0    0 -0.22118174486E+03 -0.30918484381E+03  0.29704090572E+03  0.48244163541E+03  0.00000000000E+00 0. -1.
        -13    1    3    3    0    0 -0.50157567166E+03 -0.86700621590E+03  0.65081975750E+03  0.11945058767E+04  0.00000000000E+00 0.  1.
         22    1    1    2    0    0  0.72275741653E+03  0.11761910597E+04  0.23168011194E+04  0.26969188195E+04  0.00000000000E+00 0. -1.
<mgrwt>
<rscale>  0 0.29107886E+04</rscale>
<asrwt>0</asrwt>
<pdfrwt beam="1">  1        2 0.58757907E+00 0.29107886E+04</pdfrwt>
<pdfrwt beam="2">  1       -2 0.85323429E-01 0.29107886E+04</pdfrwt>
<totfact> 0.48889928E-01</totfact>
</mgrwt>
</event>
<event>
 6    1  0.1585031E-006  0.1872444E+04  0.7818608E-02  0.8668696E-01
         -1   -1    0    0    0  501 -0.00000000000E+00  0.00000000000E+00  0.10933742531E+04  0.10933742531E+04  0.00000000000E+00 0.  1.
          1   -1    0    0  501    0  0.00000000000E+00 -0.00000000000E+00 -0.80165709353E+03  0.80165709353E+03  0.00000000000E+00 0. -1.
         23    2    1    2    0    0  0.79823916861E+02 -0.82659098276E+03  0.57857454328E+03  0.10164463086E+04  0.93755456726E+02 0.  0.
         11    1    3    3    0    0  0.52484387469E+02 -0.74269582268E+03  0.48937003627E+03  0.89097403350E+03  0.00000000000E+00 0. -1.
        -11    1    3    3    0    0  0.27339529392E+02 -0.83895160079E+02  0.89204507008E+02  0.12547227511E+03  0.00000000000E+00 0.  1.
         22    1    1    2    0    0 -0.79823916861E+02  0.82659098276E+03 -0.28685738369E+03  0.87858503804E+03  0.00000000000E+00 0. -1.
<mgrwt>
<rscale>  0 0.18724436E+04</rscale>
<asrwt>0</asrwt>
<pdfrwt beam="1">  1        1 0.12333186E+00 0.18724436E+04</pdfrwt>
<pdfrwt beam="2">  1       -1 0.16821142E+00 0.18724436E+04</pdfrwt>
<totfact> 0.52418595E+00</totfact>
</mgrwt>
</event>
<event>
 6    1  0.1585031E-006  0.6247756E+03  0.7818608E-02  0.9855297E-01
          2   -1    0    0  501    0  0.00000000000E+00  0.00000000000E+00  0.45726632718E+03  0.45726632718E+03  0.00000000000E+00 0. -1.
         -2   -1    0    0    0  501 -0.00000000000E+00 -0.00000000000E+00 -0.21341203255E+03  0.21341203255E+03  0.00000000000E+00 0.  1.
         23    2    1    2    0    0  0.43560642268E+01  0.29957926866E+03  0.60215538901E+02  0.31926705354E+03  0.92405772777E+02 0.  0.
         13    1    3    3    0    0 -0.24669158449E+02  0.24094758072E+03  0.72235131812E+02  0.25274931909E+03  0.00000000000E+00 0. -1.
        -13    1    3    3    0    0  0.29025222675E+02  0.58631687943E+02 -0.12019592910E+02  0.66517734448E+02  0.00000000000E+00 0.  1.
         22    1    1    2    0    0 -0.43560642268E+01 -0.29957926866E+03  0.18363875573E+03  0.35141130618E+03  0.00000000000E+00 0. -1.
<mgrwt>
<rscale>  0 0.62477560E+03</rscale>
<asrwt>0</asrwt>
<pdfrwt beam="1">  1        2 0.70348666E-01 0.62477560E+03</pdfrwt>
<pdfrwt beam="2">  1       -2 0.32832620E-01 0.62477560E+03</pdfrwt>
<totfact> 0.59467435E+02</totfact>
</mgrwt>
</event>
<event>
 6    1  0.1585031E-006  0.1931799E+04  0.7818608E-02  0.8639188E-01
         -1   -1    0    0    0  501 -0.00000000000E+00  0.00000000000E+00  0.15551224483E+04  0.15551224483E+04  0.00000000000E+00 0.  1.
          1   -1    0    0  501    0  0.00000000000E+00 -0.00000000000E+00 -0.59992810621E+03  0.59992810621E+03  0.00000000000E+00 0. -1.
         23    2    1    2    0    0  0.50031632590E+03 -0.25200378881E+03  0.13533271037E+04  0.14677863903E+04  0.95290621095E+02 0.  0.
         13    1    3    3    0    0  0.39572797473E+03 -0.23332007491E+03  0.11503139278E+04  0.12386529053E+04  0.00000000000E+00 0. -1.
        -13    1    3    3    0    0  0.10458835116E+03 -0.18683713901E+02  0.20301317590E+03  0.22913348501E+03  0.00000000000E+00 0.  1.
         22    1    1    2    0    0 -0.50031632590E+03  0.25200378881E+03 -0.39813276160E+03  0.68726416420E+03  0.00000000000E+00 0. -1.
<mgrwt>
<rscale>  0 0.19317988E+04</rscale>
<asrwt>0</asrwt>
<pdfrwt beam="1">  1        1 0.92296632E-01 0.19317988E+04</pdfrwt>
<pdfrwt beam="2">  1       -1 0.23924961E+00 0.19317988E+04</pdfrwt>
<totfact> 0.26207506E+00</totfact>
</mgrwt>
</event>
<event>
 6    1  0.1585031E-006  0.3001542E+03  0.7818608E-02  0.1085164E+00
          2   -1    0    0  501    0  0.00000000000E+00  0.00000000000E+00  0.14184721942E+03  0.14184721942E+03  0.00000000000E+00 0. -1.
         -2   -1    0    0    0  501 -0.00000000000E+00 -0.00000000000E+00 -0.15878444913E+03  0.15878444913E+03  0.00000000000E+00 0.  1.
         23    2    1    2    0    0  0.21461853815E+02  0.12738053332E+03 -0.53764368768E+02  0.16630873823E+03  0.89897595214E+02 0.  0.
         11    1    3    3    0    0 -0.48560248376E+01 -0.99660929349E+01 -0.19334566684E+02  0.22287428171E+02  0.00000000000E+00 0. -1.
        -11    1    3    3    0    0  0.26317878653E+02  0.13734662625E+03 -0.34429802084E+02  0.14402131006E+03  0.00000000000E+00 0.  1.
         22    1    1    2    0    0 -0.21461853815E+02 -0.12738053332E+03  0.36827139053E+02  0.13432293032E+03  0.00000000000E+00 0. -1.
<mgrwt>
<rscale>  0 0.30015418E+03</rscale>
<asrwt>0</asrwt>
<pdfrwt beam="1">  1        2 0.21822649E-01 0.30015418E+03</pdfrwt>
<pdfrwt beam="2">  1       -2 0.24428377E-01 0.30015418E+03</pdfrwt>
<totfact> 0.37132035E+03</totfact>
</mgrwt>
</event>
<event>
 6    1  0.1585031E-006  0.2289043E+04  0.7818608E-02  0.8482254E-01
         -2   -1    0    0    0  501 -0.00000000000E+00  0.00000000000E+00  0.54340484679E+03  0.54340484679E+03  0.00000000000E+00 0.  1.
          2   -1    0    0  501    0  0.00000000000E+00 -0.00000000000E+00 -0.24105953051E+04  0.24105953051E+04  0.00000000000E+00 0. -1.
         23    2    1    2    0    0 -0.85038164939E+03  0.53104951209E+03 -0.22753615226E+03  0.10321185798E+04  0.91288160372E+02 0.  0.
         13    1    3    3    0    0 -0.72398411024E+03  0.42441445679E+03 -0.16476574289E+03  0.85523585814E+03  0.00000000000E+00 0.  1.
        -13    1    3    3    0    0 -0.12639753915E+03  0.10663505530E+03 -0.62770409369E+02  0.17688272164E+03  0.00000000000E+00 0. -1.
         22    1    1    2    0    0  0.85038164939E+03 -0.53104951209E+03 -0.16396543061E+04  0.19218815722E+04  0.00000000000E+00 0. -1.
<mgrwt>
<rscale>  0 0.22890427E+04</rscale>
<asrwt>0</asrwt>
<pdfrwt beam="1">  1        2 0.37086082E+00 0.22890427E+04</pdfrwt>
<pdfrwt beam="2">  1       -2 0.83600744E-01 0.22890427E+04</pdfrwt>
<totfact> 0.44508613E+00</totfact>
</mgrwt>
</event>
<event>
 6    1  0.1599948E-006  0.2316469E+04  0.7818608E-02  0.8471456E-01
         -1   -1    0    0    0  501 -0.00000000000E+00  0.00000000000E+00  0.62001934855E+03  0.62001934855E+03  0.00000000000E+00 0.  1.
          1   -1    0    0  501    0  0.00000000000E+00 -0.00000000000E+00 -0.21636541041E+04  0.21636541041E+04  0.00000000000E+00 0. -1.
         23    2    1    2    0    0 -0.49876212198E+03  0.35800657941E+03 -0.19507702096E+04  0.20469973752E+04  0.88099251206E+02 0.  0.
         13    1    3    3    0    0 -0.12964049014E+03  0.11564273040E+03 -0.67373394370E+03  0.69577102891E+03  0.00000000000E+00 0.  1.
        -13    1    3    3    0    0 -0.36912163183E+03  0.24236384901E+03 -0.12770362659E+04  0.13512263462E+04  0.00000000000E+00 0. -1.
         22    1    1    2    0    0  0.49876212198E+03 -0.35800657941E+03  0.40713545403E+03  0.73667607749E+03  0.00000000000E+00 0.  1.
<mgrwt>
<rscale>  0 0.23164692E+04</rscale>
<asrwt>0</asrwt>
<pdfrwt beam="1">  1        1 0.33286986E+00 0.23164692E+04</pdfrwt>
<pdfrwt beam="2">  1       -1 0.95387592E-01 0.23164692E+04</pdfrwt>
<totfact> 0.22083260E+00</totfact>
</mgrwt>
</event>
<event>
 6    1  0.1585031E-006  0.5217565E+04  0.7818608E-02  0.7795795E-01
         -2   -1    0    0    0  501 -0.00000000000E+00  0.00000000000E+00  0.19165789172E+04  0.19165789172E+04  0.00000000000E+00 0.  1.
          2   -1    0    0  501    0  0.00000000000E+00 -0.00000000000E+00 -0.35509864060E+04  0.35509864060E+04  0.00000000000E+00 0. -1.
         23    2    1    2    0    0  0.18442817878E+04 -0.15612187657E+04  0.21110726263E+03  0.24270548324E+04  0.85144208516E+02 0.  0.
         11    1    3    3    0    0  0.13102566985E+04 -0.10982000200E+04  0.18727480853E+03  0.17198510848E+04  0.00000000000E+00 0.  1.
        -11    1    3    3    0    0  0.53402508930E+03 -0.46301874567E+03  0.23832454109E+02  0.70720374767E+03  0.00000000000E+00 0. -1.
         22    1    1    2    0    0 -0.18442817878E+04  0.15612187657E+04 -0.18455147514E+04  0.30405104908E+04  0.00000000000E+00 0.  1.
<mgrwt>
<rscale>  0 0.52175648E+04</rscale>
<asrwt>0</asrwt>
<pdfrwt beam="1">  1        2 0.54630560E+00 0.52175648E+04</pdfrwt>
<pdfrwt beam="2">  1       -2 0.29485830E+00 0.52175648E+04</pdfrwt>
<totfact> 0.18258827E-02</totfact>
</mgrwt>
</event>
<event>
 6    1  0.1585031E-006  0.4992198E+04  0.7818608E-02  0.7829712E-01
         -1   -1    0    0    0  501 -0.00000000000E+00  0.00000000000E+00  0.14444832721E+04  0.14444832721E+04  0.00000000000E+00 0.  1.
          1   -1    0    0  501    0  0.00000000000E+00 -0.00000000000E+00 -0.43133144065E+04  0.43133144065E+04  0.00000000000E+00 0. -1.
         23    2    1    2    0    0 -0.82065481749E+02 -0.13534546087E+04  0.97994238998E+03  0.16771565815E+04  0.11829197068E+03 0.  0.
         13    1    3    3    0    0 -0.14165217139E+02 -0.68479845372E+02  0.83505443073E+02  0.10891878452E+03  0.00000000000E+00 0.  1.
        -13    1    3    3    0    0 -0.67900264610E+02 -0.12849747633E+04  0.89643694691E+03  0.15682377970E+04  0.00000000000E+00 0. -1.
         22    1    1    2    0    0  0.82065481749E+02  0.13534546087E+04 -0.38487735244E+04  0.40806410970E+04  0.00000000000E+00 0. -1.
<mgrwt>
<rscale>  0 0.49921981E+04</rscale>
<asrwt>0</asrwt>
<pdfrwt beam="1">  1        1 0.66358684E+00 0.49921981E+04</pdfrwt>
<pdfrwt beam="2">  1       -1 0.22222819E+00 0.49921981E+04</pdfrwt>
<totfact> 0.37728419E-03</totfact>
</mgrwt>
</event>
<event>
 6    1  0.1585031E-006  0.9787207E+03  0.7818608E-02  0.9332196E-01
         -3   -1    0    0    0  501 -0.00000000000E+00  0.00000000000E+00  0.45320521060E+03  0.45320521060E+03  0.00000000000E+00 0.  1.
          3   -1    0    0  501    0  0.00000000000E+00 -0.00000000000E+00 -0.52839980977E+03  0.52839980977E+03  0.00000000000E+00 0. -1.
         23    2    1    2    0    0  0.13013882165E+03 -0.30596245371E+03  0.31570063110E+03  0.46843037462E+03  0.95973910069E+02 0.  0.
         13    1    3    3    0    0  0.31778571681E+02 -0.16587027614E+03  0.11339182570E+03  0.20342205451E+03  0.00000000000E+00 0.  1.
        -13    1    3    3    0    0  0.98360249966E+02 -0.14009217758E+03  0.20230880539E+03  0.26500832012E+03  0.00000000000E+00 0. -1.
         22    1    1    2    0    0 -0.13013882165E+03  0.30596245371E+03 -0.39089523027E+03  0.51317464574E+03  0.00000000000E+00 0. -1.
<mgrwt>
<rscale>  0 0.97872069E+03</rscale>
<asrwt>0</asrwt>
<pdfrwt beam="1">  1        3 0.81292279E-01 0.97872069E+03</pdfrwt>
<pdfrwt beam="2">  1       -3 0.69723878E-01 0.97872069E+03</pdfrwt>
<totfact> 0.72375818E+00</totfact>
</mgrwt>
</event>
<event>
 6    1  0.1585031E-006  0.3739412E+04  0.7818608E-02  0.8059283E-01
          2   -1    0    0  501    0  0.00000000000E+00  0.00000000000E+00  0.34188661091E+04  0.34188661091E+04  0.00000000000E+00 0. -1.
         -2   -1    0    0    0  501 -0.00000000000E+00 -0.00000000000E+00 -0.10225026356E+04  0.10225026356E+04  0.00000000000E+00 0.  1.
         23    2    1    2    0    0 -0.89572427701E+03 -0.91421582666E+03 -0.41805699844E+03  0.13495933404E+04  0.92292861365E+02 0.  0.
         13    1    3    3    0    0 -0.28984785598E+03 -0.23837501420E+03 -0.13495852344E+03  0.39880851302E+03  0.00000000000E+00 0. -1.
        -13    1    3    3    0    0 -0.60587642103E+03 -0.67584081245E+03 -0.28309847500E+03  0.95078482733E+03  0.00000000000E+00 0.  1.
         22    1    1    2    0    0  0.89572427701E+03  0.91421582666E+03  0.28144204719E+04  0.30917754043E+04  0.00000000000E+00 0. -1.
<mgrwt>
<rscale>  0 0.37394115E+04</rscale>
<asrwt>0</asrwt>
<pdfrwt beam="1">  1        2 0.52597940E+00 0.37394115E+04</pdfrwt>
<pdfrwt beam="2">  1       -2 0.15730810E+00 0.37394115E+04</pdfrwt>
<totfact> 0.19640210E-01</totfact>
</mgrwt>
</event>
<event>
 6    1  0.1585031E-006  0.3359310E+04  0.7818608E-02  0.8147966E-01
          2   -1    0    0  501    0  0.00000000000E+00  0.00000000000E+00  0.14827840436E+04  0.14827840436E+04  0.00000000000E+00 0. -1.
         -2   -1    0    0    0  501 -0.00000000000E+00 -0.00000000000E+00 -0.19026649297E+04  0.19026649297E+04  0.00000000000E+00 0.  1.
         23    2    1    2    0    0 -0.20612947726E+03 -0.10009665548E+04 -0.15518510496E+04  0.18603982016E+04  0.91740847886E+02 0.  0.
         13    1    3    3    0    0 -0.16746966270E+03 -0.70522174789E+03 -0.10330759025E+04  0.12619943034E+04  0.00000000000E+00 0.  1.
        -13    1    3    3    0    0 -0.38659814564E+02 -0.29574480693E+03 -0.51877514714E+03  0.59840389820E+03  0.00000000000E+00 0. -1.
         22    1    1    2    0    0  0.20612947726E+03  0.10009665548E+04  0.11319701635E+04  0.15250507717E+04  0.00000000000E+00 0. -1.
<mgrwt>
<rscale>  0 0.33593102E+04</rscale>
<asrwt>0</asrwt>
<pdfrwt beam="1">  1        2 0.22812062E+00 0.33593102E+04</pdfrwt>
<pdfrwt beam="2">  1       -2 0.29271768E+00 0.33593102E+04</pdfrwt>
<totfact> 0.37996885E-01</totfact>
</mgrwt>
</event>
<event>
 6    1  0.1585031E-006  0.2429981E+04  0.7818608E-02  0.8428364E-01
         -1   -1    0    0    0  501 -0.00000000000E+00  0.00000000000E+00  0.10139932348E+04  0.10139932348E+04  0.00000000000E+00 0.  1.
          1   -1    0    0  501    0  0.00000000000E+00 -0.00000000000E+00 -0.14558306845E+04  0.14558306845E+04  0.00000000000E+00 0. -1.
         23    2    1    2    0    0 -0.10649808210E+04  0.37688558646E+03 -0.67108697627E+03  0.13170957468E+04  0.90313798191E+02 0.  0.
         13    1    3    3    0    0 -0.23048349247E+03  0.51473220531E+02 -0.16755396899E+03  0.28956254119E+03  0.00000000000E+00 0. -1.
        -13    1    3    3    0    0 -0.83449732851E+03  0.32541236593E+03 -0.50353300727E+03  0.10275332056E+04  0.00000000000E+00 0.  1.
         22    1    1    2    0    0  0.10649808210E+04 -0.37688558646E+03  0.22924952658E+03  0.11527281726E+04  0.00000000000E+00 0.  1.
<mgrwt>
<rscale>  0 0.24299815E+04</rscale>
<asrwt>0</asrwt>
<pdfrwt beam="1">  1        1 0.22397395E+00 0.24299815E+04</pdfrwt>
<pdfrwt beam="2">  1       -1 0.15599896E+00 0.24299815E+04</pdfrwt>
<totfact> 0.19677209E+00</totfact>
</mgrwt>
</event>
<event>
 6    1  0.1585031E-006  0.1752753E+04  0.7818608E-02  0.8731837E-01
          1   -1    0    0  501    0  0.00000000000E+00  0.00000000000E+00  0.27142806804E+04  0.27142806804E+04  0.00000000000E+00 0. -1.
         -1   -1    0    0    0  501 -0.00000000000E+00 -0.00000000000E+00 -0.28296096769E+03  0.28296096769E+03  0.00000000000E+00 0.  1.
         23    2    1    2    0    0  0.47066261537E+02 -0.66571961442E+03  0.21839751080E+04  0.22854992850E+04  0.91443267104E+02 0.  0.
         13    1    3    3    0    0  0.16841457532E+02 -0.43553048907E+03  0.15595543166E+04  0.16193147032E+04  0.00000000000E+00 0.  1.
        -13    1    3    3    0    0  0.30224804004E+02 -0.23018912535E+03  0.62442079148E+03  0.66618458181E+03  0.00000000000E+00 0. -1.
         22    1    1    2    0    0 -0.47066261537E+02  0.66571961442E+03  0.24734460468E+03  0.71174236313E+03  0.00000000000E+00 0.  1.
<mgrwt>
<rscale>  0 0.17527527E+04</rscale>
<asrwt>0</asrwt>
<pdfrwt beam="1">  1        1 0.41758163E+00 0.17527527E+04</pdfrwt>
<pdfrwt beam="2">  1       -1 0.43532458E-01 0.17527527E+04</pdfrwt>
<totfact> 0.47425640E+00</totfact>
</mgrwt>
</event>
<event>
 6    1  0.1585031E-006  0.2804283E+04  0.7818608E-02  0.8301940E-01
          2   -1    0    0  501    0  0.00000000000E+00  0.00000000000E+00  0.26545234801E+04  0.26545234801E+04  0.00000000000E+00 0. -1.
         -2   -1    0    0    0  501 -0.00000000000E+00 -0.00000000000E+00 -0.74062285025E+03  0.74062285025E+03  0.00000000000E+00 0.  1.
         23    2    1    2    0    0  0.94693659722E+03  0.27561688498E+03 -0.24584461915E+03  0.10208773635E+04  0.95380438616E+02 0.  0.
         11    1    3    3    0    0  0.73033790207E+03  0.18093132039E+03 -0.21467046225E+03  0.78244041388E+03  0.00000000000E+00 0. -1.
        -11    1    3    3    0    0  0.21659869515E+03  0.94685564589E+02 -0.31174156902E+02  0.23843694961E+03  0.00000000000E+00 0.  1.
         22    1    1    2    0    0 -0.94693659722E+03 -0.27561688498E+03  0.21597452490E+04  0.23742689669E+04  0.00000000000E+00 0. -1.
<mgrwt>
<rscale>  0 0.28042830E+04</rscale>
<asrwt>0</asrwt>
<pdfrwt beam="1">  1        2 0.40838822E+00 0.28042830E+04</pdfrwt>
<pdfrwt beam="2">  1       -2 0.11394198E+00 0.28042830E+04</pdfrwt>
<totfact> 0.14820817E+00</totfact>
</mgrwt>
</event>
<event>
 6    1  0.1585031E-006  0.1603137E+04  0.7818608E-02  0.8818623E-01
         -1   -1    0    0    0  501 -0.00000000000E+00  0.00000000000E+00  0.14195406766E+04  0.14195406766E+04  0.00000000000E+00 0.  1.
          1   -1    0    0  501    0  0.00000000000E+00 -0.00000000000E+00 -0.45261942157E+03  0.45261942157E+03  0.00000000000E+00 0. -1.
         23    2    1    2    0    0 -0.61930301381E+03  0.11434075805E+03 -0.89300554120E+02  0.64243877121E+03  0.90238317406E+02 0.  0.
         11    1    3    3    0    0 -0.45230061552E+03  0.11010637475E+03 -0.35190079740E+02  0.46683787579E+03  0.00000000000E+00 0. -1.
        -11    1    3    3    0    0 -0.16700239828E+03  0.42343833060E+01 -0.54110474380E+02  0.17560089542E+03  0.00000000000E+00 0.  1.
         22    1    1    2    0    0  0.61930301381E+03 -0.11434075805E+03  0.10562218092E+04  0.12297213270E+04  0.00000000000E+00 0.  1.
<mgrwt>
<rscale>  0 0.16031365E+04</rscale>
<asrwt>0</asrwt>
<pdfrwt beam="1">  1        1 0.69633758E-01 0.16031365E+04</pdfrwt>
<pdfrwt beam="2">  1       -1 0.21839087E+00 0.16031365E+04</pdfrwt>
<totfact> 0.54976759E+00</totfact>
</mgrwt>
</event>
<event>
 6    1  0.1585031E-006  0.5900074E+04  0.7818608E-02  0.7702916E-01
         -2   -1    0    0    0  501 -0.00000000000E+00  0.00000000000E+00  0.49685478052E+04  0.49685478052E+04  0.00000000000E+00 0.  1.
          2   -1    0    0  501    0  0.00000000000E+00 -0.00000000000E+00 -0.17515619973E+04  0.17515619973E+04  0.00000000000E+00 0. -1.
         23    2    1    2    0    0 -0.29170809197E+04 -0.36582559423E+03  0.18772542781E+04  0.34893095875E+04  0.89489193433E+02 0.  0.
         13    1    3    3    0    0 -0.17028201000E+04 -0.17555336036E+03  0.11199002715E+04  0.20456275060E+04  0.00000000000E+00 0. -1.
        -13    1    3    3    0    0 -0.12142608197E+04 -0.19027223387E+03  0.75735400656E+03  0.14436820815E+04  0.00000000000E+00 0.  1.
         22    1    1    2    0    0  0.29170809197E+04  0.36582559423E+03  0.13397315298E+04  0.32308002150E+04  0.00000000000E+00 0. -1.
<mgrwt>
<rscale>  0 0.59000744E+04</rscale>
<asrwt>0</asrwt>
<pdfrwt beam="1">  1        2 0.26947108E+00 0.59000744E+04</pdfrwt>
<pdfrwt beam="2">  1       -2 0.76439197E+00 0.59000744E+04</pdfrwt>
<totfact> 0.77142384E-04</totfact>
</mgrwt>
</event>
<event>
 6    1  0.1585031E-006  0.1273205E+04  0.7818608E-02  0.9051088E-01
         -2   -1    0    0    0  501 -0.00000000000E+00  0.00000000000E+00  0.24991267240E+03  0.24991267240E+03  0.00000000000E+00 0. -1.
          2   -1    0    0  501    0  0.00000000000E+00 -0.00000000000E+00 -0.16216173894E+04  0.16216173894E+04  0.00000000000E+00 0.  1.
         23    2    1    2    0    0  0.39454974949E+03 -0.45202894821E+03 -0.39138636177E+03  0.72217208777E+03  0.91375956027E+02 0.  0.
         11    1    3    3    0    0  0.26400335920E+03 -0.26149123949E+03 -0.28275027160E+03  0.46692950012E+03  0.00000000000E+00 0. -1.
        -11    1    3    3    0    0  0.13054639029E+03 -0.19053770872E+03 -0.10863609017E+03  0.25524258765E+03  0.00000000000E+00 0.  1.
         22    1    1    2    0    0 -0.39454974949E+03  0.45202894821E+03 -0.98031835518E+03  0.11493579740E+04  0.00000000000E+00 0.  1.
<mgrwt>
<rscale>  0 0.12732050E+04</rscale>
<asrwt>0</asrwt>
<pdfrwt beam="1">  1        2 0.24947960E+00 0.12732050E+04</pdfrwt>
<pdfrwt beam="2">  1       -2 0.38448104E-01 0.12732050E+04</pdfrwt>
<totfact> 0.68027701E+01</totfact>
</mgrwt>
</event>
<event>
 6    1  0.1585031E-006  0.1236897E+04  0.7818608E-02  0.9081160E-01
         -2   -1    0    0    0  501 -0.00000000000E+00  0.00000000000E+00  0.27355970673E+03  0.27355970673E+03  0.00000000000E+00 0.  1.
          2   -1    0    0  501    0  0.00000000000E+00 -0.00000000000E+00 -0.13981532692E+04  0.13981532692E+04  0.00000000000E+00 0. -1.
         23    2    1    2    0    0 -0.56795756521E+03  0.23586592367E+03 -0.57462745256E+03  0.84668494497E+03  0.92033455645E+02 0.  0.
         11    1    3    3    0    0 -0.10049644409E+03  0.17353755319E+02 -0.13224593981E+03  0.16700202601E+03  0.00000000000E+00 0. -1.
        -11    1    3    3    0    0 -0.46746112113E+03  0.21851216836E+03 -0.44238151276E+03  0.67968291895E+03  0.00000000000E+00 0.  1.
         22    1    1    2    0    0  0.56795756521E+03 -0.23586592367E+03 -0.54996610991E+03  0.82502803097E+03  0.00000000000E+00 0.  1.
<mgrwt>
<rscale>  0 0.12368968E+04</rscale>
<asrwt>0</asrwt>
<pdfrwt beam="1">  1        2 0.21510051E+00 0.12368968E+04</pdfrwt>
<pdfrwt beam="2">  1       -2 0.42086108E-01 0.12368968E+04</pdfrwt>
<totfact> 0.76365158E+01</totfact>
</mgrwt>
</event>
<event>
 6    1  0.1585031E-006  0.4301303E+04  0.7818608E-02  0.7946377E-01
          2   -1    0    0  501    0  0.00000000000E+00  0.00000000000E+00  0.27533626484E+04  0.27533626484E+04  0.00000000000E+00 0. -1.
         -2   -1    0    0    0  501 -0.00000000000E+00 -0.00000000000E+00 -0.16798741032E+04  0.16798741032E+04  0.00000000000E+00 0.  1.
         23    2    1    2    0    0  0.21280717149E+03  0.84043635400E+03  0.25644469739E+04  0.27085404904E+04  0.90460760503E+02 0.  0.
         13    1    3    3    0    0  0.18473788526E+03  0.56526344197E+03  0.17126636811E+04  0.18129720708E+04  0.00000000000E+00 0.  1.
        -13    1    3    3    0    0  0.28069286236E+02  0.27517291203E+03  0.85178329280E+03  0.89556841963E+03  0.00000000000E+00 0. -1.
         22    1    1    2    0    0 -0.21280717149E+03 -0.84043635400E+03 -0.14909584287E+04  0.17246962612E+04  0.00000000000E+00 0.  1.
<mgrwt>
<rscale>  0 0.43013033E+04</rscale>
<asrwt>0</asrwt>
<pdfrwt beam="1">  1        2 0.42359426E+00 0.43013033E+04</pdfrwt>
<pdfrwt beam="2">  1       -2 0.25844217E+00 0.43013033E+04</pdfrwt>
<totfact> 0.10831915E-01</totfact>
</mgrwt>
</event>
<event>
 6    1  0.1585031E-006  0.3546921E+04  0.7818608E-02  0.8102759E-01
         -2   -1    0    0    0  501 -0.00000000000E+00  0.00000000000E+00  0.96722366278E+03  0.96722366278E+03  0.00000000000E+00 0.  1.
          2   -1    0    0  501    0  0.00000000000E+00 -0.00000000000E+00 -0.32517429854E+04  0.32517429854E+04  0.00000000000E+00 0. -1.
         23    2    1    2    0    0  0.10467024192E+04 -0.11184187159E+04 -0.82525772393E+02  0.15365755556E+04  0.88360378517E+02 0.  0.
         11    1    3    3    0    0  0.35219712658E+03 -0.43700413007E+03 -0.20588865190E+02  0.56163985528E+03  0.00000000000E+00 0.  1.
        -11    1    3    3    0    0  0.69450529265E+03 -0.68141458579E+03 -0.61936907203E+02  0.97493570030E+03  0.00000000000E+00 0. -1.
         22    1    1    2    0    0 -0.10467024192E+04  0.11184187159E+04 -0.22019935502E+04  0.26823910926E+04  0.00000000000E+00 0. -1.
<mgrwt>
<rscale>  0 0.35469213E+04</rscale>
<asrwt>0</asrwt>
<pdfrwt beam="1">  1        2 0.50026815E+00 0.35469213E+04</pdfrwt>
<pdfrwt beam="2">  1       -2 0.14880364E+00 0.35469213E+04</pdfrwt>
<totfact> 0.30006949E-01</totfact>
</mgrwt>
</event>
<event>
 6    1  0.1585031E-006  0.2657530E+04  0.7818608E-02  0.8348918E-01
          2   -1    0    0  501    0  0.00000000000E+00  0.00000000000E+00  0.20674146050E+04  0.20674146050E+04  0.00000000000E+00 0.  1.
         -2   -1    0    0    0  501 -0.00000000000E+00 -0.00000000000E+00 -0.85402146338E+03  0.85402146338E+03  0.00000000000E+00 0. -1.
         23    2    1    2    0    0 -0.67177131770E+03 -0.11442156260E+04  0.57481516143E+03  0.14489253082E+04  0.92010743338E+02 0.  0.
         11    1    3    3    0    0 -0.12435888906E+03 -0.16846968498E+03  0.11878933560E+03  0.24074483234E+03  0.00000000000E+00 0. -1.
        -11    1    3    3    0    0 -0.54741242864E+03 -0.97574594102E+03  0.45602582583E+03  0.12081804759E+04  0.00000000000E+00 0.  1.
         22    1    1    2    0    0  0.67177131770E+03  0.11442156260E+04  0.63857798020E+03  0.14725107602E+04  0.00000000000E+00 0.  1.
<mgrwt>
<rscale>  0 0.26575300E+04</rscale>
<asrwt>0</asrwt>
<pdfrwt beam="1">  1        2 0.31806378E+00 0.26575300E+04</pdfrwt>
<pdfrwt beam="2">  1       -2 0.13138792E+00 0.26575300E+04</pdfrwt>
<totfact> 0.22805037E+00</totfact>
</mgrwt>
</event>
<event>
 6    1  0.1585031E-006  0.2826997E+04  0.7818608E-02  0.8294935E-01
         -1   -1    0    0    0  501 -0.00000000000E+00  0.00000000000E+00  0.18673334889E+04  0.18673334889E+04  0.00000000000E+00 0.  1.
          1   -1    0    0  501    0  0.00000000000E+00 -0.00000000000E+00 -0.10699633833E+04  0.10699633833E+04  0.00000000000E+00 0. -1.
         23    2    1    2    0    0 -0.46683765682E+03 -0.64552931461E+03 -0.81174755034E+03  0.11417732370E+04  0.10033217534E+03 0.  0.
         11    1    3    3    0    0 -0.37627115056E+03 -0.49918545725E+03 -0.68942026629E+03  0.93062688712E+03  0.00000000000E+00 0. -1.
        -11    1    3    3    0    0 -0.90566506261E+02 -0.14634385736E+03 -0.12232728406E+03  0.21114634988E+03  0.00000000000E+00 0.  1.
         22    1    1    2    0    0  0.46683765682E+03  0.64552931461E+03  0.16091176559E+04  0.17955236352E+04  0.00000000000E+00 0.  1.
<mgrwt>
<rscale>  0 0.28269973E+04</rscale>
<asrwt>0</asrwt>
<pdfrwt beam="1">  1        1 0.16460975E+00 0.28269973E+04</pdfrwt>
<pdfrwt beam="2">  1       -1 0.28728207E+00 0.28269973E+04</pdfrwt>
<totfact> 0.46074222E-01</totfact>
</mgrwt>
</event>
<event>
 6    1  0.1585031E-006  0.1947581E+04  0.7818608E-02  0.8631528E-01
          2   -1    0    0  501    0  0.00000000000E+00  0.00000000000E+00  0.26132681137E+04  0.26132681137E+04  0.00000000000E+00 0. -1.
         -2   -1    0    0    0  501 -0.00000000000E+00 -0.00000000000E+00 -0.36286656648E+03  0.36286656648E+03  0.00000000000E+00 0.  1.
         23    2    1    2    0    0  0.10959175323E+03 -0.71159336032E+03  0.21247910028E+04  0.22452766422E+04  0.90304658984E+02 0.  0.
         13    1    3    3    0    0  0.11606861207E+02 -0.24151752521E+03  0.82132542820E+03  0.85617807331E+03  0.00000000000E+00 0.  1.
        -13    1    3    3    0    0  0.97984892021E+02 -0.47007583511E+03  0.13034655746E+04  0.13890985689E+04  0.00000000000E+00 0. -1.
         22    1    1    2    0    0 -0.10959175323E+03  0.71159336032E+03  0.12561054438E+03  0.73085803799E+03  0.00000000000E+00 0.  1.
<mgrwt>
<rscale>  0 0.19475807E+04</rscale>
<asrwt>0</asrwt>
<pdfrwt beam="1">  1        2 0.40204124E+00 0.19475807E+04</pdfrwt>
<pdfrwt beam="2">  1       -2 0.55825627E-01 0.19475807E+04</pdfrwt>
<totfact> 0.84137554E+00</totfact>
</mgrwt>
</event>
<event>
 6    1  0.1585031E-006  0.7284083E+03  0.7818608E-02  0.9669847E-01
         -1   -1    0    0    0  501 -0.00000000000E+00  0.00000000000E+00  0.15848285935E+03  0.15848285935E+03  0.00000000000E+00 0.  1.
          1   -1    0    0  501    0  0.00000000000E+00 -0.00000000000E+00 -0.83696539655E+03  0.83696539655E+03  0.00000000000E+00 0. -1.
         23    2    1    2    0    0 -0.31622694943E+03  0.41428740537E+02 -0.12087405802E+03  0.35307528002E+03  0.91300555145E+02 0.  0.
         13    1    3    3    0    0 -0.12306649451E+03 -0.33535395353E+01 -0.89772976752E+02  0.15236730507E+03  0.00000000000E+00 0. -1.
        -13    1    3    3    0    0 -0.19316045492E+03  0.44782280073E+02 -0.31101081268E+02  0.20070797495E+03  0.00000000000E+00 0.  1.
         22    1    1    2    0    0  0.31622694943E+03 -0.41428740537E+02 -0.55760847918E+03  0.64237297588E+03  0.00000000000E+00 0. -1.
<mgrwt>
<rscale>  0 0.72840832E+03</rscale>
<asrwt>0</asrwt>
<pdfrwt beam="1">  1        1 0.12876391E+00 0.72840832E+03</pdfrwt>
<pdfrwt beam="2">  1       -1 0.24381978E-01 0.72840832E+03</pdfrwt>
<totfact> 0.30367821E+02</totfact>
</mgrwt>
</event>
<event>
 6    1  0.1585031E-006  0.1178560E+04  0.7818608E-02  0.9131833E-01
         -2   -1    0    0    0  501 -0.00000000000E+00  0.00000000000E+00  0.37583530734E+03  0.37583530734E+03  0.00000000000E+00 0.  1.
          2   -1    0    0  501    0  0.00000000000E+00 -0.00000000000E+00 -0.92394372891E+03  0.92394372891E+03  0.00000000000E+00 0. -1.
         23    2    1    2    0    0  0.18120279080E+03  0.54110682738E+03 -0.42140881686E+03  0.71524174928E+03  0.91401963587E+02 0.  0.
         13    1    3    3    0    0  0.30706871080E+02  0.21586975766E+03 -0.13467070921E+03  0.25627887959E+03  0.00000000000E+00 0.  1.
        -13    1    3    3    0    0  0.15049591972E+03  0.32523706972E+03 -0.28673810765E+03  0.45896286969E+03  0.00000000000E+00 0. -1.
         22    1    1    2    0    0 -0.18120279080E+03 -0.54110682738E+03 -0.12669960470E+03  0.58453728698E+03  0.00000000000E+00 0.  1.
<mgrwt>
<rscale>  0 0.11785596E+04</rscale>
<asrwt>0</asrwt>
<pdfrwt beam="1">  1        2 0.14214519E+00 0.11785596E+04</pdfrwt>
<pdfrwt beam="2">  1       -2 0.57820816E-01 0.11785596E+04</pdfrwt>
<totfact> 0.78182734E+01</totfact>
</mgrwt>
</event>
<event>
 6    1  0.1585031E-006  0.3107922E+04  0.7818608E-02  0.8213567E-01
          2   -1    0    0  501    0  0.00000000000E+00  0.00000000000E+00  0.11850140155E+04  0.11850140155E+04  0.00000000000E+00 0. -1.
         -2   -1    0    0    0  501 -0.00000000000E+00 -0.00000000000E+00 -0.20377771211E+04  0.20377771211E+04  0.00000000000E+00 0.  1.
         23    2    1    2    0    0 -0.14153187324E+04  0.15064630212E+03 -0.10699507632E+04  0.17830022973E+04  0.92093071493E+02 0.  0.
         11    1    3    3    0    0 -0.14076886394E+03 -0.11738305784E+02 -0.97628900225E+02  0.17171215169E+03  0.00000000000E+00 0. -1.
        -11    1    3    3    0    0 -0.12745498685E+04  0.16238460790E+03 -0.97232186302E+03  0.16112901457E+04  0.00000000000E+00 0.  1.
         22    1    1    2    0    0  0.14153187324E+04 -0.15064630212E+03  0.21718765766E+03  0.14397888392E+04  0.00000000000E+00 0.  1.
<mgrwt>
<rscale>  0 0.31079218E+04</rscale>
<asrwt>0</asrwt>
<pdfrwt beam="1">  1        2 0.18230985E+00 0.31079218E+04</pdfrwt>
<pdfrwt beam="2">  1       -2 0.31350417E+00 0.31079218E+04</pdfrwt>
<totfact> 0.43075269E-01</totfact>
</mgrwt>
</event>
<event>
 6    1  0.1585031E-006  0.4816314E+03  0.7818608E-02  0.1018688E+00
         -2   -1    0    0    0  501 -0.00000000000E+00  0.00000000000E+00  0.58692548900E+03  0.58692548900E+03  0.00000000000E+00 0.  1.
          2   -1    0    0  501    0  0.00000000000E+00 -0.00000000000E+00 -0.98806735873E+02  0.98806735873E+02  0.00000000000E+00 0. -1.
         23    2    1    2    0    0  0.22888057241E+03 -0.24719367499E+01  0.19234359916E+03  0.31173306899E+03  0.88255420601E+02 0.  0.
         13    1    3    3    0    0  0.20603158976E+03  0.22546886165E+02  0.18324172544E+03  0.27664943158E+03  0.00000000000E+00 0. -1.
        -13    1    3    3    0    0  0.22848982653E+02 -0.25018822915E+02  0.91018737186E+01  0.35083637404E+02  0.00000000000E+00 0.  1.
         22    1    1    2    0    0 -0.22888057241E+03  0.24719367499E+01  0.29577515397E+03  0.37399915588E+03  0.00000000000E+00 0.  1.
<mgrwt>
<rscale>  0 0.48163136E+03</rscale>
<asrwt>0</asrwt>
<pdfrwt beam="1">  1        2 0.15201037E-01 0.48163136E+03</pdfrwt>
<pdfrwt beam="2">  1       -2 0.90296227E-01 0.48163136E+03</pdfrwt>
<totfact> 0.41795956E+02</totfact>
</mgrwt>
</event>
<event>
 6    1  0.1585031E-006  0.1459415E+04  0.7818608E-02  0.8911900E-01
          2   -1    0    0  501    0  0.00000000000E+00  0.00000000000E+00  0.54014519983E+03  0.54014519983E+03  0.00000000000E+00 0. -1.
         -2   -1    0    0    0  501 -0.00000000000E+00 -0.00000000000E+00 -0.98579555284E+03  0.98579555284E+03  0.00000000000E+00 0.  1.
         23    2    1    2    0    0  0.37655861276E+02 -0.12058246311E+03 -0.97204030391E+03  0.98460492834E+03  0.92878513121E+02 0.  0.
         11    1    3    3    0    0  0.68490041722E+02 -0.91330405344E+02 -0.68984349346E+03  0.69922541017E+03  0.00000000000E+00 0. -1.
        -11    1    3    3    0    0 -0.30834180447E+02 -0.29252057767E+02 -0.28219681044E+03  0.28537951817E+03  0.00000000000E+00 0.  1.
         22    1    1    2    0    0 -0.37655861276E+02  0.12058246311E+03  0.52638995089E+03  0.54133582433E+03  0.00000000000E+00 0. -1.
<mgrwt>
<rscale>  0 0.14594146E+04</rscale>
<asrwt>0</asrwt>
<pdfrwt beam="1">  1        2 0.83099262E-01 0.14594146E+04</pdfrwt>
<pdfrwt beam="2">  1       -2 0.15166085E+00 0.14594146E+04</pdfrwt>
<totfact> 0.15846466E+01</totfact>
</mgrwt>
</event>
<event>
 6    1  0.1585031E-006  0.4811631E+04  0.7818608E-02  0.7858241E-01
         -3   -1    0    0    0  501 -0.00000000000E+00  0.00000000000E+00  0.21916912156E+04  0.21916912156E+04  0.00000000000E+00 0. -1.
          3   -1    0    0  501    0  0.00000000000E+00 -0.00000000000E+00 -0.26408590468E+04  0.26408590468E+04  0.00000000000E+00 0.  1.
         23    2    1    2    0    0  0.11295375567E+04 -0.11107752455E+04 -0.20420118445E+04  0.25860354531E+04  0.89945837264E+02 0.  0.
         11    1    3    3    0    0  0.63540965150E+03 -0.58887486178E+03 -0.10560751670E+04  0.13659479443E+04  0.00000000000E+00 0. -1.
        -11    1    3    3    0    0  0.49412790515E+03 -0.52190038373E+03 -0.98593667742E+03  0.12200875088E+04  0.00000000000E+00 0.  1.
         22    1    1    2    0    0 -0.11295375567E+04  0.11107752455E+04  0.15928440133E+04  0.22465148094E+04  0.00000000000E+00 0. -1.
<mgrwt>
<rscale>  0 0.48116307E+04</rscale>
<asrwt>0</asrwt>
<pdfrwt beam="1">  1        3 0.40628600E+00 0.48116307E+04</pdfrwt>
<pdfrwt beam="2">  1       -3 0.33718327E+00 0.48116307E+04</pdfrwt>
<totfact> 0.46027202E-04</totfact>
</mgrwt>
</event>
<event>
 6    1  0.1585031E-006  0.1075831E+04  0.7818608E-02  0.9229075E-01
          1   -1    0    0  501    0  0.00000000000E+00  0.00000000000E+00  0.64494621692E+03  0.64494621692E+03  0.00000000000E+00 0. -1.
         -1   -1    0    0    0  501 -0.00000000000E+00 -0.00000000000E+00 -0.44864647024E+03  0.44864647024E+03  0.00000000000E+00 0.  1.
         23    2    1    2    0    0 -0.27694550598E+03 -0.50965523197E+02 -0.36250542422E+03  0.46784552028E+03  0.90404371719E+02 0.  0.
         13    1    3    3    0    0 -0.18675622938E+03 -0.34526016555E+02 -0.17113733215E+03  0.25565195381E+03  0.00000000000E+00 0. -1.
        -13    1    3    3    0    0 -0.90189276602E+02 -0.16439506642E+02 -0.19136809207E+03  0.21219356648E+03  0.00000000000E+00 0.  1.
         22    1    1    2    0    0  0.27694550598E+03  0.50965523197E+02  0.55880517090E+03  0.62574716688E+03  0.00000000000E+00 0. -1.
<mgrwt>
<rscale>  0 0.10758306E+04</rscale>
<asrwt>0</asrwt>
<pdfrwt beam="1">  1        1 0.99222495E-01 0.10758306E+04</pdfrwt>
<pdfrwt beam="2">  1       -1 0.69022534E-01 0.10758306E+04</pdfrwt>
<totfact> 0.65329218E+01</totfact>
</mgrwt>
</event>
<event>
 6    1  0.1585031E-006  0.1223804E+04  0.7818608E-02  0.9092272E-01
         -2   -1    0    0    0  501 -0.00000000000E+00  0.00000000000E+00  0.54932555190E+03  0.54932555190E+03  0.00000000000E+00 0.  1.
          2   -1    0    0  501    0  0.00000000000E+00 -0.00000000000E+00 -0.68160714733E+03  0.68160714733E+03  0.00000000000E+00 0. -1.
         23    2    1    2    0    0 -0.57385632394E+03 -0.19998866446E+03 -0.97758915978E+02  0.62224693314E+03  0.91257294019E+02 0.  0.
         11    1    3    3    0    0 -0.11654024990E+03 -0.26053315224E+02  0.14393181424E+02  0.12028120698E+03  0.00000000000E+00 0.  1.
        -11    1    3    3    0    0 -0.45731607404E+03 -0.17393534923E+03 -0.11215209740E+03  0.50196572616E+03  0.00000000000E+00 0. -1.
         22    1    1    2    0    0  0.57385632394E+03  0.19998866446E+03 -0.34522679447E+02  0.60868576609E+03  0.00000000000E+00 0. -1.
<mgrwt>
<rscale>  0 0.12238043E+04</rscale>
<asrwt>0</asrwt>
<pdfrwt beam="1">  1        2 0.10486264E+00 0.12238043E+04</pdfrwt>
<pdfrwt beam="2">  1       -2 0.84511623E-01 0.12238043E+04</pdfrwt>
<totfact> 0.50991320E+01</totfact>
</mgrwt>
</event>
<event>
 6    1  0.1585031E-006  0.2533739E+04  0.7818608E-02  0.8391063E-01
          1   -1    0    0  501    0  0.00000000000E+00  0.00000000000E+00  0.20480876386E+04  0.20480876386E+04  0.00000000000E+00 0. -1.
         -1   -1    0    0    0  501 -0.00000000000E+00 -0.00000000000E+00 -0.78363753101E+03  0.78363753101E+03  0.00000000000E+00 0.  1.
         23    2    1    2    0    0 -0.11210343668E+04  0.56637197383E+03  0.80269557926E+03  0.14935501031E+04  0.94214930741E+02 0.  0.
         13    1    3    3    0    0 -0.90545988155E+03  0.46721789754E+03  0.60718850491E+03  0.11860978212E+04  0.00000000000E+00 0. -1.
        -13    1    3    3    0    0 -0.21557448522E+03  0.99154076295E+02  0.19550707435E+03  0.30745228190E+03  0.00000000000E+00 0.  1.
         22    1    1    2    0    0  0.11210343668E+04 -0.56637197383E+03  0.46175452828E+03  0.13381750665E+04  0.00000000000E+00 0. -1.
<mgrwt>
<rscale>  0 0.25337390E+04</rscale>
<asrwt>0</asrwt>
<pdfrwt beam="1">  1        1 0.31509041E+00 0.25337390E+04</pdfrwt>
<pdfrwt beam="2">  1       -1 0.12055962E+00 0.25337390E+04</pdfrwt>
<totfact> 0.14983165E+00</totfact>
</mgrwt>
</event>
<event>
 6    1  0.1585031E-006  0.6176160E+04  0.7818608E-02  0.7668936E-01
         -2   -1    0    0    0  501 -0.00000000000E+00  0.00000000000E+00  0.19654539102E+04  0.19654539102E+04  0.00000000000E+00 0. -1.
          2   -1    0    0  501    0  0.00000000000E+00 -0.00000000000E+00 -0.48519258794E+04  0.48519258794E+04  0.00000000000E+00 0.  1.
         23    2    1    2    0    0 -0.24453826889E+04  0.19867357056E+03  0.62464042509E+03  0.25340075284E+04  0.10793892097E+03 0.  0.
         13    1    3    3    0    0 -0.19429628817E+04  0.14705031961E+03  0.45206646281E+03  0.20002731421E+04  0.00000000000E+00 0. -1.
        -13    1    3    3    0    0 -0.50241980724E+03  0.51623250949E+02  0.17257396228E+03  0.53373438638E+03  0.00000000000E+00 0.  1.
         22    1    1    2    0    0  0.24453826889E+04 -0.19867357056E+03 -0.35111123943E+04  0.42833722612E+04  0.00000000000E+00 0.  1.
<mgrwt>
<rscale>  0 0.61761595E+04</rscale>
<asrwt>0</asrwt>
<pdfrwt beam="1">  1        2 0.74645013E+00 0.61761595E+04</pdfrwt>
<pdfrwt beam="2">  1       -2 0.30237753E+00 0.61761595E+04</pdfrwt>
<totfact> 0.10395939E-03</totfact>
</mgrwt>
</event>
<event>
 6    1  0.1585031E-006  0.9666584E+03  0.7818608E-02  0.9345889E-01
          2   -1    0    0  501    0  0.00000000000E+00  0.00000000000E+00  0.49902215324E+03  0.49902215324E+03  0.00000000000E+00 0.  1.
         -2   -1    0    0    0  501 -0.00000000000E+00 -0.00000000000E+00 -0.46812976070E+03  0.46812976070E+03  0.00000000000E+00 0. -1.
         23    2    1    2    0    0 -0.11288612728E+03 -0.20909801697E+03  0.43210815125E+03  0.50084799645E+03  0.87555712225E+02 0.  0.
         11    1    3    3    0    0 -0.45616222298E+02 -0.15028108716E+03  0.32792666829E+03  0.36359475336E+03  0.00000000000E+00 0. -1.
        -11    1    3    3    0    0 -0.67269904980E+02 -0.58816929808E+02  0.10418148296E+03  0.13725324309E+03  0.00000000000E+00 0.  1.
         22    1    1    2    0    0  0.11288612728E+03  0.20909801697E+03 -0.40121575871E+03  0.46630391749E+03  0.00000000000E+00 0. -1.
<mgrwt>
<rscale>  0 0.96665841E+03</rscale>
<asrwt>0</asrwt>
<pdfrwt beam="1">  1        2 0.76772639E-01 0.96665841E+03</pdfrwt>
<pdfrwt beam="2">  1       -2 0.72019963E-01 0.96665841E+03</pdfrwt>
<totfact> 0.10789042E+02</totfact>
</mgrwt>
</event>
<event>
 6    1  0.1585031E-006  0.1725466E+04  0.7818608E-02  0.8746972E-01
          2   -1    0    0  501    0  0.00000000000E+00  0.00000000000E+00  0.25678023763E+04  0.25678023763E+04  0.00000000000E+00 0. -1.
         -2   -1    0    0    0  501 -0.00000000000E+00 -0.00000000000E+00 -0.28986205403E+03  0.28986205403E+03  0.00000000000E+00 0.  1.
         23    2    1    2    0    0  0.53472460097E+03  0.63503177067E+03  0.15161149240E+04  0.17309108255E+04  0.90840928534E+02 0.  0.
         13    1    3    3    0    0  0.11400386674E+03  0.82868584398E+02  0.25265191828E+03  0.28930446889E+03  0.00000000000E+00 0. -1.
        -13    1    3    3    0    0  0.42072073423E+03  0.55216318628E+03  0.12634630057E+04  0.14416063566E+04  0.00000000000E+00 0.  1.
         22    1    1    2    0    0 -0.53472460097E+03 -0.63503177067E+03  0.76182539832E+03  0.11267536049E+04  0.00000000000E+00 0. -1.
<mgrwt>
<rscale>  0 0.17254663E+04</rscale>
<asrwt>0</asrwt>
<pdfrwt beam="1">  1        2 0.39504650E+00 0.17254663E+04</pdfrwt>
<pdfrwt beam="2">  1       -2 0.44594164E-01 0.17254663E+04</pdfrwt>
<totfact> 0.14420864E+01</totfact>
</mgrwt>
</event>
<event>
 6    1  0.1585031E-006  0.1312164E+04  0.7818608E-02  0.9019974E-01
         -2   -1    0    0    0  501 -0.00000000000E+00  0.00000000000E+00  0.24703528102E+03  0.24703528102E+03  0.00000000000E+00 0.  1.
          2   -1    0    0  501    0  0.00000000000E+00 -0.00000000000E+00 -0.17424384716E+04  0.17424384716E+04  0.00000000000E+00 0. -1.
         23    2    1    2    0    0  0.26952445764E+03 -0.16113544407E+03 -0.16192575881E+04  0.16519119414E+04  0.90608282994E+02 0.  0.
         13    1    3    3    0    0  0.22182061055E+03 -0.87498962946E+02 -0.12280149714E+04  0.12509521261E+04  0.00000000000E+00 0.  1.
        -13    1    3    3    0    0  0.47703847081E+02 -0.73636481124E+02 -0.39124261673E+03  0.40095981535E+03  0.00000000000E+00 0. -1.
         22    1    1    2    0    0 -0.26952445764E+03  0.16113544407E+03  0.12385439753E+03  0.33756181121E+03  0.00000000000E+00 0.  1.
<mgrwt>
<rscale>  0 0.13121643E+04</rscale>
<asrwt>0</asrwt>
<pdfrwt beam="1">  1        2 0.26806747E+00 0.13121643E+04</pdfrwt>
<pdfrwt beam="2">  1       -2 0.38005427E-01 0.13121643E+04</pdfrwt>
<totfact> 0.59441766E+01</totfact>
</mgrwt>
</event>
<event>
 6    1  0.1585031E-006  0.3177688E+04  0.7818608E-02  0.8194735E-01
         -2   -1    0    0    0  501 -0.00000000000E+00  0.00000000000E+00  0.91240832473E+03  0.91240832473E+03  0.00000000000E+00 0.  1.
          2   -1    0    0  501    0  0.00000000000E+00 -0.00000000000E+00 -0.27667714139E+04  0.27667714139E+04  0.00000000000E+00 0. -1.
         23    2    1    2    0    0 -0.63742769758E+01 -0.59960971553E+03 -0.26298651217E+04  0.26988859843E+04  0.90678307618E+02 0.  0.
         11    1    3    3    0    0 -0.46249907404E+01 -0.20599060614E+03 -0.72120851887E+03  0.75006349601E+03  0.00000000000E+00 0. -1.
        -11    1    3    3    0    0 -0.17492862355E+01 -0.39361910940E+03 -0.19086566028E+04  0.19488224883E+04  0.00000000000E+00 0.  1.
         22    1    1    2    0    0  0.63742769758E+01  0.59960971553E+03  0.77550203252E+03  0.98029375435E+03  0.00000000000E+00 0.  1.
<mgrwt>
<rscale>  0 0.31776880E+04</rscale>
<asrwt>0</asrwt>
<pdfrwt beam="1">  1        2 0.42565713E+00 0.31776880E+04</pdfrwt>
<pdfrwt beam="2">  1       -2 0.14037051E+00 0.31776880E+04</pdfrwt>
<totfact> 0.72842520E-01</totfact>
</mgrwt>
</event>
<event>
 6    1  0.1585031E-006  0.3008413E+04  0.7818608E-02  0.8241332E-01
         -1   -1    0    0    0  501 -0.00000000000E+00  0.00000000000E+00  0.19656962193E+04  0.19656962193E+04  0.00000000000E+00 0.  1.
          1   -1    0    0  501    0  0.00000000000E+00 -0.00000000000E+00 -0.11510618474E+04  0.11510618474E+04  0.00000000000E+00 0. -1.
         23    2    1    2    0    0 -0.11464611279E+04 -0.49162570937E+03  0.12759670712E+04  0.17867592640E+04  0.91365993736E+02 0.  0.
         13    1    3    3    0    0 -0.48973573548E+03 -0.17280755017E+03  0.57249405540E+03  0.77295082862E+03  0.00000000000E+00 0. -1.
        -13    1    3    3    0    0 -0.65672539242E+03 -0.31881815920E+03  0.70347301577E+03  0.10138084354E+04  0.00000000000E+00 0.  1.
         22    1    1    2    0    0  0.11464611279E+04  0.49162570937E+03 -0.46133269929E+03  0.13299988028E+04  0.00000000000E+00 0. -1.
<mgrwt>
<rscale>  0 0.30084135E+04</rscale>
<asrwt>0</asrwt>
<pdfrwt beam="1">  1        1 0.17708644E+00 0.30084135E+04</pdfrwt>
<pdfrwt beam="2">  1       -1 0.30241480E+00 0.30084135E+04</pdfrwt>
<totfact> 0.31452062E-01</totfact>
</mgrwt>
</event>
<event>
 6    1  0.1585031E-006  0.2673478E+04  0.7818608E-02  0.8343662E-01
          2   -1    0    0  501    0  0.00000000000E+00  0.00000000000E+00  0.31072415330E+04  0.31072415330E+04  0.00000000000E+00 0. -1.
         -2   -1    0    0    0  501 -0.00000000000E+00 -0.00000000000E+00 -0.57506662024E+03  0.57506662024E+03  0.00000000000E+00 0.  1.
         23    2    1    2    0    0  0.86705367443E+03 -0.13382269618E+03 -0.11865203524E+03  0.89007354695E+03  0.91989266543E+02 0.  0.
         11    1    3    3    0    0  0.35529050456E+03 -0.78347227692E+02 -0.99620344903E+01  0.36396273552E+03  0.00000000000E+00 0.  1.
        -11    1    3    3    0    0  0.51176316987E+03 -0.55475468489E+02 -0.10869000075E+03  0.52611081143E+03  0.00000000000E+00 0. -1.
         22    1    1    2    0    0 -0.86705367443E+03  0.13382269618E+03  0.26508269480E+04  0.27922346063E+04  0.00000000000E+00 0. -1.
<mgrwt>
<rscale>  0 0.26734778E+04</rscale>
<asrwt>0</asrwt>
<pdfrwt beam="1">  1        2 0.47803715E+00 0.26734778E+04</pdfrwt>
<pdfrwt beam="2">  1       -2 0.88471790E-01 0.26734778E+04</pdfrwt>
<totfact> 0.14388434E+00</totfact>
</mgrwt>
</event>
<event>
 6    1  0.1585031E-006  0.3536080E+04  0.7818608E-02  0.8105292E-01
          1   -1    0    0  501    0  0.00000000000E+00  0.00000000000E+00  0.32713216761E+04  0.32713216761E+04  0.00000000000E+00 0. -1.
         -1   -1    0    0    0  501 -0.00000000000E+00 -0.00000000000E+00 -0.95556674212E+03  0.95556674212E+03  0.00000000000E+00 0.  1.
         23    2    1    2    0    0 -0.11306735356E+04  0.10271059389E+04  0.97300065391E+02  0.15333941714E+04  0.91984391378E+02 0.  0.
         13    1    3    3    0    0 -0.97046506603E+03  0.83597290132E+03  0.84851046084E+02  0.12836872034E+04  0.00000000000E+00 0.  1.
        -13    1    3    3    0    0 -0.16020846954E+03  0.19113303761E+03  0.12449019307E+02  0.24970696798E+03  0.00000000000E+00 0. -1.
         22    1    1    2    0    0  0.11306735356E+04 -0.10271059389E+04  0.22184548686E+04  0.26934942468E+04  0.00000000000E+00 0. -1.
<mgrwt>
<rscale>  0 0.35360804E+04</rscale>
<asrwt>0</asrwt>
<pdfrwt beam="1">  1        1 0.50328025E+00 0.35360804E+04</pdfrwt>
<pdfrwt beam="2">  1       -1 0.14701027E+00 0.35360804E+04</pdfrwt>
<totfact> 0.11236520E-01</totfact>
</mgrwt>
</event>
<event>
 6    1  0.1585031E-006  0.7276993E+03  0.7818608E-02  0.9671001E-01
          1   -1    0    0  501    0  0.00000000000E+00  0.00000000000E+00  0.16060042864E+04  0.16060042864E+04  0.00000000000E+00 0. -1.
         -1   -1    0    0    0  501 -0.00000000000E+00 -0.00000000000E+00 -0.82432254581E+02  0.82432254581E+02  0.00000000000E+00 0.  1.
         23    2    1    2    0    0 -0.23151940918E+03  0.21906282965E+03  0.11524674446E+04  0.11992449888E+04  0.91747326441E+02 0.  0.
         11    1    3    3    0    0 -0.11755209284E+03  0.72059214862E+02  0.62237796999E+03  0.63746793057E+03  0.00000000000E+00 0. -1.
        -11    1    3    3    0    0 -0.11396731634E+03  0.14700361478E+03  0.53008947466E+03  0.56177705818E+03  0.00000000000E+00 0.  1.
         22    1    1    2    0    0  0.23151940918E+03 -0.21906282965E+03  0.37110458720E+03  0.48919155226E+03  0.00000000000E+00 0. -1.
<mgrwt>
<rscale>  0 0.72769926E+03</rscale>
<asrwt>0</asrwt>
<pdfrwt beam="1">  1        1 0.24707756E+00 0.72769926E+03</pdfrwt>
<pdfrwt beam="2">  1       -1 0.12681886E-01 0.72769926E+03</pdfrwt>
<totfact> 0.24389844E+02</totfact>
</mgrwt>
</event>
<event>
 6    1  0.1585031E-006  0.3693953E+04  0.7818608E-02  0.8069303E-01
          2   -1    0    0  501    0  0.00000000000E+00  0.00000000000E+00  0.16201044877E+04  0.16201044877E+04  0.00000000000E+00 0. -1.
         -2   -1    0    0    0  501 -0.00000000000E+00 -0.00000000000E+00 -0.21056182707E+04  0.21056182707E+04  0.00000000000E+00 0.  1.
         23    2    1    2    0    0  0.74332157540E+03 -0.38296086059E+03  0.14168484121E+04  0.16477025693E+04  0.90985430745E+02 0.  0.
         11    1    3    3    0    0  0.24955660654E+03 -0.16075941413E+03  0.43886326183E+03  0.52983304133E+03  0.00000000000E+00 0.  1.
        -11    1    3    3    0    0  0.49376496885E+03 -0.22220144646E+03  0.97798515029E+03  0.11178695279E+04  0.00000000000E+00 0. -1.
         22    1    1    2    0    0 -0.74332157540E+03  0.38296086059E+03 -0.19023621951E+04  0.20780201891E+04  0.00000000000E+00 0.  1.
<mgrwt>
<rscale>  0 0.36939527E+04</rscale>
<asrwt>0</asrwt>
<pdfrwt beam="1">  1        2 0.24924684E+00 0.36939527E+04</pdfrwt>
<pdfrwt beam="2">  1       -2 0.32394127E+00 0.36939527E+04</pdfrwt>
<totfact> 0.19891374E-01</totfact>
</mgrwt>
</event>
<event>
 6    1  0.1585031E-006  0.2112210E+04  0.7818608E-02  0.8555884E-01
          2   -1    0    0  501    0  0.00000000000E+00  0.00000000000E+00  0.17616342022E+04  0.17616342022E+04  0.00000000000E+00 0. -1.
         -2   -1    0    0    0  501 -0.00000000000E+00 -0.00000000000E+00 -0.63313814446E+03  0.63313814446E+03  0.00000000000E+00 0.  1.
         23    2    1    2    0    0 -0.81721000397E+03  0.66491118081E+03  0.52571916778E+03  0.11809852780E+04  0.91687046809E+02 0.  0.
         13    1    3    3    0    0 -0.44796735540E+03  0.32248817083E+03  0.31081282635E+03  0.63346506206E+03  0.00000000000E+00 0.  1.
        -13    1    3    3    0    0 -0.36924264857E+03  0.34242300998E+03  0.21490634143E+03  0.54752021595E+03  0.00000000000E+00 0. -1.
         22    1    1    2    0    0  0.81721000397E+03 -0.66491118081E+03  0.60277688998E+03  0.12137870687E+04  0.00000000000E+00 0. -1.
<mgrwt>
<rscale>  0 0.21122100E+04</rscale>
<asrwt>0</asrwt>
<pdfrwt beam="1">  1        2 0.27102064E+00 0.21122100E+04</pdfrwt>
<pdfrwt beam="2">  1       -2 0.97405869E-01 0.21122100E+04</pdfrwt>
<totfact> 0.73330560E+00</totfact>
</mgrwt>
</event>
<event>
 6    1  0.1585031E-006  0.3368840E+04  0.7818608E-02  0.8145597E-01
         -2   -1    0    0    0  501 -0.00000000000E+00  0.00000000000E+00  0.19235877523E+04  0.19235877523E+04  0.00000000000E+00 0. -1.
          2   -1    0    0  501    0  0.00000000000E+00 -0.00000000000E+00 -0.14749885904E+04  0.14749885904E+04  0.00000000000E+00 0.  1.
         23    2    1    2    0    0  0.98657066258E+03  0.95200164245E+03  0.12095089756E+04  0.18305799957E+04  0.92099724439E+02 0.  0.
         11    1    3    3    0    0  0.26281854443E+03  0.19908263549E+03  0.28730789219E+03  0.43732517417E+03  0.00000000000E+00 0.  1.
        -11    1    3    3    0    0  0.72375211815E+03  0.75291900697E+03  0.92220108339E+03  0.13932548216E+04  0.00000000000E+00 0. -1.
         22    1    1    2    0    0 -0.98657066258E+03 -0.95200164245E+03 -0.76090981369E+03  0.15679963470E+04  0.00000000000E+00 0.  1.
<mgrwt>
<rscale>  0 0.33688396E+04</rscale>
<asrwt>0</asrwt>
<pdfrwt beam="1">  1        2 0.22692132E+00 0.33688396E+04</pdfrwt>
<pdfrwt beam="2">  1       -2 0.29593658E+00 0.33688396E+04</pdfrwt>
<totfact> 0.36655720E-01</totfact>
</mgrwt>
</event>
<event>
 6    1  0.1585031E-006  0.3303987E+04  0.7818608E-02  0.8161882E-01
         -2   -1    0    0    0  501 -0.00000000000E+00  0.00000000000E+00  0.94228988902E+03  0.94228988902E+03  0.00000000000E+00 0.  1.
          2   -1    0    0  501    0  0.00000000000E+00 -0.00000000000E+00 -0.28962243601E+04  0.28962243601E+04  0.00000000000E+00 0. -1.
         23    2    1    2    0    0  0.15659887487E+04  0.11270232808E+03 -0.15700214218E+04  0.22222185444E+04  0.90914345419E+02 0.  0.
         13    1    3    3    0    0  0.74562398533E+03  0.19431805112E+02 -0.78750222537E+03  0.10846623795E+04  0.00000000000E+00 0.  1.
        -13    1    3    3    0    0  0.82036476335E+03  0.93270522973E+02 -0.78251919645E+03  0.11375561649E+04  0.00000000000E+00 0. -1.
         22    1    1    2    0    0 -0.15659887487E+04 -0.11270232808E+03 -0.38391304922E+03  0.16162957047E+04  0.00000000000E+00 0.  1.
<mgrwt>
<rscale>  0 0.33039872E+04</rscale>
<asrwt>0</asrwt>
<pdfrwt beam="1">  1        2 0.44557298E+00 0.33039872E+04</pdfrwt>
<pdfrwt beam="2">  1       -2 0.14496768E+00 0.33039872E+04</pdfrwt>
<totfact> 0.55260540E-01</totfact>
</mgrwt>
</event>
<event>
 6    1  0.1585031E-006  0.1827252E+04  0.7818608E-02  0.8691940E-01
          1   -1    0    0  501    0  0.00000000000E+00  0.00000000000E+00  0.14153955881E+04  0.14153955881E+04  0.00000000000E+00 0. -1.
         -1   -1    0    0    0  501 -0.00000000000E+00 -0.00000000000E+00 -0.58973784361E+03  0.58973784361E+03  0.00000000000E+00 0.  1.
         23    2    1    2    0    0  0.25270302702E+03 -0.55274003813E+03  0.11589626632E+04  0.13119721674E+04  0.93253115960E+02 0.  0.
         11    1    3    3    0    0  0.84125779658E+02 -0.10478403260E+03  0.21359653418E+03  0.25234959818E+03  0.00000000000E+00 0. -1.
        -11    1    3    3    0    0  0.16857724736E+03 -0.44795600553E+03  0.94536612902E+03  0.10596225692E+04  0.00000000000E+00 0.  1.
         22    1    1    2    0    0 -0.25270302702E+03  0.55274003813E+03 -0.33330491868E+03  0.69316126438E+03  0.00000000000E+00 0.  1.
<mgrwt>
<rscale>  0 0.18272519E+04</rscale>
<asrwt>0</asrwt>
<pdfrwt beam="1">  1        1 0.21775317E+00 0.18272519E+04</pdfrwt>
<pdfrwt beam="2">  1       -1 0.90728900E-01 0.18272519E+04</pdfrwt>
<totfact> 0.83710623E+00</totfact>
</mgrwt>
</event>
<event>
 6    1  0.1585031E-006  0.3070371E+04  0.7818608E-02  0.8223917E-01
         -2   -1    0    0    0  501 -0.00000000000E+00  0.00000000000E+00  0.65721243510E+03  0.65721243510E+03  0.00000000000E+00 0. -1.
          2   -1    0    0  501    0  0.00000000000E+00 -0.00000000000E+00 -0.35860460771E+04  0.35860460771E+04  0.00000000000E+00 0.  1.
         23    2    1    2    0    0  0.62645942357E+03 -0.10829394039E+04 -0.26920500423E+04  0.29699652879E+04  0.91385006494E+02 0.  0.
         13    1    3    3    0    0  0.14640534891E+03 -0.18350663585E+03 -0.52120882911E+03  0.57163612127E+03  0.00000000000E+00 0.  1.
        -13    1    3    3    0    0  0.48005407466E+03 -0.89943276805E+03 -0.21708412132E+04  0.23983291667E+04  0.00000000000E+00 0. -1.
         22    1    1    2    0    0 -0.62645942357E+03  0.10829394039E+04 -0.23678359971E+03  0.12732932243E+04  0.00000000000E+00 0. -1.
<mgrwt>
<rscale>  0 0.30703707E+04</rscale>
<asrwt>0</asrwt>
<pdfrwt beam="1">  1        2 0.55169941E+00 0.30703707E+04</pdfrwt>
<pdfrwt beam="2">  1       -2 0.10110960E+00 0.30703707E+04</pdfrwt>
<totfact> 0.48331646E-01</totfact>
</mgrwt>
</event>
<event>
 6    1  0.1585031E-006  0.2536842E+04  0.7818608E-02  0.8389977E-01
         -2   -1    0    0    0  501 -0.00000000000E+00  0.00000000000E+00  0.44891390325E+03  0.44891390325E+03  0.00000000000E+00 0.  1.
          2   -1    0    0  501    0  0.00000000000E+00 -0.00000000000E+00 -0.35839651668E+04  0.35839651668E+04  0.00000000000E+00 0. -1.
         23    2    1    2    0    0  0.50331675703E+02  0.91950822811E+03 -0.29524557169E+04  0.30940661000E+04  0.90673102716E+02 0.  0.
         11    1    3    3    0    0 -0.36716878115E+01  0.48422275511E+03 -0.14357841155E+04  0.15152429456E+04  0.00000000000E+00 0. -1.
        -11    1    3    3    0    0  0.54003363515E+02  0.43528547300E+03 -0.15166716014E+04  0.15788231544E+04  0.00000000000E+00 0.  1.
         22    1    1    2    0    0 -0.50331675703E+02 -0.91950822811E+03 -0.18259554665E+03  0.93881297008E+03  0.00000000000E+00 0.  1.
<mgrwt>
<rscale>  0 0.25368420E+04</rscale>
<asrwt>0</asrwt>
<pdfrwt beam="1">  1        2 0.55137926E+00 0.25368420E+04</pdfrwt>
<pdfrwt beam="2">  1       -2 0.69063677E-01 0.25368420E+04</pdfrwt>
<totfact> 0.12083917E+00</totfact>
</mgrwt>
</event>
<event>
 6    1  0.1585031E-006  0.1246794E+04  0.7818608E-02  0.9072856E-01
          1   -1    0    0  501    0  0.00000000000E+00  0.00000000000E+00  0.16748965463E+04  0.16748965463E+04  0.00000000000E+00 0. -1.
         -1   -1    0    0    0  501 -0.00000000000E+00 -0.00000000000E+00 -0.23202867250E+03  0.23202867250E+03  0.00000000000E+00 0.  1.
         23    2    1    2    0    0  0.15576540798E+03  0.43938170383E+03  0.13507278411E+04  0.14317316481E+04  0.89836894081E+02 0.  0.
         13    1    3    3    0    0  0.16126849969E+03  0.35899668000E+03  0.11475920895E+04  0.12131997977E+04  0.00000000000E+00 0. -1.
        -13    1    3    3    0    0 -0.55030917092E+01  0.80385023827E+02  0.20313575155E+03  0.21853185039E+03  0.00000000000E+00 0.  1.
         22    1    1    2    0    0 -0.15576540798E+03 -0.43938170383E+03  0.92140032696E+02  0.47519357068E+03  0.00000000000E+00 0.  1.
<mgrwt>
<rscale>  0 0.12467943E+04</rscale>
<asrwt>0</asrwt>
<pdfrwt beam="1">  1        1 0.25767638E+00 0.12467943E+04</pdfrwt>
<pdfrwt beam="2">  1       -1 0.35696720E-01 0.12467943E+04</pdfrwt>
<totfact> 0.36634586E+01</totfact>
</mgrwt>
</event>
<event>
 6    1  0.1585031E-006  0.2709351E+04  0.7818608E-02  0.8331977E-01
         -1   -1    0    0    0  501 -0.00000000000E+00  0.00000000000E+00  0.26139248623E+04  0.26139248623E+04  0.00000000000E+00 0.  1.
          1   -1    0    0  501    0  0.00000000000E+00 -0.00000000000E+00 -0.70206537472E+03  0.70206537472E+03  0.00000000000E+00 0. -1.
         23    2    1    2    0    0 -0.15550058246E+03  0.67686854640E+03  0.23783263134E+04  0.24793763715E+04  0.92410380751E+02 0.  0.
         13    1    3    3    0    0 -0.63425767398E+02  0.12202827117E+03  0.51165257015E+03  0.52981324962E+03  0.00000000000E+00 0. -1.
        -13    1    3    3    0    0 -0.92074815066E+02  0.55484027523E+03  0.18666737433E+04  0.19495631219E+04  0.00000000000E+00 0.  1.
         22    1    1    2    0    0  0.15550058246E+03 -0.67686854640E+03 -0.46646682585E+03  0.83661386546E+03  0.00000000000E+00 0. -1.
<mgrwt>
<rscale>  0 0.27093513E+04</rscale>
<asrwt>0</asrwt>
<pdfrwt beam="1">  1        1 0.10801006E+00 0.27093513E+04</pdfrwt>
<pdfrwt beam="2">  1       -1 0.40214228E+00 0.27093513E+04</pdfrwt>
<totfact> 0.16359374E-01</totfact>
</mgrwt>
</event>
<event>
 6    1  0.1585031E-006  0.2611176E+04  0.7818608E-02  0.8364415E-01
         -2   -1    0    0    0  501 -0.00000000000E+00  0.00000000000E+00  0.64731425261E+03  0.64731425261E+03  0.00000000000E+00 0.  1.
          2   -1    0    0  501    0  0.00000000000E+00 -0.00000000000E+00 -0.26332801391E+04  0.26332801391E+04  0.00000000000E+00 0. -1.
         23    2    1    2    0    0  0.11620455302E+04  0.51388013441E+03 -0.13626799704E+04  0.18653530908E+04  0.90679903198E+02 0.  0.
         13    1    3    3    0    0  0.45137745855E+03  0.18530339947E+03 -0.46222617248E+03  0.67211010590E+03  0.00000000000E+00 0.  1.
        -13    1    3    3    0    0  0.71066807161E+03  0.32857673494E+03 -0.90045379790E+03  0.11932429849E+04  0.00000000000E+00 0. -1.
         22    1    1    2    0    0 -0.11620455302E+04 -0.51388013441E+03 -0.62328591610E+03  0.14152413009E+04  0.00000000000E+00 0. -1.
<mgrwt>
<rscale>  0 0.26111758E+04</rscale>
<asrwt>0</asrwt>
<pdfrwt beam="1">  1        2 0.40512002E+00 0.26111758E+04</pdfrwt>
<pdfrwt beam="2">  1       -2 0.99586808E-01 0.26111758E+04</pdfrwt>
<totfact> 0.21438926E+00</totfact>
</mgrwt>
</event>
<event>
 6    1  0.1585031E-006  0.1728244E+04  0.7818608E-02  0.8745418E-01
         -2   -1    0    0    0  501 -0.00000000000E+00  0.00000000000E+00  0.52970705530E+03  0.52970705530E+03  0.00000000000E+00 0.  1.
          2   -1    0    0  501    0  0.00000000000E+00 -0.00000000000E+00 -0.14096603511E+04  0.14096603511E+04  0.00000000000E+00 0. -1.
         23    2    1    2    0    0  0.16831456535E+03  0.72999207758E+03  0.36597917501E+02  0.75560883608E+03  0.91580998841E+02 0.  0.
         13    1    3    3    0    0  0.16675736210E+03  0.56526453291E+03  0.41428486407E+02  0.59080312242E+03  0.00000000000E+00 0. -1.
        -13    1    3    3    0    0  0.15572032443E+01  0.16472754467E+03 -0.48305689064E+01  0.16480571365E+03  0.00000000000E+00 0.  1.
         22    1    1    2    0    0 -0.16831456535E+03 -0.72999207758E+03 -0.91655121335E+03  0.11837585704E+04  0.00000000000E+00 0. -1.
<mgrwt>
<rscale>  0 0.17282442E+04</rscale>
<asrwt>0</asrwt>
<pdfrwt beam="1">  1        2 0.21687082E+00 0.17282442E+04</pdfrwt>
<pdfrwt beam="2">  1       -2 0.81493393E-01 0.17282442E+04</pdfrwt>
<totfact> 0.17985544E+01</totfact>
</mgrwt>
</event>
<event>
 6    1  0.1585031E-006  0.1558675E+04  0.7818608E-02  0.8846345E-01
          2   -1    0    0  501    0  0.00000000000E+00  0.00000000000E+00  0.19643885447E+04  0.19643885447E+04  0.00000000000E+00 0. -1.
         -2   -1    0    0    0  501 -0.00000000000E+00 -0.00000000000E+00 -0.30918892645E+03  0.30918892645E+03  0.00000000000E+00 0.  1.
         23    2    1    2    0    0 -0.14220443289E+03 -0.53092054462E+03  0.16309707299E+04  0.17234086203E+04  0.89291797319E+02 0.  0.
         11    1    3    3    0    0 -0.28793683368E+02 -0.13868107845E+03  0.31110677005E+03  0.34183174237E+03  0.00000000000E+00 0. -1.
        -11    1    3    3    0    0 -0.11341074953E+03 -0.39223946617E+03  0.13198639599E+04  0.13815768779E+04  0.00000000000E+00 0.  1.
         22    1    1    2    0    0  0.14220443289E+03  0.53092054462E+03  0.24228888289E+02  0.55016885087E+03  0.00000000000E+00 0.  1.
<mgrwt>
<rscale>  0 0.15586753E+04</rscale>
<asrwt>0</asrwt>
<pdfrwt beam="1">  1        2 0.30221362E+00 0.15586753E+04</pdfrwt>
<pdfrwt beam="2">  1       -2 0.47567528E-01 0.15586753E+04</pdfrwt>
<totfact> 0.28179115E+01</totfact>
</mgrwt>
</event>
<event>
 6    1  0.1585031E-006  0.1033619E+04  0.7818608E-02  0.9272422E-01
         -1   -1    0    0    0  501 -0.00000000000E+00  0.00000000000E+00  0.13764445398E+03  0.13764445398E+03  0.00000000000E+00 0.  1.
          1   -1    0    0  501    0  0.00000000000E+00 -0.00000000000E+00 -0.19404492632E+04  0.19404492632E+04  0.00000000000E+00 0. -1.
         23    2    1    2    0    0  0.34311773668E+03  0.49370736960E+02 -0.16681426622E+04  0.17062050984E+04  0.90932092884E+02 0.  0.
         13    1    3    3    0    0  0.22645895720E+03  0.75712269512E+02 -0.11078814681E+04  0.11333213817E+04  0.00000000000E+00 0.  1.
        -13    1    3    3    0    0  0.11665877948E+03 -0.26341532551E+02 -0.56026119417E+03  0.57288371670E+03  0.00000000000E+00 0. -1.
         22    1    1    2    0    0 -0.34311773668E+03 -0.49370736960E+02 -0.13466214696E+03  0.37188861870E+03  0.00000000000E+00 0.  1.
<mgrwt>
<rscale>  0 0.10336190E+04</rscale>
<asrwt>0</asrwt>
<pdfrwt beam="1">  1        1 0.29853063E+00 0.10336190E+04</pdfrwt>
<pdfrwt beam="2">  1       -1 0.21176072E-01 0.10336190E+04</pdfrwt>
<totfact> 0.61014465E+01</totfact>
</mgrwt>
</event>
<event>
 6    1  0.1585031E-006  0.2365133E+04  0.7818608E-02  0.8452674E-01
         -1   -1    0    0    0  501 -0.00000000000E+00  0.00000000000E+00  0.17798138092E+04  0.17798138092E+04  0.00000000000E+00 0.  1.
          1   -1    0    0  501    0  0.00000000000E+00 -0.00000000000E+00 -0.78573565139E+03  0.78573565139E+03  0.00000000000E+00 0. -1.
         23    2    1    2    0    0 -0.11440590575E+04 -0.54907110796E+02  0.80901828017E+03  0.14053197091E+04  0.92341698450E+02 0.  0.
         11    1    3    3    0    0 -0.46338415640E+03  0.77810856926E+01  0.28561882696E+03  0.54439281407E+03  0.00000000000E+00 0.  1.
        -11    1    3    3    0    0 -0.68067490111E+03 -0.62688196489E+02  0.52339945321E+03  0.86092689504E+03  0.00000000000E+00 0. -1.
         22    1    1    2    0    0  0.11440590575E+04  0.54907110796E+02  0.18505987764E+03  0.11602297515E+04  0.00000000000E+00 0. -1.
<mgrwt>
<rscale>  0 0.23651327E+04</rscale>
<asrwt>0</asrwt>
<pdfrwt beam="1">  1        1 0.12088241E+00 0.23651327E+04</pdfrwt>
<pdfrwt beam="2">  1       -1 0.27381751E+00 0.23651327E+04</pdfrwt>
<totfact> 0.99830908E-01</totfact>
</mgrwt>
</event>
<event>
 6    1  0.1585031E-006  0.1462939E+04  0.7818608E-02  0.8909479E-01
          1   -1    0    0  501    0  0.00000000000E+00  0.00000000000E+00  0.99933112402E+03  0.99933112402E+03  0.00000000000E+00 0. -1.
         -1   -1    0    0    0  501 -0.00000000000E+00 -0.00000000000E+00 -0.53540538626E+03  0.53540538626E+03  0.00000000000E+00 0.  1.
         23    2    1    2    0    0 -0.15726665068E+03 -0.55881594995E+03  0.69466903346E+03  0.91003615503E+03  0.92696667031E+02 0.  0.
         13    1    3    3    0    0 -0.11257167844E+03 -0.23047814765E+03  0.30025892274E+03  0.39490249432E+03  0.00000000000E+00 0. -1.
        -13    1    3    3    0    0 -0.44694972237E+02 -0.32833780230E+03  0.39441011071E+03  0.51513366071E+03  0.00000000000E+00 0.  1.
         22    1    1    2    0    0  0.15726665068E+03  0.55881594995E+03 -0.23074329571E+03  0.62470035525E+03  0.00000000000E+00 0.  1.
<mgrwt>
<rscale>  0 0.14629385E+04</rscale>
<asrwt>0</asrwt>
<pdfrwt beam="1">  1        1 0.15374325E+00 0.14629385E+04</pdfrwt>
<pdfrwt beam="2">  1       -1 0.82370060E-01 0.14629385E+04</pdfrwt>
<totfact> 0.21543095E+01</totfact>
</mgrwt>
</event>
<event>
 6    1  0.1585031E-006  0.7414003E+03  0.7818608E-02  0.9648939E-01
         -1   -1    0    0    0  501 -0.00000000000E+00  0.00000000000E+00  0.13014868774E+03  0.13014868774E+03  0.00000000000E+00 0.  1.
          1   -1    0    0  501    0  0.00000000000E+00 -0.00000000000E+00 -0.10558586296E+04  0.10558586296E+04  0.00000000000E+00 0. -1.
         23    2    1    2    0    0  0.15306985738E+02 -0.30088885996E+03 -0.14010527036E+03  0.34461376511E+03  0.91437139385E+02 0.  0.
         13    1    3    3    0    0  0.19697092538E+02 -0.46039672434E+02 -0.58447708410E+02  0.76965976319E+02  0.00000000000E+00 0. -1.
        -13    1    3    3    0    0 -0.43901068005E+01 -0.25484918753E+03 -0.81657561954E+02  0.26764778879E+03  0.00000000000E+00 0.  1.
         22    1    1    2    0    0 -0.15306985738E+02  0.30088885996E+03 -0.78560467152E+03  0.84139355225E+03  0.00000000000E+00 0. -1.
<mgrwt>
<rscale>  0 0.74140034E+03</rscale>
<asrwt>0</asrwt>
<pdfrwt beam="1">  1        1 0.16243979E+00 0.74140034E+03</pdfrwt>
<pdfrwt beam="2">  1       -1 0.20022875E-01 0.74140034E+03</pdfrwt>
<totfact> 0.28295005E+02</totfact>
</mgrwt>
</event>
<event>
 6    1  0.1585031E-006  0.9349604E+03  0.7818608E-02  0.9382904E-01
          2   -1    0    0  501    0  0.00000000000E+00  0.00000000000E+00  0.49967649743E+03  0.49967649743E+03  0.00000000000E+00 0. -1.
         -2   -1    0    0    0  501 -0.00000000000E+00 -0.00000000000E+00 -0.43735848439E+03  0.43735848439E+03  0.00000000000E+00 0.  1.
         23    2    1    2    0    0  0.41347172845E+03  0.74581097468E+02 -0.16491047689E+03  0.45938029801E+03  0.85519485973E+02 0.  0.
         13    1    3    3    0    0  0.29584476620E+03  0.53164087076E+02 -0.75038943764E+02  0.30980863274E+03  0.00000000000E+00 0. -1.
        -13    1    3    3    0    0  0.11762696226E+03  0.21417010392E+02 -0.89871533130E+02  0.14957166527E+03  0.00000000000E+00 0.  1.
         22    1    1    2    0    0 -0.41347172845E+03 -0.74581097468E+02  0.22722848993E+03  0.47765468381E+03  0.00000000000E+00 0. -1.
<mgrwt>
<rscale>  0 0.93496044E+03</rscale>
<asrwt>0</asrwt>
<pdfrwt beam="1">  1        2 0.76873307E-01 0.93496044E+03</pdfrwt>
<pdfrwt beam="2">  1       -2 0.67285921E-01 0.93496044E+03</pdfrwt>
<totfact> 0.12516261E+02</totfact>
</mgrwt>
</event>
<event>
 6    1  0.1585031E-006  0.2298446E+04  0.7818608E-02  0.8478534E-01
          1   -1    0    0  501    0  0.00000000000E+00  0.00000000000E+00  0.14684889284E+04  0.14684889284E+04  0.00000000000E+00 0. -1.
         -1   -1    0    0    0  501 -0.00000000000E+00 -0.00000000000E+00 -0.89936913383E+03  0.89936913383E+03  0.00000000000E+00 0.  1.
         23    2    1    2    0    0 -0.34243126023E+03 -0.54438640103E+03  0.12639096926E+04  0.14211011114E+04  0.91896334795E+02 0.  0.
         13    1    3    3    0    0 -0.12316731998E+03 -0.20498222275E+03  0.56974091934E+03  0.61789369274E+03  0.00000000000E+00 0.  1.
        -13    1    3    3    0    0 -0.21926394025E+03 -0.33940417828E+03  0.69416877323E+03  0.80320741870E+03  0.00000000000E+00 0. -1.
         22    1    1    2    0    0  0.34243126023E+03  0.54438640103E+03 -0.69478989797E+03  0.94675695083E+03  0.00000000000E+00 0.  1.
<mgrwt>
<rscale>  0 0.22984461E+04</rscale>
<asrwt>0</asrwt>
<pdfrwt beam="1">  1        1 0.22592137E+00 0.22984461E+04</pdfrwt>
<pdfrwt beam="2">  1       -1 0.13836448E+00 0.22984461E+04</pdfrwt>
<totfact> 0.26884156E+00</totfact>
</mgrwt>
</event>
<event>
 6    1  0.1585031E-006  0.2079683E+04  0.7818608E-02  0.8570246E-01
          1   -1    0    0  501    0  0.00000000000E+00  0.00000000000E+00  0.35786965109E+04  0.35786965109E+04  0.00000000000E+00 0. -1.
         -1   -1    0    0    0  501 -0.00000000000E+00 -0.00000000000E+00 -0.30214080257E+03  0.30214080257E+03  0.00000000000E+00 0.  1.
         23    2    1    2    0    0 -0.89893108475E+03 -0.20240723058E+03  0.75021920836E+03  0.11917069906E+04  0.91054427667E+02 0.  0.
         13    1    3    3    0    0 -0.60661722821E+03 -0.14039854729E+03  0.45098394886E+03  0.76881905269E+03  0.00000000000E+00 0. -1.
        -13    1    3    3    0    0 -0.29231385654E+03 -0.62008683290E+02  0.29923525951E+03  0.42288793794E+03  0.00000000000E+00 0.  1.
         22    1    1    2    0    0  0.89893108475E+03  0.20240723058E+03  0.25263364999E+04  0.26891303228E+04  0.00000000000E+00 0. -1.
<mgrwt>
<rscale>  0 0.20796829E+04</rscale>
<asrwt>0</asrwt>
<pdfrwt beam="1">  1        1 0.55056867E+00 0.20796829E+04</pdfrwt>
<pdfrwt beam="2">  1       -1 0.46483203E-01 0.20796829E+04</pdfrwt>
<totfact> 0.92248970E-01</totfact>
</mgrwt>
</event>
<event>
 6    1  0.1585031E-006  0.2171646E+04  0.7818608E-02  0.8530323E-01
          2   -1    0    0  501    0  0.00000000000E+00  0.00000000000E+00  0.17192997612E+04  0.17192997612E+04  0.00000000000E+00 0. -1.
         -2   -1    0    0    0  501 -0.00000000000E+00 -0.00000000000E+00 -0.68575132968E+03  0.68575132968E+03  0.00000000000E+00 0.  1.
         23    2    1    2    0    0  0.48009943329E+03  0.82007014399E+03 -0.59807628933E+02  0.95645246399E+03  0.90630328814E+02 0.  0.
         13    1    3    3    0    0  0.25741314875E+03  0.45520321545E+03  0.11606659508E+02  0.52307381033E+03  0.00000000000E+00 0.  1.
        -13    1    3    3    0    0  0.22268628453E+03  0.36486692854E+03 -0.71414288441E+02  0.43337865367E+03  0.00000000000E+00 0. -1.
         22    1    1    2    0    0 -0.48009943329E+03 -0.82007014399E+03  0.10933560605E+04  0.14485986269E+04  0.00000000000E+00 0. -1.
<mgrwt>
<rscale>  0 0.21716465E+04</rscale>
<asrwt>0</asrwt>
<pdfrwt beam="1">  1        2 0.26450765E+00 0.21716465E+04</pdfrwt>
<pdfrwt beam="2">  1       -2 0.10550021E+00 0.21716465E+04</pdfrwt>
<totfact> 0.63704025E+00</totfact>
</mgrwt>
</event>
<event>
 6    1  0.1585031E-006  0.3279429E+04  0.7818608E-02  0.8168149E-01
         -2   -1    0    0    0  501 -0.00000000000E+00  0.00000000000E+00  0.79805025766E+03  0.79805025766E+03  0.00000000000E+00 0.  1.
          2   -1    0    0  501    0  0.00000000000E+00 -0.00000000000E+00 -0.33690413168E+04  0.33690413168E+04  0.00000000000E+00 0. -1.
         23    2    1    2    0    0  0.12172382695E+04 -0.57777966686E+02 -0.26781282727E+04  0.29437822593E+04  0.92063277439E+02 0.  0.
         13    1    3    3    0    0  0.58803727338E+03 -0.35772670516E+02 -0.14040475464E+04  0.15226348976E+04  0.00000000000E+00 0.  1.
        -13    1    3    3    0    0  0.62920099612E+03 -0.22005296169E+02 -0.12740807263E+04  0.14211473617E+04  0.00000000000E+00 0. -1.
         22    1    1    2    0    0 -0.12172382695E+04  0.57777966686E+02  0.10713721350E+03  0.12233093152E+04  0.00000000000E+00 0.  1.
<mgrwt>
<rscale>  0 0.32794294E+04</rscale>
<asrwt>0</asrwt>
<pdfrwt beam="1">  1        2 0.51831405E+00 0.32794294E+04</pdfrwt>
<pdfrwt beam="2">  1       -2 0.12277696E+00 0.32794294E+04</pdfrwt>
<totfact> 0.41942860E-01</totfact>
</mgrwt>
</event>
<event>
 6    1  0.1585031E-006  0.1204596E+04  0.7818608E-02  0.9108843E-01
         -2   -1    0    0    0  501 -0.00000000000E+00  0.00000000000E+00  0.24136053340E+03  0.24136053340E+03  0.00000000000E+00 0.  1.
          2   -1    0    0  501    0  0.00000000000E+00 -0.00000000000E+00 -0.15029922682E+04  0.15029922682E+04  0.00000000000E+00 0. -1.
         23    2    1    2    0    0  0.16063839716E+03 -0.22912841609E+03 -0.14011382460E+04  0.14316763037E+04  0.90576643780E+02 0.  0.
         11    1    3    3    0    0  0.96259567599E+02 -0.10759358395E+03 -0.51202009344E+03  0.53198389050E+03  0.00000000000E+00 0. -1.
        -11    1    3    3    0    0  0.64378829561E+02 -0.12153483214E+03 -0.88911815257E+03  0.89969241319E+03  0.00000000000E+00 0.  1.
         22    1    1    2    0    0 -0.16063839716E+03  0.22912841609E+03  0.13950651119E+03  0.31267649794E+03  0.00000000000E+00 0.  1.
<mgrwt>
<rscale>  0 0.12045962E+04</rscale>
<asrwt>0</asrwt>
<pdfrwt beam="1">  1        2 0.23122958E+00 0.12045962E+04</pdfrwt>
<pdfrwt beam="2">  1       -2 0.37132389E-01 0.12045962E+04</pdfrwt>
<totfact> 0.85223185E+01</totfact>
</mgrwt>
</event>
<event>
 6    1  0.1585031E-006  0.9593958E+03  0.7818608E-02  0.9354235E-01
          2   -1    0    0  501    0  0.00000000000E+00  0.00000000000E+00  0.18261060794E+03  0.18261060794E+03  0.00000000000E+00 0. -1.
         -2   -1    0    0    0  501 -0.00000000000E+00 -0.00000000000E+00 -0.12601135282E+04  0.12601135282E+04  0.00000000000E+00 0.  1.
         23    2    1    2    0    0 -0.38415777837E+03  0.19662530527E+02 -0.96357076519E+03  0.10415454356E+04  0.91566703243E+02 0.  0.
         11    1    3    3    0    0 -0.20465172331E+03 -0.20560555326E+02 -0.41936424778E+03  0.46708825355E+03  0.00000000000E+00 0. -1.
        -11    1    3    3    0    0 -0.17950605505E+03  0.40223085854E+02 -0.54420651740E+03  0.57445718206E+03  0.00000000000E+00 0.  1.
         22    1    1    2    0    0  0.38415777837E+03 -0.19662530527E+02 -0.11393215507E+03  0.40117870051E+03  0.00000000000E+00 0. -1.
<mgrwt>
<rscale>  0 0.95939585E+03</rscale>
<asrwt>0</asrwt>
<pdfrwt beam="1">  1        2 0.28093939E-01 0.95939585E+03</pdfrwt>
<pdfrwt beam="2">  1       -2 0.19386362E+00 0.95939585E+03</pdfrwt>
<totfact> 0.28066811E+01</totfact>
</mgrwt>
</event>
<event>
 6    1  0.1585031E-006  0.5228437E+04  0.7818608E-02  0.7794203E-01
         -2   -1    0    0    0  501 -0.00000000000E+00  0.00000000000E+00  0.22049628742E+04  0.22049628742E+04  0.00000000000E+00 0.  1.
          2   -1    0    0  501    0  0.00000000000E+00 -0.00000000000E+00 -0.30994346336E+04  0.30994346336E+04  0.00000000000E+00 0. -1.
         23    2    1    2    0    0  0.20958503794E+04 -0.15482254911E+04 -0.65081677798E+03  0.26873459733E+04  0.93139237076E+02 0.  0.
         11    1    3    3    0    0  0.46302622625E+03 -0.29621872854E+03 -0.12777443082E+03  0.56432714493E+03  0.00000000000E+00 0. -1.
        -11    1    3    3    0    0  0.16328241531E+04 -0.12520067626E+04 -0.52304234716E+03  0.21230188284E+04  0.00000000000E+00 0.  1.
         22    1    1    2    0    0 -0.20958503794E+04  0.15482254911E+04 -0.24365498146E+03  0.26170515345E+04  0.00000000000E+00 0.  1.
<mgrwt>
<rscale>  0 0.52284370E+04</rscale>
<asrwt>0</asrwt>
<pdfrwt beam="1">  1        2 0.47683610E+00 0.52284370E+04</pdfrwt>
<pdfrwt beam="2">  1       -2 0.33922506E+00 0.52284370E+04</pdfrwt>
<totfact> 0.19567440E-02</totfact>
</mgrwt>
</event>
<event>
 6    1  0.1585031E-006  0.2286012E+04  0.7818608E-02  0.8483457E-01
         -1   -1    0    0    0  501 -0.00000000000E+00  0.00000000000E+00  0.56454020753E+03  0.56454020753E+03  0.00000000000E+00 0.  1.
          1   -1    0    0  501    0  0.00000000000E+00 -0.00000000000E+00 -0.23142076413E+04  0.23142076413E+04  0.00000000000E+00 0. -1.
         23    2    1    2    0    0  0.74031297445E+03 -0.69108882631E+03 -0.15382166682E+04  0.18441568706E+04  0.95587546712E+02 0.  0.
         13    1    3    3    0    0  0.36869371872E+03 -0.30571576919E+03 -0.65668302040E+03  0.81279135025E+03  0.00000000000E+00 0.  1.
        -13    1    3    3    0    0  0.37161925574E+03 -0.38537305712E+03 -0.88153364779E+03  0.10313655204E+04  0.00000000000E+00 0. -1.
         22    1    1    2    0    0 -0.74031297445E+03  0.69108882631E+03 -0.21145076560E+03  0.10345909782E+04  0.00000000000E+00 0.  1.
<mgrwt>
<rscale>  0 0.22860125E+04</rscale>
<asrwt>0</asrwt>
<pdfrwt beam="1">  1        1 0.35603194E+00 0.22860125E+04</pdfrwt>
<pdfrwt beam="2">  1       -1 0.86852340E-01 0.22860125E+04</pdfrwt>
<totfact> 0.21509436E+00</totfact>
</mgrwt>
</event>
<event>
 6    1  0.1585031E-006  0.1548587E+04  0.7818608E-02  0.8852771E-01
         -2   -1    0    0    0  501 -0.00000000000E+00  0.00000000000E+00  0.38193102110E+03  0.38193102110E+03  0.00000000000E+00 0.  1.
          2   -1    0    0  501    0  0.00000000000E+00 -0.00000000000E+00 -0.15697340042E+04  0.15697340042E+04  0.00000000000E+00 0. -1.
         23    2    1    2    0    0 -0.27776592599E+03 -0.99430382594E+02 -0.14945114519E+04  0.15260943550E+04  0.91428605314E+02 0.  0.
         13    1    3    3    0    0 -0.12393277169E+02  0.54508895625E+01 -0.20230672661E+03  0.20275925909E+03  0.00000000000E+00 0.  1.
        -13    1    3    3    0    0 -0.26537264882E+03 -0.10488127216E+03 -0.12922047253E+04  0.13233350959E+04  0.00000000000E+00 0. -1.
         22    1    1    2    0    0  0.27776592599E+03  0.99430382594E+02  0.30670846877E+03  0.42557067032E+03  0.00000000000E+00 0.  1.
<mgrwt>
<rscale>  0 0.15485866E+04</rscale>
<asrwt>0</asrwt>
<pdfrwt beam="1">  1        2 0.24149754E+00 0.15485866E+04</pdfrwt>
<pdfrwt beam="2">  1       -2 0.58758619E-01 0.15485866E+04</pdfrwt>
<totfact> 0.30214021E+01</totfact>
</mgrwt>
</event>
<event>
 6    1  0.1585031E-006  0.2175421E+04  0.7818608E-02  0.8528729E-01
         -1   -1    0    0    0  501 -0.00000000000E+00  0.00000000000E+00  0.16888741143E+04  0.16888741143E+04  0.00000000000E+00 0.  1.
          1   -1    0    0  501    0  0.00000000000E+00 -0.00000000000E+00 -0.70053404744E+03  0.70053404744E+03  0.00000000000E+00 0. -1.
         23    2    1    2    0    0  0.90527889984E+03  0.35473969275E+03 -0.35656103055E+02  0.97733936308E+03  0.92470194330E+02 0.  0.
         13    1    3    3    0    0  0.65868866806E+03  0.26983829471E+03 -0.65579084669E+02  0.71483150677E+03  0.00000000000E+00 0. -1.
        -13    1    3    3    0    0  0.24659023178E+03  0.84901398039E+02  0.29922981614E+02  0.26250785631E+03  0.00000000000E+00 0.  1.
         22    1    1    2    0    0 -0.90527889984E+03 -0.35473969275E+03  0.10239961699E+04  0.14120687986E+04  0.00000000000E+00 0.  1.
<mgrwt>
<rscale>  0 0.21754207E+04</rscale>
<asrwt>0</asrwt>
<pdfrwt beam="1">  1        1 0.10777447E+00 0.21754207E+04</pdfrwt>
<pdfrwt beam="2">  1       -1 0.25982679E+00 0.21754207E+04</pdfrwt>
<totfact> 0.14957315E+00</totfact>
</mgrwt>
</event>
<event>
 6    1  0.1585031E-006  0.8519086E+03  0.7818608E-02  0.9487779E-01
          2   -1    0    0  501    0  0.00000000000E+00  0.00000000000E+00  0.17804348881E+04  0.17804348881E+04  0.00000000000E+00 0. -1.
         -2   -1    0    0    0  501 -0.00000000000E+00 -0.00000000000E+00 -0.10190603633E+03  0.10190603633E+03  0.00000000000E+00 0.  1.
         23    2    1    2    0    0  0.23079806361E+03 -0.32090284776E+03  0.11704717565E+04  0.12386263946E+04  0.89133768963E+02 0.  0.
         13    1    3    3    0    0  0.16216253701E+03 -0.18478617403E+03  0.60700823294E+03  0.65490580497E+03  0.00000000000E+00 0.  1.
        -13    1    3    3    0    0  0.68635526598E+02 -0.13611667373E+03  0.56346352356E+03  0.58372058963E+03  0.00000000000E+00 0. -1.
         22    1    1    2    0    0 -0.23079806361E+03  0.32090284776E+03  0.50805709528E+03  0.64371452984E+03  0.00000000000E+00 0. -1.
<mgrwt>
<rscale>  0 0.85190859E+03</rscale>
<asrwt>0</asrwt>
<pdfrwt beam="1">  1        2 0.27391304E+00 0.85190859E+03</pdfrwt>
<pdfrwt beam="2">  1       -2 0.15677853E-01 0.85190859E+03</pdfrwt>
<totfact> 0.29079805E+02</totfact>
</mgrwt>
</event>
<event>
 6    1  0.1585031E-006  0.2064964E+04  0.7818608E-02  0.8576836E-01
         -2   -1    0    0    0  501 -0.00000000000E+00  0.00000000000E+00  0.91719253610E+03  0.91719253610E+03  0.00000000000E+00 0.  1.
          2   -1    0    0  501    0  0.00000000000E+00 -0.00000000000E+00 -0.11622629340E+04  0.11622629340E+04  0.00000000000E+00 0. -1.
         23    2    1    2    0    0 -0.86556378358E+03  0.18568124757E+02 -0.68561916873E+03  0.11080499636E+04  0.90308573955E+02 0.  0.
         11    1    3    3    0    0 -0.54655584923E+03  0.55274442240E+02 -0.43112606540E+03  0.69831815425E+03  0.00000000000E+00 0. -1.
        -11    1    3    3    0    0 -0.31900793436E+03 -0.36706317483E+02 -0.25449310333E+03  0.40973180932E+03  0.00000000000E+00 0.  1.
         22    1    1    2    0    0  0.86556378358E+03 -0.18568124757E+02  0.44054877081E+03  0.97140550656E+03  0.00000000000E+00 0.  1.
<mgrwt>
<rscale>  0 0.20649638E+04</rscale>
<asrwt>0</asrwt>
<pdfrwt beam="1">  1        2 0.17880968E+00 0.20649638E+04</pdfrwt>
<pdfrwt beam="2">  1       -2 0.14110654E+00 0.20649638E+04</pdfrwt>
<totfact> 0.64906683E+00</totfact>
</mgrwt>
</event>
<event>
 6    1  0.1585031E-006  0.2443005E+04  0.7818608E-02  0.8423576E-01
         -2   -1    0    0    0  501 -0.00000000000E+00  0.00000000000E+00  0.13536568456E+04  0.13536568456E+04  0.00000000000E+00 0.  1.
          2   -1    0    0  501    0  0.00000000000E+00 -0.00000000000E+00 -0.11022500420E+04  0.11022500420E+04  0.00000000000E+00 0. -1.
         23    2    1    2    0    0  0.20666865481E+03 -0.57754304971E+03  0.11858111303E+04  0.13381504952E+04  0.90723777648E+02 0.  0.
         11    1    3    3    0    0  0.81425765612E+02 -0.20661631653E+03  0.33968172216E+03  0.40583756594E+03  0.00000000000E+00 0. -1.
        -11    1    3    3    0    0  0.12524288920E+03 -0.37092673318E+03  0.84612940814E+03  0.93231292922E+03  0.00000000000E+00 0.  1.
         22    1    1    2    0    0 -0.20666865481E+03  0.57754304971E+03 -0.93440432669E+03  0.11177563925E+04  0.00000000000E+00 0. -1.
<mgrwt>
<rscale>  0 0.24430050E+04</rscale>
<asrwt>0</asrwt>
<pdfrwt beam="1">  1        2 0.16957693E+00 0.24430050E+04</pdfrwt>
<pdfrwt beam="2">  1       -2 0.20825490E+00 0.24430050E+04</pdfrwt>
<totfact> 0.22864903E+00</totfact>
</mgrwt>
</event>
<event>
 6    1  0.1585031E-006  0.2743089E+04  0.7818608E-02  0.8321158E-01
          1   -1    0    0  501    0  0.00000000000E+00  0.00000000000E+00  0.15615052256E+04  0.15615052256E+04  0.00000000000E+00 0. -1.
         -1   -1    0    0    0  501 -0.00000000000E+00 -0.00000000000E+00 -0.12046932126E+04  0.12046932126E+04  0.00000000000E+00 0.  1.
         23    2    1    2    0    0  0.83558407149E+03  0.10185966746E+04 -0.20043934944E+03  0.13357198446E+04  0.90728409502E+02 0.  0.
         13    1    3    3    0    0  0.30792155826E+03  0.42866605676E+03 -0.51039948716E+02  0.53025970111E+03  0.00000000000E+00 0. -1.
        -13    1    3    3    0    0  0.52766251322E+03  0.58993061786E+03 -0.14939940072E+03  0.80546014345E+03  0.00000000000E+00 0.  1.
         22    1    1    2    0    0 -0.83558407149E+03 -0.10185966746E+04  0.55725136244E+03  0.14304785937E+04  0.00000000000E+00 0.  1.
<mgrwt>
<rscale>  0 0.27430893E+04</rscale>
<asrwt>0</asrwt>
<pdfrwt beam="1">  1        1 0.24023157E+00 0.27430893E+04</pdfrwt>
<pdfrwt beam="2">  1       -1 0.18533742E+00 0.27430893E+04</pdfrwt>
<totfact> 0.98360845E-01</totfact>
</mgrwt>
</event>
<event>
 6    1  0.1585031E-006  0.1298199E+04  0.7818608E-02  0.9030994E-01
          2   -1    0    0  501    0  0.00000000000E+00  0.00000000000E+00  0.10640417670E+04  0.10640417670E+04  0.00000000000E+00 0. -1.
         -2   -1    0    0    0  501 -0.00000000000E+00 -0.00000000000E+00 -0.39597161766E+03  0.39597161766E+03  0.00000000000E+00 0.  1.
         23    2    1    2    0    0  0.52366948360E+03 -0.15126415653E+03 -0.54603981155E+02  0.55482364102E+03  0.87960813864E+02 0.  0.
         13    1    3    3    0    0  0.40641236165E+03 -0.12463260406E+03 -0.78362119276E+02  0.43225561354E+03  0.00000000000E+00 0. -1.
        -13    1    3    3    0    0  0.11725712194E+03 -0.26631552471E+02  0.23758138121E+02  0.12256802748E+03  0.00000000000E+00 0.  1.
         22    1    1    2    0    0 -0.52366948360E+03  0.15126415653E+03  0.72267413047E+03  0.90518974362E+03  0.00000000000E+00 0. -1.
<mgrwt>
<rscale>  0 0.12981993E+04</rscale>
<asrwt>0</asrwt>
<pdfrwt beam="1">  1        2 0.16369873E+00 0.12981993E+04</pdfrwt>
<pdfrwt beam="2">  1       -2 0.60918711E-01 0.12981993E+04</pdfrwt>
<totfact> 0.56395256E+01</totfact>
</mgrwt>
</event>
<event>
 6    1  0.1585031E-006  0.3467423E+04  0.7818608E-02  0.8121554E-01
         -1   -1    0    0    0  501 -0.00000000000E+00  0.00000000000E+00  0.24159308700E+04  0.24159308700E+04  0.00000000000E+00 0.  1.
          1   -1    0    0  501    0  0.00000000000E+00 -0.00000000000E+00 -0.12441396780E+04  0.12441396780E+04  0.00000000000E+00 0. -1.
         23    2    1    2    0    0  0.80183971322E+02  0.16590569290E+04  0.11061681645E+04  0.19977812397E+04  0.92857475081E+02 0.  0.
         13    1    3    3    0    0  0.11472571373E+02  0.63409975837E+03  0.37352234961E+03  0.73602518239E+03  0.00000000000E+00 0.  1.
        -13    1    3    3    0    0  0.68711399949E+02  0.10249571706E+04  0.73264581486E+03  0.12617560573E+04  0.00000000000E+00 0. -1.
         22    1    1    2    0    0 -0.80183971322E+02 -0.16590569290E+04  0.65623027472E+02  0.16622893083E+04  0.00000000000E+00 0. -1.
<mgrwt>
<rscale>  0 0.34674229E+04</rscale>
<asrwt>0</asrwt>
<pdfrwt beam="1">  1        1 0.19140611E+00 0.34674229E+04</pdfrwt>
<pdfrwt beam="2">  1       -1 0.37168167E+00 0.34674229E+04</pdfrwt>
<totfact> 0.90316685E-02</totfact>
</mgrwt>
</event>
<event>
 6    1  0.1585031E-006  0.1654309E+04  0.7818608E-02  0.8787862E-01
         -1   -1    0    0    0  501 -0.00000000000E+00  0.00000000000E+00  0.25763096801E+04  0.25763096801E+04  0.00000000000E+00 0.  1.
          1   -1    0    0  501    0  0.00000000000E+00 -0.00000000000E+00 -0.26556759404E+03  0.26556759404E+03  0.00000000000E+00 0. -1.
         23    2    1    2    0    0  0.62159386403E+03 -0.44984788742E+03  0.16781281955E+04  0.18474214490E+04  0.90053962386E+02 0.  0.
         13    1    3    3    0    0  0.26673669009E+03 -0.21992278022E+03  0.66211367944E+03  0.74693307304E+03  0.00000000000E+00 0.  1.
        -13    1    3    3    0    0  0.35485717395E+03 -0.22992510720E+03  0.10160145160E+04  0.11004883760E+04  0.00000000000E+00 0. -1.
         22    1    1    2    0    0 -0.62159386403E+03  0.44984788742E+03  0.63261389063E+03  0.99445582518E+03  0.00000000000E+00 0. -1.
<mgrwt>
<rscale>  0 0.16543088E+04</rscale>
<asrwt>0</asrwt>
<pdfrwt beam="1">  1        1 0.40856555E-01 0.16543088E+04</pdfrwt>
<pdfrwt beam="2">  1       -1 0.39635532E+00 0.16543088E+04</pdfrwt>
<totfact> 0.74730797E-01</totfact>
</mgrwt>
</event>
<event>
 6    1  0.1585031E-006  0.2458674E+04  0.7818608E-02  0.8417858E-01
          1   -1    0    0  501    0  0.00000000000E+00  0.00000000000E+00  0.14069060232E+04  0.14069060232E+04  0.00000000000E+00 0. -1.
         -1   -1    0    0    0  501 -0.00000000000E+00 -0.00000000000E+00 -0.10741791875E+04  0.10741791875E+04  0.00000000000E+00 0.  1.
         23    2    1    2    0    0  0.86399067351E+03  0.64683413023E+03 -0.42376766868E+03  0.11630722324E+04  0.91014860546E+02 0.  0.
         13    1    3    3    0    0  0.48665542882E+03  0.32885690513E+03 -0.19227089267E+03  0.61801979468E+03  0.00000000000E+00 0. -1.
        -13    1    3    3    0    0  0.37733524468E+03  0.31797722510E+03 -0.23149677601E+03  0.54505243772E+03  0.00000000000E+00 0.  1.
         22    1    1    2    0    0 -0.86399067351E+03 -0.64683413023E+03  0.75649450437E+03  0.13180129783E+04  0.00000000000E+00 0. -1.
<mgrwt>
<rscale>  0 0.24586738E+04</rscale>
<asrwt>0</asrwt>
<pdfrwt beam="1">  1        1 0.21644708E+00 0.24586738E+04</pdfrwt>
<pdfrwt beam="2">  1       -1 0.16525834E+00 0.24586738E+04</pdfrwt>
<totfact> 0.18073526E+00</totfact>
</mgrwt>
</event>
<event>
 6    1  0.1585031E-006  0.1133553E+04  0.7818608E-02  0.9173092E-01
          1   -1    0    0  501    0  0.00000000000E+00  0.00000000000E+00  0.14070715745E+04  0.14070715745E+04  0.00000000000E+00 0. -1.
         -1   -1    0    0    0  501 -0.00000000000E+00 -0.00000000000E+00 -0.22830080720E+03  0.22830080720E+03  0.00000000000E+00 0.  1.
         23    2    1    2    0    0 -0.21915237467E+02 -0.45909842950E+03  0.12353568973E+03  0.48438466911E+03  0.90087709654E+02 0.  0.
         13    1    3    3    0    0  0.47062524105E+01 -0.36810963588E+03  0.12724146317E+03  0.38950897652E+03  0.00000000000E+00 0. -1.
        -13    1    3    3    0    0 -0.26621489878E+02 -0.90988793617E+02 -0.37057734455E+01  0.94875692588E+02  0.00000000000E+00 0.  1.
         22    1    1    2    0    0  0.21915237467E+02  0.45909842950E+03  0.10552350776E+04  0.11509877126E+04  0.00000000000E+00 0. -1.
<mgrwt>
<rscale>  0 0.11335530E+04</rscale>
<asrwt>0</asrwt>
<pdfrwt beam="1">  1        1 0.21647255E+00 0.11335530E+04</pdfrwt>
<pdfrwt beam="2">  1       -1 0.35123202E-01 0.11335530E+04</pdfrwt>
<totfact> 0.58206121E+01</totfact>
</mgrwt>
</event>
<event>
 6    1  0.1585031E-006  0.8884936E+03  0.7818608E-02  0.9440080E-01
          1   -1    0    0  501    0  0.00000000000E+00  0.00000000000E+00  0.25276796477E+04  0.25276796477E+04  0.00000000000E+00 0. -1.
         -1   -1    0    0    0  501 -0.00000000000E+00 -0.00000000000E+00 -0.78077622726E+02  0.78077622726E+02  0.00000000000E+00 0.  1.
         23    2    1    2    0    0  0.19597001652E+03 -0.20686618356E+02  0.23900778492E+04  0.23999046264E+04  0.90762915650E+02 0.  0.
         11    1    3    3    0    0  0.23421931440E+02 -0.32687796091E+02  0.30018771175E+03  0.30286918161E+03  0.00000000000E+00 0.  1.
        -11    1    3    3    0    0  0.17254808508E+03  0.12001177736E+02  0.20898901375E+04  0.20970354448E+04  0.00000000000E+00 0. -1.
         22    1    1    2    0    0 -0.19597001652E+03  0.20686618356E+02  0.59524175735E+02  0.20585264402E+03  0.00000000000E+00 0.  1.
<mgrwt>
<rscale>  0 0.88849360E+03</rscale>
<asrwt>0</asrwt>
<pdfrwt beam="1">  1        1 0.38887373E+00 0.88849360E+03</pdfrwt>
<pdfrwt beam="2">  1       -1 0.12011944E-01 0.88849360E+03</pdfrwt>
<totfact> 0.62771489E+01</totfact>
</mgrwt>
</event>
<event>
 6    1  0.1585031E-006  0.1461631E+04  0.7818608E-02  0.8910376E-01
          2   -1    0    0  501    0  0.00000000000E+00  0.00000000000E+00  0.12325000532E+04  0.12325000532E+04  0.00000000000E+00 0.  1.
         -2   -1    0    0    0  501 -0.00000000000E+00 -0.00000000000E+00 -0.43333989232E+03  0.43333989232E+03  0.00000000000E+00 0. -1.
         23    2    1    2    0    0 -0.38314068354E+03 -0.49115714184E+03  0.83064002158E+03  0.10421227796E+04  0.89581923356E+02 0.  0.
         11    1    3    3    0    0 -0.36385500318E+03 -0.47432095562E+03  0.81908037165E+03  0.10140332773E+04  0.00000000000E+00 0.  1.
        -11    1    3    3    0    0 -0.19285680361E+02 -0.16836186217E+02  0.11559649931E+02  0.28089502306E+02  0.00000000000E+00 0. -1.
         22    1    1    2    0    0  0.38314068354E+03  0.49115714184E+03 -0.31479860736E+02  0.62371716586E+03  0.00000000000E+00 0. -1.
<mgrwt>
<rscale>  0 0.14616312E+04</rscale>
<asrwt>0</asrwt>
<pdfrwt beam="1">  1        2 0.18961539E+00 0.14616312E+04</pdfrwt>
<pdfrwt beam="2">  1       -2 0.66667676E-01 0.14616312E+04</pdfrwt>
<totfact> 0.36281809E+01</totfact>
</mgrwt>
</event>
<event>
 6    1  0.1585031E-006  0.1826058E+04  0.7818608E-02  0.8692564E-01
          1   -1    0    0  501    0  0.00000000000E+00  0.00000000000E+00  0.16230178081E+04  0.16230178081E+04  0.00000000000E+00 0. -1.
         -1   -1    0    0    0  501 -0.00000000000E+00 -0.00000000000E+00 -0.51362471515E+03  0.51362471515E+03  0.00000000000E+00 0.  1.
         23    2    1    2    0    0  0.44528246615E+03  0.48518742807E+03 -0.17966732822E+03  0.68910665687E+03  0.94362708261E+02 0.  0.
         11    1    3    3    0    0  0.15691056618E+02  0.27758529448E+02  0.10211784992E+02  0.33481722889E+02  0.00000000000E+00 0. -1.
        -11    1    3    3    0    0  0.42959140953E+03  0.45742889862E+03 -0.18987911321E+03  0.65562493399E+03  0.00000000000E+00 0.  1.
         22    1    1    2    0    0 -0.44528246615E+03 -0.48518742807E+03  0.12890604211E+04  0.14475358664E+04  0.00000000000E+00 0. -1.
<mgrwt>
<rscale>  0 0.18260581E+04</rscale>
<asrwt>0</asrwt>
<pdfrwt beam="1">  1        1 0.24969505E+00 0.18260581E+04</pdfrwt>
<pdfrwt beam="2">  1       -1 0.79019188E-01 0.18260581E+04</pdfrwt>
<totfact> 0.81121175E+00</totfact>
</mgrwt>
</event>
<event>
 6    1  0.1585031E-006  0.1033627E+04  0.7818608E-02  0.9272414E-01
         -1   -1    0    0    0  501 -0.00000000000E+00  0.00000000000E+00  0.52472776714E+03  0.52472776714E+03  0.00000000000E+00 0.  1.
          1   -1    0    0  501    0  0.00000000000E+00 -0.00000000000E+00 -0.50901833948E+03  0.50901833948E+03  0.00000000000E+00 0. -1.
         23    2    1    2    0    0 -0.26189707013E+03 -0.12456230005E+03  0.43127756825E+03  0.52698904312E+03  0.87242585673E+02 0.  0.
         11    1    3    3    0    0 -0.21554438505E+03 -0.11918397785E+03  0.30294219057E+03  0.39043331483E+03  0.00000000000E+00 0. -1.
        -11    1    3    3    0    0 -0.46352685081E+02 -0.53783222008E+01  0.12833537768E+03  0.13655572829E+03  0.00000000000E+00 0.  1.
         22    1    1    2    0    0  0.26189707013E+03  0.12456230005E+03 -0.41556814059E+03  0.50675706351E+03  0.00000000000E+00 0. -1.
<mgrwt>
<rscale>  0 0.10336267E+04</rscale>
<asrwt>0</asrwt>
<pdfrwt beam="1">  1        1 0.78310514E-01 0.10336267E+04</pdfrwt>
<pdfrwt beam="2">  1       -1 0.80727349E-01 0.10336267E+04</pdfrwt>
<totfact> 0.66236088E+01</totfact>
</mgrwt>
</event>
<event>
 6    1  0.1585031E-006  0.3001708E+03  0.7818608E-02  0.1085155E+00
          1   -1    0    0  501    0  0.00000000000E+00  0.00000000000E+00  0.13410212560E+03  0.13410212560E+03  0.00000000000E+00 0.  1.
         -1   -1    0    0    0  501 -0.00000000000E+00 -0.00000000000E+00 -0.16797365437E+03  0.16797365437E+03  0.00000000000E+00 0. -1.
         23    2    1    2    0    0 -0.11560675167E+03 -0.38744156592E+02 -0.79096500872E+02  0.17203221494E+03  0.92047790994E+02 0.  0.
         11    1    3    3    0    0 -0.11308606485E+03 -0.62182350700E+02 -0.69515986626E+02  0.14658640864E+03  0.00000000000E+00 0.  1.
        -11    1    3    3    0    0 -0.25206868180E+01  0.23438194109E+02 -0.95805142458E+01  0.25445806301E+02  0.00000000000E+00 0. -1.
         22    1    1    2    0    0  0.11560675167E+03  0.38744156592E+02  0.45224972104E+02  0.13004356502E+03  0.00000000000E+00 0.  1.
<mgrwt>
<rscale>  0 0.30017078E+03</rscale>
<asrwt>0</asrwt>
<pdfrwt beam="1">  1        1 0.20631096E-01 0.30017078E+03</pdfrwt>
<pdfrwt beam="2">  1       -1 0.25842101E-01 0.30017078E+03</pdfrwt>
<totfact> 0.32245613E+03</totfact>
</mgrwt>
</event>
<event>
 6    1  0.1585031E-006  0.2011306E+04  0.7818608E-02  0.8601353E-01
          2   -1    0    0  501    0  0.00000000000E+00  0.00000000000E+00  0.12589919461E+04  0.12589919461E+04  0.00000000000E+00 0.  1.
         -2   -1    0    0    0  501 -0.00000000000E+00 -0.00000000000E+00 -0.80329186357E+03  0.80329186357E+03  0.00000000000E+00 0. -1.
         23    2    1    2    0    0  0.74599297105E+03  0.17582763705E+03 -0.43615801495E+03  0.88634514763E+03  0.89179795402E+02 0.  0.
         11    1    3    3    0    0  0.64291486965E+03  0.12873317063E+03 -0.39670951911E+03  0.76634861610E+03  0.00000000000E+00 0. -1.
        -11    1    3    3    0    0  0.10307810140E+03  0.47094466420E+02 -0.39448495843E+02  0.11999653153E+03  0.00000000000E+00 0.  1.
         22    1    1    2    0    0 -0.74599297105E+03 -0.17582763705E+03  0.89185809744E+03  0.11759386620E+04  0.00000000000E+00 0.  1.
<mgrwt>
<rscale>  0 0.20113060E+04</rscale>
<asrwt>0</asrwt>
<pdfrwt beam="1">  1        2 0.19369107E+00 0.20113060E+04</pdfrwt>
<pdfrwt beam="2">  1       -2 0.12358336E+00 0.20113060E+04</pdfrwt>
<totfact> 0.80034317E+00</totfact>
</mgrwt>
</event>
<event>
 6    1  0.1585031E-006  0.4425336E+04  0.7818608E-02  0.7923840E-01
         -2   -1    0    0    0  501 -0.00000000000E+00  0.00000000000E+00  0.31395148445E+04  0.31395148445E+04  0.00000000000E+00 0.  1.
          2   -1    0    0  501    0  0.00000000000E+00 -0.00000000000E+00 -0.15594447867E+04  0.15594447867E+04  0.00000000000E+00 0. -1.
         23    2    1    2    0    0  0.21350219733E+03 -0.21299945885E+04  0.13823210512E+04  0.25491771294E+04  0.70939505367E+02 0.  0.
         11    1    3    3    0    0  0.10514899624E+03 -0.11224506921E+04  0.68668774363E+03  0.13200348196E+04  0.00000000000E+00 0.  1.
        -11    1    3    3    0    0  0.10835320109E+03 -0.10075438964E+04  0.69563330753E+03  0.12291423099E+04  0.00000000000E+00 0. -1.
         22    1    1    2    0    0 -0.21350219733E+03  0.21299945885E+04  0.19774900658E+03  0.21497825018E+04  0.00000000000E+00 0. -1.
<mgrwt>
<rscale>  0 0.44253362E+04</rscale>
<asrwt>0</asrwt>
<pdfrwt beam="1">  1        2 0.23991458E+00 0.44253362E+04</pdfrwt>
<pdfrwt beam="2">  1       -2 0.48300228E+00 0.44253362E+04</pdfrwt>
<totfact> 0.18971521E-02</totfact>
</mgrwt>
</event>
<event>
 6    1  0.1585031E-006  0.1119932E+04  0.7818608E-02  0.9185980E-01
          4   -1    0    0  501    0  0.00000000000E+00  0.00000000000E+00  0.12989206650E+03  0.12989206650E+03  0.00000000000E+00 0. -1.
         -4   -1    0    0    0  501 -0.00000000000E+00 -0.00000000000E+00 -0.24140183408E+04  0.24140183408E+04  0.00000000000E+00 0.  1.
         23    2    1    2    0    0 -0.30907638452E+03 -0.33874919714E+03 -0.18650835643E+04  0.19227212068E+04  0.89671105557E+02 0.  0.
         11    1    3    3    0    0 -0.90009258585E+01 -0.33443867384E+02 -0.22691544970E+03  0.22954330799E+03  0.00000000000E+00 0. -1.
        -11    1    3    3    0    0 -0.30007545866E+03 -0.30530532976E+03 -0.16381681146E+04  0.16931778988E+04  0.00000000000E+00 0.  1.
         22    1    1    2    0    0  0.30907638452E+03  0.33874919714E+03 -0.41904271003E+03  0.62118920054E+03  0.00000000000E+00 0. -1.
<mgrwt>
<rscale>  0 0.11199318E+04</rscale>
<asrwt>0</asrwt>
<pdfrwt beam="1">  1        4 0.19983394E-01 0.11199318E+04</pdfrwt>
<pdfrwt beam="2">  1       -4 0.37138746E+00 0.11199318E+04</pdfrwt>
<totfact> 0.50380742E-01</totfact>
</mgrwt>
</event>
<event>
 6    1  0.1585031E-006  0.1540745E+04  0.7818608E-02  0.8857801E-01
         -1   -1    0    0    0  501 -0.00000000000E+00  0.00000000000E+00  0.51456608497E+03  0.51456608497E+03  0.00000000000E+00 0.  1.
          1   -1    0    0  501    0  0.00000000000E+00 -0.00000000000E+00 -0.11533478419E+04  0.11533478419E+04  0.00000000000E+00 0. -1.
         23    2    1    2    0    0 -0.22673891910E+03 -0.37816726594E+03  0.35980843246E+03  0.57630805258E+03  0.90817646605E+02 0.  0.
         13    1    3    3    0    0 -0.55235153704E+02 -0.33860042706E+02  0.40643654566E+02  0.76480921498E+02  0.00000000000E+00 0.  1.
        -13    1    3    3    0    0 -0.17150376540E+03 -0.34430722323E+03  0.31916477789E+03  0.49982713108E+03  0.00000000000E+00 0. -1.
         22    1    1    2    0    0  0.22673891910E+03  0.37816726594E+03 -0.99859018934E+03  0.10916058743E+04  0.00000000000E+00 0. -1.
<mgrwt>
<rscale>  0 0.15407449E+04</rscale>
<asrwt>0</asrwt>
<pdfrwt beam="1">  1        1 0.17743813E+00 0.15407449E+04</pdfrwt>
<pdfrwt beam="2">  1       -1 0.79164015E-01 0.15407449E+04</pdfrwt>
<totfact> 0.17790922E+01</totfact>
</mgrwt>
</event>
<event>
 6    1  0.1585031E-006  0.1518938E+04  0.7818608E-02  0.8871956E-01
          1   -1    0    0  501    0  0.00000000000E+00  0.00000000000E+00  0.10605955762E+04  0.10605955762E+04  0.00000000000E+00 0. -1.
         -1   -1    0    0    0  501 -0.00000000000E+00 -0.00000000000E+00 -0.54383889307E+03  0.54383889307E+03  0.00000000000E+00 0.  1.
         23    2    1    2    0    0 -0.47266773000E+03  0.42171912467E+02  0.88175895123E+03  0.10057526599E+04  0.94054833529E+02 0.  0.
         11    1    3    3    0    0 -0.68330992423E+02  0.91156413089E+01  0.69893140223E+02  0.98169600653E+02  0.00000000000E+00 0. -1.
        -11    1    3    3    0    0 -0.40433673757E+03  0.33056271158E+02  0.81186581100E+03  0.90758305928E+03  0.00000000000E+00 0.  1.
         22    1    1    2    0    0  0.47266773000E+03 -0.42171912467E+02 -0.36500226807E+03  0.59868180937E+03  0.00000000000E+00 0.  1.
<mgrwt>
<rscale>  0 0.15189380E+04</rscale>
<asrwt>0</asrwt>
<pdfrwt beam="1">  1        1 0.16316855E+00 0.15189380E+04</pdfrwt>
<pdfrwt beam="2">  1       -1 0.83667522E-01 0.15189380E+04</pdfrwt>
<totfact> 0.18590744E+01</totfact>
</mgrwt>
</event>
<event>
 6    1  0.1585031E-006  0.1416715E+04  0.7818608E-02  0.8941807E-01
         -2   -1    0    0    0  501 -0.00000000000E+00  0.00000000000E+00  0.45500056560E+03  0.45500056560E+03  0.00000000000E+00 0.  1.
          2   -1    0    0  501    0  0.00000000000E+00 -0.00000000000E+00 -0.11027908045E+04  0.11027908045E+04  0.00000000000E+00 0. -1.
         23    2    1    2    0    0  0.20774630312E+03  0.46679217396E+02 -0.10647045293E+04  0.10896514323E+04  0.91689876554E+02 0.  0.
         13    1    3    3    0    0  0.56778503978E+02 -0.11394974376E+02 -0.46213366690E+03  0.46574796836E+03  0.00000000000E+00 0.  1.
        -13    1    3    3    0    0  0.15096779914E+03  0.58074191773E+02 -0.60257086239E+03  0.62390346395E+03  0.00000000000E+00 0. -1.
         22    1    1    2    0    0 -0.20774630312E+03 -0.46679217396E+02  0.41691429040E+03  0.46813993777E+03  0.00000000000E+00 0.  1.
<mgrwt>
<rscale>  0 0.14167151E+04</rscale>
<asrwt>0</asrwt>
<pdfrwt beam="1">  1        2 0.16966012E+00 0.14167151E+04</pdfrwt>
<pdfrwt beam="2">  1       -2 0.70000087E-01 0.14167151E+04</pdfrwt>
<totfact> 0.39220211E+01</totfact>
</mgrwt>
</event>
<event>
 6    1  0.1585031E-006  0.2071925E+04  0.7818608E-02  0.8573713E-01
          2   -1    0    0  501    0  0.00000000000E+00  0.00000000000E+00  0.13457888285E+04  0.13457888285E+04  0.00000000000E+00 0. -1.
         -2   -1    0    0    0  501 -0.00000000000E+00 -0.00000000000E+00 -0.79746387447E+03  0.79746387447E+03  0.00000000000E+00 0.  1.
         23    2    1    2    0    0  0.63815069722E+03  0.52461949369E+03 -0.36844419819E+03  0.90918317333E+03  0.91656914512E+02 0.  0.
         13    1    3    3    0    0  0.45073579445E+03  0.31853388173E+03 -0.26227338560E+03  0.61107603373E+03  0.00000000000E+00 0. -1.
        -13    1    3    3    0    0  0.18741490277E+03  0.20608561196E+03 -0.10617081259E+03  0.29810713960E+03  0.00000000000E+00 0.  1.
         22    1    1    2    0    0 -0.63815069722E+03 -0.52461949369E+03  0.91676915222E+03  0.12340695296E+04  0.00000000000E+00 0. -1.
<mgrwt>
<rscale>  0 0.20719247E+04</rscale>
<asrwt>0</asrwt>
<pdfrwt beam="1">  1        2 0.20704444E+00 0.20719247E+04</pdfrwt>
<pdfrwt beam="2">  1       -2 0.12268675E+00 0.20719247E+04</pdfrwt>
<totfact> 0.72176319E+00</totfact>
</mgrwt>
</event>
<event>
 6    1  0.1585031E-006  0.1016441E+04  0.7818608E-02  0.9290695E-01
         -2   -1    0    0    0  501 -0.00000000000E+00  0.00000000000E+00  0.10789464225E+03  0.10789464225E+03  0.00000000000E+00 0. -1.
          2   -1    0    0  501    0  0.00000000000E+00 -0.00000000000E+00 -0.23938893935E+04  0.23938893935E+04  0.00000000000E+00 0.  1.
         23    2    1    2    0    0  0.30944829953E+03  0.39804740961E+03 -0.11646117247E+04  0.12722719852E+04  0.90308053264E+02 0.  0.
         13    1    3    3    0    0  0.28139120654E+03  0.34368359488E+03 -0.10807347610E+04  0.11684549834E+04  0.00000000000E+00 0. -1.
        -13    1    3    3    0    0  0.28057092999E+02  0.54363814733E+02 -0.83876963718E+02  0.10381700180E+03  0.00000000000E+00 0.  1.
         22    1    1    2    0    0 -0.30944829953E+03 -0.39804740961E+03 -0.11213830266E+04  0.12295120506E+04  0.00000000000E+00 0.  1.
<mgrwt>
<rscale>  0 0.10164405E+04</rscale>
<asrwt>0</asrwt>
<pdfrwt beam="1">  1        2 0.36829069E+00 0.10164405E+04</pdfrwt>
<pdfrwt beam="2">  1       -2 0.16599175E-01 0.10164405E+04</pdfrwt>
<totfact> 0.11925339E+02</totfact>
</mgrwt>
</event>
<event>
 6    1  0.1585031E-006  0.1588862E+04  0.7818608E-02  0.8827420E-01
          4   -1    0    0  501    0  0.00000000000E+00  0.00000000000E+00  0.82624927946E+03  0.82624927946E+03  0.00000000000E+00 0. -1.
         -4   -1    0    0    0  501 -0.00000000000E+00 -0.00000000000E+00 -0.76383849549E+03  0.76383849549E+03  0.00000000000E+00 0.  1.
         23    2    1    2    0    0  0.49437087002E+03  0.78122511635E+02  0.64531902100E+03  0.82178594836E+03  0.91595972162E+02 0.  0.
         13    1    3    3    0    0  0.25166621436E+03  0.46785541992E+02  0.25658740995E+03  0.36243878012E+03  0.00000000000E+00 0. -1.
        -13    1    3    3    0    0  0.24270465566E+03  0.31336969643E+02  0.38873161104E+03  0.45934716824E+03  0.00000000000E+00 0.  1.
         22    1    1    2    0    0 -0.49437087002E+03 -0.78122511635E+02 -0.58290823703E+03  0.76830182659E+03  0.00000000000E+00 0.  1.
<mgrwt>
<rscale>  0 0.15888625E+04</rscale>
<asrwt>0</asrwt>
<pdfrwt beam="1">  1        4 0.12711527E+00 0.15888625E+04</pdfrwt>
<pdfrwt beam="2">  1       -4 0.11751361E+00 0.15888625E+04</pdfrwt>
<totfact> 0.49031337E-01</totfact>
</mgrwt>
</event>
<event>
 6    1  0.1585031E-006  0.1660565E+04  0.7818608E-02  0.8784181E-01
         -1   -1    0    0    0  501 -0.00000000000E+00  0.00000000000E+00  0.24944955154E+03  0.24944955154E+03  0.00000000000E+00 0. -1.
          1   -1    0    0  501    0  0.00000000000E+00 -0.00000000000E+00 -0.27635609700E+04  0.27635609700E+04  0.00000000000E+00 0.  1.
         23    2    1    2    0    0  0.52344549646E+03 -0.60273561168E+03 -0.86330602940E+03  0.11793137533E+04  0.90544038701E+02 0.  0.
         11    1    3    3    0    0  0.53228205376E+02 -0.53477788338E+02 -0.47269219967E+02  0.89036480441E+02  0.00000000000E+00 0.  1.
        -11    1    3    3    0    0  0.47021729108E+03 -0.54925782334E+03 -0.81603680944E+03  0.10902772728E+04  0.00000000000E+00 0. -1.
         22    1    1    2    0    0 -0.52344549646E+03  0.60273561168E+03 -0.16508053890E+04  0.18336967682E+04  0.00000000000E+00 0.  1.
<mgrwt>
<rscale>  0 0.16605650E+04</rscale>
<asrwt>0</asrwt>
<pdfrwt beam="1">  1        1 0.42516322E+00 0.16605650E+04</pdfrwt>
<pdfrwt beam="2">  1       -1 0.38376855E-01 0.16605650E+04</pdfrwt>
<totfact> 0.55656245E+00</totfact>
</mgrwt>
</event>
<event>
 6    1  0.1585031E-006  0.1622362E+04  0.7818608E-02  0.8806927E-01
         -2   -1    0    0    0  501 -0.00000000000E+00  0.00000000000E+00  0.89539690691E+03  0.89539690691E+03  0.00000000000E+00 0.  1.
          2   -1    0    0  501    0  0.00000000000E+00 -0.00000000000E+00 -0.73488586484E+03  0.73488586484E+03  0.00000000000E+00 0. -1.
         23    2    1    2    0    0 -0.69702091153E+03  0.29324057524E+03 -0.20633431237E+03  0.78980451495E+03  0.96897560795E+02 0.  0.
         11    1    3    3    0    0 -0.46495053042E+03  0.14762786021E+03 -0.11728830547E+03  0.50172654649E+03  0.00000000000E+00 0.  1.
        -11    1    3    3    0    0 -0.23207038111E+03  0.14561271503E+03 -0.89046006906E+02  0.28807796846E+03  0.00000000000E+00 0. -1.
         22    1    1    2    0    0  0.69702091153E+03 -0.29324057524E+03  0.36684535445E+03  0.84047825681E+03  0.00000000000E+00 0.  1.
<mgrwt>
<rscale>  0 0.16223619E+04</rscale>
<asrwt>0</asrwt>
<pdfrwt beam="1">  1        2 0.11305936E+00 0.16223619E+04</pdfrwt>
<pdfrwt beam="2">  1       -2 0.13775337E+00 0.16223619E+04</pdfrwt>
<totfact> 0.13800157E+01</totfact>
</mgrwt>
</event>
<event>
 6    1  0.1585031E-006  0.1235706E+04  0.7818608E-02  0.9082164E-01
         -1   -1    0    0    0  501 -0.00000000000E+00  0.00000000000E+00  0.89963707227E+03  0.89963707227E+03  0.00000000000E+00 0.  1.
          1   -1    0    0  501    0  0.00000000000E+00 -0.00000000000E+00 -0.42432947135E+03  0.42432947135E+03  0.00000000000E+00 0. -1.
         23    2    1    2    0    0 -0.18412704791E+03 -0.24994536589E+03 -0.32921010899E+03  0.46163006563E+03  0.91365014832E+02 0.  0.
         11    1    3    3    0    0 -0.31640125782E+02 -0.50008136274E+02 -0.12278654539E+03  0.13630277687E+03  0.00000000000E+00 0. -1.
        -11    1    3    3    0    0 -0.15248692213E+03 -0.19993722961E+03 -0.20642356359E+03  0.32532728876E+03  0.00000000000E+00 0.  1.
         22    1    1    2    0    0  0.18412704791E+03  0.24994536589E+03  0.80451770991E+03  0.86233647799E+03  0.00000000000E+00 0.  1.
<mgrwt>
<rscale>  0 0.12357063E+04</rscale>
<asrwt>0</asrwt>
<pdfrwt beam="1">  1        1 0.65281458E-01 0.12357063E+04</pdfrwt>
<pdfrwt beam="2">  1       -1 0.13840570E+00 0.12357063E+04</pdfrwt>
<totfact> 0.23638552E+01</totfact>
</mgrwt>
</event>
<event>
 6    1  0.1585031E-006  0.1966393E+04  0.7818608E-02  0.8622496E-01
         -1   -1    0    0    0  501 -0.00000000000E+00  0.00000000000E+00  0.11651401556E+04  0.11651401556E+04  0.00000000000E+00 0.  1.
          1   -1    0    0  501    0  0.00000000000E+00 -0.00000000000E+00 -0.82966465803E+03  0.82966465803E+03  0.00000000000E+00 0. -1.
         23    2    1    2    0    0  0.38613326499E+02 -0.13189551591E+03  0.11535457873E+04  0.11652709596E+04  0.91110426479E+02 0.  0.
         13    1    3    3    0    0 -0.25997919426E+02 -0.33138907087E+02  0.19563248681E+03  0.20011533893E+03  0.00000000000E+00 0.  1.
        -13    1    3    3    0    0  0.64611245924E+02 -0.98756608819E+02  0.95791330045E+03  0.96515562065E+03  0.00000000000E+00 0. -1.
         22    1    1    2    0    0 -0.38613326499E+02  0.13189551591E+03 -0.81807028971E+03  0.82953385404E+03  0.00000000000E+00 0. -1.
<mgrwt>
<rscale>  0 0.19663933E+04</rscale>
<asrwt>0</asrwt>
<pdfrwt beam="1">  1        1 0.12764072E+00 0.19663933E+04</pdfrwt>
<pdfrwt beam="2">  1       -1 0.17925233E+00 0.19663933E+04</pdfrwt>
<totfact> 0.40852656E+00</totfact>
</mgrwt>
</event>
<event>
 6    1  0.1585031E-006  0.2491462E+04  0.7818608E-02  0.8406034E-01
          2   -1    0    0  501    0  0.00000000000E+00  0.00000000000E+00  0.29758332378E+04  0.29758332378E+04  0.00000000000E+00 0. -1.
         -2   -1    0    0    0  501 -0.00000000000E+00 -0.00000000000E+00 -0.52148279647E+03  0.52148279647E+03  0.00000000000E+00 0.  1.
         23    2    1    2    0    0 -0.84464529010E+03 -0.70510078720E+03  0.20440826952E+04  0.23230450222E+04  0.87586096533E+02 0.  0.
         13    1    3    3    0    0 -0.68617113226E+03 -0.58493064660E+03  0.17391972158E+04  0.19590256863E+04  0.00000000000E+00 0.  1.
        -13    1    3    3    0    0 -0.15847415784E+03 -0.12017014060E+03  0.30488547941E+03  0.36401933596E+03  0.00000000000E+00 0. -1.
         22    1    1    2    0    0  0.84464529010E+03  0.70510078720E+03  0.41026774615E+03  0.11742710121E+04  0.00000000000E+00 0.  1.
<mgrwt>
<rscale>  0 0.24914621E+04</rscale>
<asrwt>0</asrwt>
<pdfrwt beam="1">  1        2 0.45782049E+00 0.24914621E+04</pdfrwt>
<pdfrwt beam="2">  1       -2 0.80228125E-01 0.24914621E+04</pdfrwt>
<totfact> 0.22103407E+00</totfact>
</mgrwt>
</event>
<event>
 6    1  0.1585031E-006  0.1696932E+04  0.7818608E-02  0.8763116E-01
         -1   -1    0    0    0  501 -0.00000000000E+00  0.00000000000E+00  0.83241748346E+03  0.83241748346E+03  0.00000000000E+00 0.  1.
          1   -1    0    0  501    0  0.00000000000E+00 -0.00000000000E+00 -0.86482425435E+03  0.86482425435E+03  0.00000000000E+00 0. -1.
         23    2    1    2    0    0  0.54778421506E+03 -0.64369723723E+03 -0.52638856585E+02  0.85176967040E+03  0.91252631251E+02 0.  0.
         13    1    3    3    0    0  0.14849685512E+03 -0.12749739067E+03  0.11254818463E+02  0.19604482025E+03  0.00000000000E+00 0.  1.
        -13    1    3    3    0    0  0.39928735993E+03 -0.51619984656E+03 -0.63893675048E+02  0.65572485015E+03  0.00000000000E+00 0. -1.
         22    1    1    2    0    0 -0.54778421506E+03  0.64369723723E+03  0.20232085698E+02  0.84547206741E+03  0.00000000000E+00 0. -1.
<mgrwt>
<rscale>  0 0.16969323E+04</rscale>
<asrwt>0</asrwt>
<pdfrwt beam="1">  1        1 0.13304988E+00 0.16969323E+04</pdfrwt>
<pdfrwt beam="2">  1       -1 0.12806423E+00 0.16969323E+04</pdfrwt>
<totfact> 0.97585283E+00</totfact>
</mgrwt>
</event>
<event>
 6    1  0.1585031E-006  0.1898052E+04  0.7818608E-02  0.8655827E-01
         -1   -1    0    0    0  501 -0.00000000000E+00  0.00000000000E+00  0.63807899248E+03  0.63807899248E+03  0.00000000000E+00 0.  1.
          1   -1    0    0  501    0  0.00000000000E+00 -0.00000000000E+00 -0.14115026928E+04  0.14115026928E+04  0.00000000000E+00 0. -1.
         23    2    1    2    0    0  0.74968354221E+03  0.16134330133E+03 -0.98762355729E+03  0.12533790395E+04  0.86612074669E+02 0.  0.
         13    1    3    3    0    0  0.52308657490E+03  0.10034787249E+03 -0.74527639804E+03  0.91603830150E+03  0.00000000000E+00 0.  1.
        -13    1    3    3    0    0  0.22659696732E+03  0.60995428840E+02 -0.24234715925E+03  0.33734073803E+03  0.00000000000E+00 0. -1.
         22    1    1    2    0    0 -0.74968354221E+03 -0.16134330133E+03  0.21419985698E+03  0.79620264574E+03  0.00000000000E+00 0.  1.
<mgrwt>
<rscale>  0 0.18980519E+04</rscale>
<asrwt>0</asrwt>
<pdfrwt beam="1">  1        1 0.21715426E+00 0.18980519E+04</pdfrwt>
<pdfrwt beam="2">  1       -1 0.98165999E-01 0.18980519E+04</pdfrwt>
<totfact> 0.70162058E+00</totfact>
</mgrwt>
</event>
<event>
 6    1  0.1585031E-006  0.1265848E+04  0.7818608E-02  0.9057095E-01
         -1   -1    0    0    0  501 -0.00000000000E+00  0.00000000000E+00  0.42555186518E+03  0.42555186518E+03  0.00000000000E+00 0.  1.
          1   -1    0    0  501    0  0.00000000000E+00 -0.00000000000E+00 -0.94134951082E+03  0.94134951082E+03  0.00000000000E+00 0. -1.
         23    2    1    2    0    0  0.17065072075E+03 -0.15656486577E+03  0.37309113722E+03  0.44833864327E+03  0.90422987658E+02 0.  0.
         13    1    3    3    0    0  0.14984421700E+03 -0.11588232996E+03  0.22908852165E+03  0.29726007891E+03  0.00000000000E+00 0. -1.
        -13    1    3    3    0    0  0.20806503748E+02 -0.40682535810E+02  0.14400261557E+03  0.15107856436E+03  0.00000000000E+00 0.  1.
         22    1    1    2    0    0 -0.17065072075E+03  0.15656486577E+03 -0.88888878285E+03  0.91856273273E+03  0.00000000000E+00 0. -1.
<mgrwt>
<rscale>  0 0.12658484E+04</rscale>
<asrwt>0</asrwt>
<pdfrwt beam="1">  1        1 0.14482300E+00 0.12658484E+04</pdfrwt>
<pdfrwt beam="2">  1       -1 0.65469519E-01 0.12658484E+04</pdfrwt>
<totfact> 0.39239685E+01</totfact>
</mgrwt>
</event>
<event>
 6    1  0.1585031E-006  0.2619842E+04  0.7818608E-02  0.8361492E-01
         -1   -1    0    0    0  501 -0.00000000000E+00  0.00000000000E+00  0.14165768143E+04  0.14165768143E+04  0.00000000000E+00 0.  1.
          1   -1    0    0  501    0  0.00000000000E+00 -0.00000000000E+00 -0.12112956971E+04  0.12112956971E+04  0.00000000000E+00 0. -1.
         23    2    1    2    0    0 -0.71310154608E+03 -0.76686321879E+03  0.88944709177E+03  0.13770023774E+04  0.91795463066E+02 0.  0.
         11    1    3    3    0    0 -0.58258412132E+02 -0.59289849722E+02  0.40766505206E+02  0.92580974346E+02  0.00000000000E+00 0. -1.
        -11    1    3    3    0    0 -0.65484313395E+03 -0.70757336907E+03  0.84868058657E+03  0.12844214031E+04  0.00000000000E+00 0.  1.
         22    1    1    2    0    0  0.71310154608E+03  0.76686321879E+03 -0.68416597456E+03  0.12508701340E+04  0.00000000000E+00 0. -1.
<mgrwt>
<rscale>  0 0.26198423E+04</rscale>
<asrwt>0</asrwt>
<pdfrwt beam="1">  1        1 0.18635318E+00 0.26198423E+04</pdfrwt>
<pdfrwt beam="2">  1       -1 0.21793489E+00 0.26198423E+04</pdfrwt>
<totfact> 0.10473750E+00</totfact>
</mgrwt>
</event>
<event>
 6    1  0.1585031E-006  0.7937753E+03  0.7818608E-02  0.9569071E-01
         -1   -1    0    0    0  501 -0.00000000000E+00  0.00000000000E+00  0.18220375747E+03  0.18220375747E+03  0.00000000000E+00 0.  1.
          1   -1    0    0  501    0  0.00000000000E+00 -0.00000000000E+00 -0.86452564586E+03  0.86452564586E+03  0.00000000000E+00 0. -1.
         23    2    1    2    0    0  0.24020485567E+03 -0.77024455746E+02 -0.74080155082E+03  0.78778730482E+03  0.90502820203E+02 0.  0.
         13    1    3    3    0    0  0.10842250307E+03 -0.82271738137E+02 -0.37356784683E+03  0.39758900167E+03  0.00000000000E+00 0. -1.
        -13    1    3    3    0    0  0.13178235260E+03  0.52472823910E+01 -0.36723370399E+03  0.39019830314E+03  0.00000000000E+00 0.  1.
         22    1    1    2    0    0 -0.24020485567E+03  0.77024455746E+02  0.58479662428E+02  0.25894209852E+03  0.00000000000E+00 0.  1.
<mgrwt>
<rscale>  0 0.79377534E+03</rscale>
<asrwt>0</asrwt>
<pdfrwt beam="1">  1        1 0.13300395E+00 0.79377534E+03</pdfrwt>
<pdfrwt beam="2">  1       -1 0.28031347E-01 0.79377534E+03</pdfrwt>
<totfact> 0.22593750E+02</totfact>
</mgrwt>
</event>
<event>
 6    1  0.1585031E-006  0.3908156E+04  0.7818608E-02  0.8023335E-01
         -1   -1    0    0    0  501 -0.00000000000E+00  0.00000000000E+00  0.18950123388E+04  0.18950123388E+04  0.00000000000E+00 0.  1.
          1   -1    0    0  501    0  0.00000000000E+00 -0.00000000000E+00 -0.20149841962E+04  0.20149841962E+04  0.00000000000E+00 0. -1.
         23    2    1    2    0    0  0.14701656973E+03  0.44545885632E+03  0.18367265920E+04  0.18978543217E+04  0.90768874125E+02 0.  0.
         13    1    3    3    0    0  0.66958200087E+01  0.12416445675E+03  0.39493879126E+03  0.41405107797E+03  0.00000000000E+00 0.  1.
        -13    1    3    3    0    0  0.14032074972E+03  0.32129439957E+03  0.14417878007E+04  0.14838032438E+04  0.00000000000E+00 0. -1.
         22    1    1    2    0    0 -0.14701656973E+03 -0.44545885632E+03 -0.19566984494E+04  0.20121422132E+04  0.00000000000E+00 0. -1.
<mgrwt>
<rscale>  0 0.39081555E+04</rscale>
<asrwt>0</asrwt>
<pdfrwt beam="1">  1        1 0.30999757E+00 0.39081555E+04</pdfrwt>
<pdfrwt beam="2">  1       -1 0.29154036E+00 0.39081555E+04</pdfrwt>
<totfact> 0.86009166E-02</totfact>
</mgrwt>
</event>
<event>
 6    1  0.1585031E-006  0.1972718E+04  0.7818608E-02  0.8619483E-01
          1   -1    0    0  501    0  0.00000000000E+00  0.00000000000E+00  0.55514529962E+03  0.55514529962E+03  0.00000000000E+00 0. -1.
         -1   -1    0    0    0  501 -0.00000000000E+00 -0.00000000000E+00 -0.17525221126E+04  0.17525221126E+04  0.00000000000E+00 0.  1.
         23    2    1    2    0    0  0.16738528953E+03  0.68484600772E+03  0.20353232501E+03  0.73936313615E+03  0.90556889980E+02 0.  0.
         13    1    3    3    0    0  0.67105647093E+02  0.21121951774E+03  0.23579935901E+02  0.22287410330E+03  0.00000000000E+00 0.  1.
        -13    1    3    3    0    0  0.10027964244E+03  0.47362648998E+03  0.17995238911E+03  0.51648903284E+03  0.00000000000E+00 0. -1.
         22    1    1    2    0    0 -0.16738528953E+03 -0.68484600772E+03 -0.14009091380E+04  0.15683042761E+04  0.00000000000E+00 0.  1.
<mgrwt>
<rscale>  0 0.19727183E+04</rscale>
<asrwt>0</asrwt>
<pdfrwt beam="1">  1        1 0.85406970E-01 0.19727183E+04</pdfrwt>
<pdfrwt beam="2">  1       -1 0.26961878E+00 0.19727183E+04</pdfrwt>
<totfact> 0.18501384E+00</totfact>
</mgrwt>
</event>
<event>
 6    1  0.1585031E-006  0.6829451E+03  0.7818608E-02  0.9746851E-01
         -1   -1    0    0    0  501 -0.00000000000E+00  0.00000000000E+00  0.12536027598E+03  0.12536027598E+03  0.00000000000E+00 0.  1.
          1   -1    0    0  501    0  0.00000000000E+00 -0.00000000000E+00 -0.93014705113E+03  0.93014705113E+03  0.00000000000E+00 0. -1.
         23    2    1    2    0    0  0.24314414507E+03 -0.22255495377E+03 -0.50653173031E+03  0.61097852658E+03  0.89836425796E+02 0.  0.
         13    1    3    3    0    0  0.19290324161E+03 -0.15375192632E+03 -0.43347249677E+03  0.49874815381E+03  0.00000000000E+00 0. -1.
        -13    1    3    3    0    0  0.50240903460E+02 -0.68803027448E+02 -0.73059233536E+02  0.11223037277E+03  0.00000000000E+00 0.  1.
         22    1    1    2    0    0 -0.24314414507E+03  0.22255495377E+03 -0.29825504484E+03  0.44452880053E+03  0.00000000000E+00 0. -1.
<mgrwt>
<rscale>  0 0.68294507E+03</rscale>
<asrwt>0</asrwt>
<pdfrwt beam="1">  1        1 0.14309954E+00 0.68294507E+03</pdfrwt>
<pdfrwt beam="2">  1       -1 0.19286197E-01 0.68294507E+03</pdfrwt>
<totfact> 0.37828584E+02</totfact>
</mgrwt>
</event>
<event>
 6    1  0.1585031E-006  0.2605005E+04  0.7818608E-02  0.8366503E-01
          1   -1    0    0  501    0  0.00000000000E+00  0.00000000000E+00  0.23767618075E+04  0.23767618075E+04  0.00000000000E+00 0. -1.
         -1   -1    0    0    0  501 -0.00000000000E+00 -0.00000000000E+00 -0.71379173841E+03  0.71379173841E+03  0.00000000000E+00 0.  1.
         23    2    1    2    0    0 -0.72274641626E+03 -0.17317522473E+03  0.20992409654E+04  0.22287621932E+04  0.90643491051E+02 0.  0.
         13    1    3    3    0    0 -0.50212839397E+03 -0.96767863299E+02  0.15422445897E+04  0.16248123947E+04  0.00000000000E+00 0.  1.
        -13    1    3    3    0    0 -0.22061802228E+03 -0.76407361431E+02  0.55699637566E+03  0.60394979852E+03  0.00000000000E+00 0. -1.
         22    1    1    2    0    0  0.72274641626E+03  0.17317522473E+03 -0.43627089627E+03  0.86179135271E+03  0.00000000000E+00 0.  1.
<mgrwt>
<rscale>  0 0.26050051E+04</rscale>
<asrwt>0</asrwt>
<pdfrwt beam="1">  1        1 0.36565566E+00 0.26050051E+04</pdfrwt>
<pdfrwt beam="2">  1       -1 0.10981411E+00 0.26050051E+04</pdfrwt>
<totfact> 0.11115285E+00</totfact>
</mgrwt>
</event>
<event>
 6    1  0.1585031E-006  0.2250508E+04  0.7818608E-02  0.8497695E-01
          2   -1    0    0  501    0  0.00000000000E+00  0.00000000000E+00  0.22127085637E+04  0.22127085637E+04  0.00000000000E+00 0. -1.
         -2   -1    0    0    0  501 -0.00000000000E+00 -0.00000000000E+00 -0.57223847801E+03  0.57223847801E+03  0.00000000000E+00 0.  1.
         23    2    1    2    0    0 -0.89843076251E+03  0.67411483803E+03  0.79784562494E+03  0.13808015251E+04  0.91905172408E+02 0.  0.
         13    1    3    3    0    0 -0.53126524474E+03  0.34159616365E+03  0.44727516566E+03  0.77394171170E+03  0.00000000000E+00 0. -1.
        -13    1    3    3    0    0 -0.36716551777E+03  0.33251867438E+03  0.35057045928E+03  0.60685981344E+03  0.00000000000E+00 0.  1.
         22    1    1    2    0    0  0.89843076251E+03 -0.67411483803E+03  0.84262446073E+03  0.14041455166E+04  0.00000000000E+00 0.  1.
<mgrwt>
<rscale>  0 0.22505084E+04</rscale>
<asrwt>0</asrwt>
<pdfrwt beam="1">  1        2 0.34041670E+00 0.22505084E+04</pdfrwt>
<pdfrwt beam="2">  1       -2 0.88036690E-01 0.22505084E+04</pdfrwt>
<totfact> 0.51403704E+00</totfact>
</mgrwt>
</event>
<event>
 6    1  0.1585031E-006  0.1701855E+04  0.7818608E-02  0.8760307E-01
         -1   -1    0    0    0  501 -0.00000000000E+00  0.00000000000E+00  0.27992745113E+03  0.27992745113E+03  0.00000000000E+00 0.  1.
          1   -1    0    0  501    0  0.00000000000E+00 -0.00000000000E+00 -0.25866624411E+04  0.25866624411E+04  0.00000000000E+00 0. -1.
         23    2    1    2    0    0 -0.33713272555E+01  0.37835787707E+03 -0.24360193104E+04  0.24667393145E+04  0.86294358510E+02 0.  0.
         11    1    3    3    0    0 -0.43108486439E+02  0.16311985118E+03 -0.11224381828E+04  0.11350479733E+04  0.00000000000E+00 0. -1.
        -11    1    3    3    0    0  0.39737159184E+02  0.21523802589E+03 -0.13135811276E+04  0.13316913412E+04  0.00000000000E+00 0.  1.
         22    1    1    2    0    0  0.33713272555E+01 -0.37835787707E+03  0.12928432040E+03  0.39985057770E+03  0.00000000000E+00 0.  1.
<mgrwt>
<rscale>  0 0.17018553E+04</rscale>
<asrwt>0</asrwt>
<pdfrwt beam="1">  1        1 0.39794808E+00 0.17018553E+04</pdfrwt>
<pdfrwt beam="2">  1       -1 0.43065761E-01 0.17018553E+04</pdfrwt>
<totfact> 0.59730546E+00</totfact>
</mgrwt>
</event>
<event>
 6    1  0.1585031E-006  0.4754475E+04  0.7818608E-02  0.7867540E-01
         -2   -1    0    0    0  501 -0.00000000000E+00  0.00000000000E+00  0.15142090984E+04  0.15142090984E+04  0.00000000000E+00 0.  1.
          2   -1    0    0  501    0  0.00000000000E+00 -0.00000000000E+00 -0.37321513293E+04  0.37321513293E+04  0.00000000000E+00 0. -1.
         23    2    1    2    0    0 -0.45184254817E+03  0.53783594884E+03 -0.36143847175E+04  0.36831967079E+04  0.93444671659E+02 0.  0.
         11    1    3    3    0    0 -0.28334515441E+03  0.34518710482E+03 -0.25215832053E+04  0.25608241788E+04  0.00000000000E+00 0. -1.
        -11    1    3    3    0    0 -0.16849739376E+03  0.19264884402E+03 -0.10928015123E+04  0.11223725291E+04  0.00000000000E+00 0.  1.
         22    1    1    2    0    0  0.45184254817E+03 -0.53783594884E+03  0.13964424867E+04  0.15631637198E+04  0.00000000000E+00 0.  1.
<mgrwt>
<rscale>  0 0.47544747E+04</rscale>
<asrwt>0</asrwt>
<pdfrwt beam="1">  1        2 0.57417713E+00 0.47544747E+04</pdfrwt>
<pdfrwt beam="2">  1       -2 0.23295525E+00 0.47544747E+04</pdfrwt>
<totfact> 0.33505175E-02</totfact>
</mgrwt>
</event>
<event>
 6    1  0.1585031E-006  0.6579035E+04  0.7818608E-02  0.7622480E-01
         -2   -1    0    0    0  501 -0.00000000000E+00  0.00000000000E+00  0.29224493546E+04  0.29224493546E+04  0.00000000000E+00 0.  1.
          2   -1    0    0  501    0  0.00000000000E+00 -0.00000000000E+00 -0.37026905022E+04  0.37026905022E+04  0.00000000000E+00 0. -1.
         23    2    1    2    0    0  0.28936873392E+04 -0.10178539353E+04  0.80447840586E+03  0.31724902779E+04  0.89755263371E+02 0.  0.
         13    1    3    3    0    0  0.13569871492E+04 -0.47580709596E+03  0.33086778144E+03  0.14755609118E+04  0.00000000000E+00 0. -1.
        -13    1    3    3    0    0  0.15367001900E+04 -0.54204683938E+03  0.47361062442E+03  0.16969293661E+04  0.00000000000E+00 0.  1.
         22    1    1    2    0    0 -0.28936873392E+04  0.10178539353E+04 -0.15847195535E+04  0.34526495788E+04  0.00000000000E+00 0. -1.
<mgrwt>
<rscale>  0 0.65790350E+04</rscale>
<asrwt>0</asrwt>
<pdfrwt beam="1">  1        2 0.56964469E+00 0.65790350E+04</pdfrwt>
<pdfrwt beam="2">  1       -2 0.44960760E+00 0.65790350E+04</pdfrwt>
<totfact> 0.13091708E-03</totfact>
</mgrwt>
</event>
<event>
 6    1  0.1585031E-006  0.4145800E+03  0.7818608E-02  0.1038845E+00
          2   -1    0    0  501    0  0.00000000000E+00  0.00000000000E+00  0.20189422543E+03  0.20189422543E+03  0.00000000000E+00 0. -1.
         -2   -1    0    0    0  501 -0.00000000000E+00 -0.00000000000E+00 -0.21282996175E+03  0.21282996175E+03  0.00000000000E+00 0.  1.
         23    2    1    2    0    0 -0.12927175973E+03  0.12701396473E+03 -0.85314257901E+02  0.21882651090E+03  0.88106663594E+02 0.  0.
         13    1    3    3    0    0 -0.26778506885E+02  0.81371699667E+02 -0.57690204535E+02  0.10327924107E+03  0.00000000000E+00 0. -1.
        -13    1    3    3    0    0 -0.10249325285E+03  0.45642265067E+02 -0.27624053366E+02  0.11554726983E+03  0.00000000000E+00 0.  1.
         22    1    1    2    0    0  0.12927175973E+03 -0.12701396473E+03  0.74378521582E+02  0.19589767629E+03  0.00000000000E+00 0.  1.
<mgrwt>
<rscale>  0 0.41457998E+03</rscale>
<asrwt>0</asrwt>
<pdfrwt beam="1">  1        2 0.31060650E-01 0.41457998E+03</pdfrwt>
<pdfrwt beam="2">  1       -2 0.32743071E-01 0.41457998E+03</pdfrwt>
<totfact> 0.14789533E+03</totfact>
</mgrwt>
</event>
<event>
 6    1  0.1585031E-006  0.3070338E+04  0.7818608E-02  0.8223926E-01
         -2   -1    0    0    0  501 -0.00000000000E+00  0.00000000000E+00  0.21381205612E+04  0.21381205612E+04  0.00000000000E+00 0.  1.
          2   -1    0    0  501    0  0.00000000000E+00 -0.00000000000E+00 -0.11022505565E+04  0.11022505565E+04  0.00000000000E+00 0. -1.
         23    2    1    2    0    0  0.12592836143E+04  0.40482375585E+03  0.13379377066E+04  0.18835651659E+04  0.89793833900E+02 0.  0.
         13    1    3    3    0    0  0.11694490611E+04  0.38525412448E+03  0.12126746267E+04  0.17281815868E+04  0.00000000000E+00 0. -1.
        -13    1    3    3    0    0  0.89834553195E+02  0.19569631376E+02  0.12526307998E+03  0.15538357901E+03  0.00000000000E+00 0.  1.
         22    1    1    2    0    0 -0.12592836143E+04 -0.40482375585E+03 -0.30206770194E+03  0.13568059519E+04  0.00000000000E+00 0. -1.
<mgrwt>
<rscale>  0 0.30703385E+04</rscale>
<asrwt>0</asrwt>
<pdfrwt beam="1">  1        2 0.16957701E+00 0.30703385E+04</pdfrwt>
<pdfrwt beam="2">  1       -2 0.32894162E+00 0.30703385E+04</pdfrwt>
<totfact> 0.38945540E-01</totfact>
</mgrwt>
</event>
<event>
 6    1  0.1585031E-006  0.2937084E+04  0.7818608E-02  0.8261929E-01
         -1   -1    0    0    0  501 -0.00000000000E+00  0.00000000000E+00  0.52751472293E+04  0.52751472293E+04  0.00000000000E+00 0.  1.
          1   -1    0    0  501    0  0.00000000000E+00 -0.00000000000E+00 -0.40882557004E+03  0.40882557004E+03  0.00000000000E+00 0. -1.
         23    2    1    2    0    0  0.36987801517E+03  0.13985418951E+04  0.29072335471E+04  0.32486585671E+04  0.95112618158E+02 0.  0.
         13    1    3    3    0    0  0.23021490682E+03  0.10034800658E+04  0.20058708907E+04  0.22546594368E+04  0.00000000000E+00 0. -1.
        -13    1    3    3    0    0  0.13966310834E+03  0.39506182925E+03  0.90136265643E+03  0.99399913037E+03  0.00000000000E+00 0.  1.
         22    1    1    2    0    0 -0.36987801517E+03 -0.13985418951E+04  0.19590881122E+04  0.24353142322E+04  0.00000000000E+00 0.  1.
<mgrwt>
<rscale>  0 0.29370836E+04</rscale>
<asrwt>0</asrwt>
<pdfrwt beam="1">  1        1 0.62896245E-01 0.29370836E+04</pdfrwt>
<pdfrwt beam="2">  1       -1 0.81156106E+00 0.29370836E+04</pdfrwt>
<totfact> 0.29515310E-03</totfact>
</mgrwt>
</event>
<event>
 6    1  0.1585031E-006  0.2016154E+04  0.7818608E-02  0.8599105E-01
         -1   -1    0    0    0  501 -0.00000000000E+00  0.00000000000E+00  0.26228148026E+03  0.26228148026E+03  0.00000000000E+00 0.  1.
          1   -1    0    0  501    0  0.00000000000E+00 -0.00000000000E+00 -0.38745349007E+04  0.38745349007E+04  0.00000000000E+00 0. -1.
         23    2    1    2    0    0 -0.88449170071E+03 -0.47849144373E+03 -0.18671609811E+04  0.21227093202E+04  0.91241977346E+02 0.  0.
         11    1    3    3    0    0 -0.78640773616E+03 -0.44073332803E+03 -0.17192041099E+04  0.19412227501E+04  0.00000000000E+00 0. -1.
        -11    1    3    3    0    0 -0.98083964554E+02 -0.37758115702E+02 -0.14795687118E+03  0.18148657012E+03  0.00000000000E+00 0.  1.
         22    1    1    2    0    0  0.88449170071E+03  0.47849144373E+03 -0.17450924394E+04  0.20141070608E+04  0.00000000000E+00 0. -1.
<mgrwt>
<rscale>  0 0.20161535E+04</rscale>
<asrwt>0</asrwt>
<pdfrwt beam="1">  1        1 0.59608227E+00 0.20161535E+04</pdfrwt>
<pdfrwt beam="2">  1       -1 0.40350998E-01 0.20161535E+04</pdfrwt>
<totfact> 0.68920268E-01</totfact>
</mgrwt>
</event>
<event>
 6    1  0.1585031E-006  0.8569167E+03  0.7818608E-02  0.9481100E-01
          2   -1    0    0  501    0  0.00000000000E+00  0.00000000000E+00  0.10233228363E+04  0.10233228363E+04  0.00000000000E+00 0. -1.
         -2   -1    0    0    0  501 -0.00000000000E+00 -0.00000000000E+00 -0.17939260233E+03  0.17939260233E+03  0.00000000000E+00 0.  1.
         23    2    1    2    0    0  0.24772206919E+03  0.24265090608E+03  0.76826118331E+03  0.84779081138E+03  0.90985319131E+02 0.  0.
         13    1    3    3    0    0  0.18020882820E+03  0.11454586686E+03  0.44516221848E+03  0.49372601526E+03  0.00000000000E+00 0. -1.
        -13    1    3    3    0    0  0.67513240985E+02  0.12810503923E+03  0.32309896482E+03  0.35406479612E+03  0.00000000000E+00 0.  1.
         22    1    1    2    0    0 -0.24772206919E+03 -0.24265090608E+03  0.75669050635E+02  0.35492462722E+03  0.00000000000E+00 0.  1.
<mgrwt>
<rscale>  0 0.85691667E+03</rscale>
<asrwt>0</asrwt>
<pdfrwt beam="1">  1        2 0.15743428E+00 0.85691667E+03</pdfrwt>
<pdfrwt beam="2">  1       -2 0.27598862E-01 0.85691667E+03</pdfrwt>
<totfact> 0.29206475E+02</totfact>
</mgrwt>
</event>
<event>
 6    1  0.1585031E-006  0.2227537E+04  0.7818608E-02  0.8507053E-01
          2   -1    0    0  501    0  0.00000000000E+00  0.00000000000E+00  0.11244983064E+04  0.11244983064E+04  0.00000000000E+00 0. -1.
         -2   -1    0    0    0  501 -0.00000000000E+00 -0.00000000000E+00 -0.11031408027E+04  0.11031408027E+04  0.00000000000E+00 0.  1.
         23    2    1    2    0    0 -0.42435351115E+03 -0.10190275952E+04  0.14453267744E+03  0.11169342583E+04  0.90328845946E+02 0.  0.
         13    1    3    3    0    0 -0.25217948762E+03 -0.56726350153E+03  0.12388572563E+03  0.63303242188E+03  0.00000000000E+00 0.  1.
        -13    1    3    3    0    0 -0.17217402353E+03 -0.45176409364E+03  0.20646951804E+02  0.48390183643E+03  0.00000000000E+00 0. -1.
         22    1    1    2    0    0  0.42435351115E+03  0.10190275952E+04 -0.12317517375E+03  0.11107048508E+04  0.00000000000E+00 0.  1.
<mgrwt>
<rscale>  0 0.22275367E+04</rscale>
<asrwt>0</asrwt>
<pdfrwt beam="1">  1        2 0.17299974E+00 0.22275367E+04</pdfrwt>
<pdfrwt beam="2">  1       -2 0.16971397E+00 0.22275367E+04</pdfrwt>
<totfact> 0.41092711E+00</totfact>
</mgrwt>
</event>
<event>
 6    1  0.1585031E-006  0.3308774E+04  0.7818608E-02  0.8160666E-01
          2   -1    0    0  501    0  0.00000000000E+00  0.00000000000E+00  0.23499348122E+04  0.23499348122E+04  0.00000000000E+00 0. -1.
         -2   -1    0    0    0  501 -0.00000000000E+00 -0.00000000000E+00 -0.11647118463E+04  0.11647118463E+04  0.00000000000E+00 0.  1.
         23    2    1    2    0    0 -0.35591463514E+03 -0.16138374956E+04  0.63731873313E+03  0.17735706297E+04  0.90724425536E+02 0.  0.
         11    1    3    3    0    0 -0.27759935267E+03 -0.13795247588E+04  0.56245729956E+03  0.15154234308E+04  0.00000000000E+00 0.  1.
        -11    1    3    3    0    0 -0.78315282471E+02 -0.23431273682E+03  0.74861433566E+02  0.25814719897E+03  0.00000000000E+00 0. -1.
         22    1    1    2    0    0  0.35591463514E+03  0.16138374956E+04  0.54790423284E+03  0.17410760288E+04  0.00000000000E+00 0. -1.
<mgrwt>
<rscale>  0 0.33087743E+04</rscale>
<asrwt>0</asrwt>
<pdfrwt beam="1">  1        2 0.36152843E+00 0.33087743E+04</pdfrwt>
<pdfrwt beam="2">  1       -2 0.17918644E+00 0.33087743E+04</pdfrwt>
<totfact> 0.65100076E-01</totfact>
</mgrwt>
</event>
<event>
 6    1  0.1585031E-006  0.4018308E+04  0.7818608E-02  0.8000863E-01
          2   -1    0    0  501    0  0.00000000000E+00  0.00000000000E+00  0.19824992286E+04  0.19824992286E+04  0.00000000000E+00 0. -1.
         -2   -1    0    0    0  501 -0.00000000000E+00 -0.00000000000E+00 -0.20361670722E+04  0.20361670722E+04  0.00000000000E+00 0.  1.
         23    2    1    2    0    0  0.31650230228E+03  0.73945922758E+03  0.18132519631E+04  0.19858448081E+04  0.93398413276E+02 0.  0.
         13    1    3    3    0    0  0.28082754530E+03  0.58552159278E+03  0.13951007506E+04  0.15388325933E+04  0.00000000000E+00 0.  1.
        -13    1    3    3    0    0  0.35674756984E+02  0.15393763480E+03  0.41815121245E+03  0.44701221478E+03  0.00000000000E+00 0. -1.
         22    1    1    2    0    0 -0.31650230228E+03 -0.73945922758E+03 -0.18669198067E+04  0.20328214927E+04  0.00000000000E+00 0.  1.
<mgrwt>
<rscale>  0 0.40183079E+04</rscale>
<asrwt>0</asrwt>
<pdfrwt beam="1">  1        2 0.30499988E+00 0.40183079E+04</pdfrwt>
<pdfrwt beam="2">  1       -2 0.31325647E+00 0.40183079E+04</pdfrwt>
<totfact> 0.14182336E-01</totfact>
</mgrwt>
</event>
<event>
 6    1  0.1585031E-006  0.1249538E+04  0.7818608E-02  0.9070568E-01
         -2   -1    0    0    0  501 -0.00000000000E+00  0.00000000000E+00  0.93003360635E+03  0.93003360635E+03  0.00000000000E+00 0.  1.
          2   -1    0    0  501    0  0.00000000000E+00 -0.00000000000E+00 -0.41970113006E+03  0.41970113006E+03  0.00000000000E+00 0. -1.
         23    2    1    2    0    0  0.28921331272E+03 -0.26876089374E+03  0.77492874221E+03  0.87445803574E+03  0.91024955373E+02 0.  0.
         11    1    3    3    0    0  0.13242830343E+03 -0.13778731162E+03  0.27978481508E+03  0.33882464719E+03  0.00000000000E+00 0. -1.
        -11    1    3    3    0    0  0.15678500929E+03 -0.13097358211E+03  0.49514392713E+03  0.53563338855E+03  0.00000000000E+00 0.  1.
         22    1    1    2    0    0 -0.28921331272E+03  0.26876089374E+03 -0.26459626592E+03  0.47527670067E+03  0.00000000000E+00 0. -1.
<mgrwt>
<rscale>  0 0.12495378E+04</rscale>
<asrwt>0</asrwt>
<pdfrwt beam="1">  1        2 0.64569405E-01 0.12495378E+04</pdfrwt>
<pdfrwt beam="2">  1       -2 0.14308209E+00 0.12495378E+04</pdfrwt>
<totfact> 0.25108521E+01</totfact>
</mgrwt>
</event>
<event>
 6    1  0.1585031E-006  0.1279138E+04  0.7818608E-02  0.9046274E-01
         -1   -1    0    0    0  501 -0.00000000000E+00  0.00000000000E+00  0.22244228482E+03  0.22244228482E+03  0.00000000000E+00 0.  1.
          1   -1    0    0  501    0  0.00000000000E+00 -0.00000000000E+00 -0.18388980747E+04  0.18388980747E+04  0.00000000000E+00 0. -1.
         23    2    1    2    0    0 -0.32508211807E+03  0.39090130812E+03 -0.14289305523E+04  0.15194474449E+04  0.91628588650E+02 0.  0.
         11    1    3    3    0    0 -0.18205590020E+03  0.26360966045E+03 -0.79135165696E+03  0.85373991874E+03  0.00000000000E+00 0. -1.
        -11    1    3    3    0    0 -0.14302621787E+03  0.12729164767E+03 -0.63757889538E+03  0.66570752617E+03  0.00000000000E+00 0.  1.
         22    1    1    2    0    0  0.32508211807E+03 -0.39090130812E+03 -0.18752523752E+03  0.54189291459E+03  0.00000000000E+00 0.  1.
<mgrwt>
<rscale>  0 0.12791383E+04</rscale>
<asrwt>0</asrwt>
<pdfrwt beam="1">  1        1 0.28290740E+00 0.12791383E+04</pdfrwt>
<pdfrwt beam="2">  1       -1 0.34221890E-01 0.12791383E+04</pdfrwt>
<totfact> 0.30495764E+01</totfact>
</mgrwt>
</event>
<event>
 6    1  0.1585031E-006  0.2378377E+04  0.7818608E-02  0.8447643E-01
         -2   -1    0    0    0  501 -0.00000000000E+00  0.00000000000E+00  0.10741491444E+04  0.10741491444E+04  0.00000000000E+00 0.  1.
          2   -1    0    0  501    0  0.00000000000E+00 -0.00000000000E+00 -0.13165483872E+04  0.13165483872E+04  0.00000000000E+00 0. -1.
         23    2    1    2    0    0  0.74743897804E+03 -0.39340701439E+03 -0.96035894831E+03  0.12821398003E+04  0.90327476822E+02 0.  0.
         13    1    3    3    0    0  0.28143606561E+03 -0.10092570058E+03 -0.35438596967E+03  0.46366116029E+03  0.00000000000E+00 0. -1.
        -13    1    3    3    0    0  0.46600291242E+03 -0.29248131381E+03 -0.60597297864E+03  0.81847864002E+03  0.00000000000E+00 0.  1.
         22    1    1    2    0    0 -0.74743897804E+03  0.39340701439E+03  0.71795970556E+03  0.11085577313E+04  0.00000000000E+00 0.  1.
<mgrwt>
<rscale>  0 0.23783770E+04</rscale>
<asrwt>0</asrwt>
<pdfrwt beam="1">  1        2 0.20254591E+00 0.23783770E+04</pdfrwt>
<pdfrwt beam="2">  1       -2 0.16525371E+00 0.23783770E+04</pdfrwt>
<totfact> 0.33581078E+00</totfact>
</mgrwt>
</event>
<event>
 6    1  0.1585031E-006  0.1115621E+04  0.7818608E-02  0.9190099E-01
          2   -1    0    0  501    0  0.00000000000E+00  0.00000000000E+00  0.26271662949E+03  0.26271662949E+03  0.00000000000E+00 0. -1.
         -2   -1    0    0    0  501 -0.00000000000E+00 -0.00000000000E+00 -0.11843654968E+04  0.11843654968E+04  0.00000000000E+00 0.  1.
         23    2    1    2    0    0  0.35758938740E+03 -0.16769429804E+03 -0.96792782517E+03  0.10494223603E+04  0.91714055331E+02 0.  0.
         11    1    3    3    0    0  0.24952116721E+03 -0.15298518424E+03 -0.76431279584E+03  0.81843712610E+03  0.00000000000E+00 0. -1.
        -11    1    3    3    0    0  0.10806822019E+03 -0.14709113791E+02 -0.20361502932E+03  0.23098523418E+03  0.00000000000E+00 0.  1.
         22    1    1    2    0    0 -0.35758938740E+03  0.16769429804E+03  0.46278957837E+02  0.39765976602E+03  0.00000000000E+00 0. -1.
<mgrwt>
<rscale>  0 0.11156209E+04</rscale>
<asrwt>0</asrwt>
<pdfrwt beam="1">  1        2 0.40417943E-01 0.11156209E+04</pdfrwt>
<pdfrwt beam="2">  1       -2 0.18221008E+00 0.11156209E+04</pdfrwt>
<totfact> 0.22093442E+01</totfact>
</mgrwt>
</event>
<event>
 6    1  0.1585031E-006  0.1821133E+04  0.7818608E-02  0.8695141E-01
          2   -1    0    0  501    0  0.00000000000E+00  0.00000000000E+00  0.11268633121E+04  0.11268633121E+04  0.00000000000E+00 0. -1.
         -2   -1    0    0    0  501 -0.00000000000E+00 -0.00000000000E+00 -0.73578732245E+03  0.73578732245E+03  0.00000000000E+00 0.  1.
         23    2    1    2    0    0 -0.37505087301E+03 -0.42718948392E+03 -0.52848270209E+03  0.78156682649E+03  0.91644559735E+02 0.  0.
         13    1    3    3    0    0 -0.76027777350E+02 -0.37966847501E+02 -0.78417078225E+02  0.11563279204E+03  0.00000000000E+00 0. -1.
        -13    1    3    3    0    0 -0.29902309566E+03 -0.38922263642E+03 -0.45006562387E+03  0.66593403444E+03  0.00000000000E+00 0.  1.
         22    1    1    2    0    0  0.37505087301E+03  0.42718948392E+03  0.91955869179E+03  0.10810838081E+04  0.00000000000E+00 0. -1.
<mgrwt>
<rscale>  0 0.18211334E+04</rscale>
<asrwt>0</asrwt>
<pdfrwt beam="1">  1        2 0.17336359E+00 0.18211334E+04</pdfrwt>
<pdfrwt beam="2">  1       -2 0.11319805E+00 0.18211334E+04</pdfrwt>
<totfact> 0.12115115E+01</totfact>
</mgrwt>
</event>
<event>
 6    1  0.1585031E-006  0.5684075E+04  0.7818608E-02  0.7730856E-01
          2   -1    0    0  501    0  0.00000000000E+00  0.00000000000E+00  0.20619589634E+04  0.20619589634E+04  0.00000000000E+00 0. -1.
         -2   -1    0    0    0  501 -0.00000000000E+00 -0.00000000000E+00 -0.39172341673E+04  0.39172341673E+04  0.00000000000E+00 0.  1.
         23    2    1    2    0    0 -0.50780610076E+03 -0.27546654376E+04 -0.14288115115E+04  0.31458347012E+04  0.93407297313E+02 0.  0.
         11    1    3    3    0    0 -0.15592765171E+03 -0.77738691329E+03 -0.44986700715E+03  0.91160527074E+03  0.00000000000E+00 0.  1.
        -11    1    3    3    0    0 -0.35187844905E+03 -0.19772785243E+04 -0.97894450432E+03  0.22342294305E+04  0.00000000000E+00 0. -1.
         22    1    1    2    0    0  0.50780610076E+03  0.27546654376E+04 -0.42646369247E+03  0.28333584295E+04  0.00000000000E+00 0. -1.
<mgrwt>
<rscale>  0 0.56840746E+04</rscale>
<asrwt>0</asrwt>
<pdfrwt beam="1">  1        2 0.31722446E+00 0.56840746E+04</pdfrwt>
<pdfrwt beam="2">  1       -2 0.60265141E+00 0.56840746E+04</pdfrwt>
<totfact> 0.21476902E-03</totfact>
</mgrwt>
</event>
<event>
 6    1  0.1585031E-006  0.3984790E+04  0.7818608E-02  0.8007622E-01
         -1   -1    0    0    0  501 -0.00000000000E+00  0.00000000000E+00  0.20083885541E+04  0.20083885541E+04  0.00000000000E+00 0.  1.
          1   -1    0    0  501    0  0.00000000000E+00 -0.00000000000E+00 -0.19765288035E+04  0.19765288035E+04  0.00000000000E+00 0. -1.
         23    2    1    2    0    0 -0.74850944169E+03  0.15111250402E+04 -0.10433172122E+04  0.19849746653E+04  0.88590887282E+02 0.  0.
         13    1    3    3    0    0 -0.32025098983E+03  0.67335781626E+03 -0.51120986510E+03  0.90405031463E+03  0.00000000000E+00 0. -1.
        -13    1    3    3    0    0 -0.42825845186E+03  0.83776722389E+03 -0.53210734706E+03  0.10809243506E+04  0.00000000000E+00 0.  1.
         22    1    1    2    0    0  0.74850944169E+03 -0.15111250402E+04  0.10751769628E+04  0.19999426923E+04  0.00000000000E+00 0. -1.
<mgrwt>
<rscale>  0 0.39847900E+04</rscale>
<asrwt>0</asrwt>
<pdfrwt beam="1">  1        1 0.30408135E+00 0.39847900E+04</pdfrwt>
<pdfrwt beam="2">  1       -1 0.30898285E+00 0.39847900E+04</pdfrwt>
<totfact> 0.69939035E-02</totfact>
</mgrwt>
</event>
<event>
 6    1  0.1585031E-006  0.4163602E+04  0.7818608E-02  0.7972332E-01
         -2   -1    0    0    0  501 -0.00000000000E+00  0.00000000000E+00  0.30349280870E+04  0.30349280870E+04  0.00000000000E+00 0.  1.
          2   -1    0    0  501    0  0.00000000000E+00 -0.00000000000E+00 -0.14280062133E+04  0.14280062133E+04  0.00000000000E+00 0. -1.
         23    2    1    2    0    0 -0.16781385532E+04  0.20690336087E+03  0.21037769398E+04  0.27005997801E+04  0.91671998028E+02 0.  0.
         11    1    3    3    0    0 -0.12759178824E+04  0.18319654973E+03  0.16487671585E+04  0.20928355313E+04  0.00000000000E+00 0.  1.
        -11    1    3    3    0    0 -0.40222067080E+03  0.23706811137E+02  0.45500978138E+03  0.60776424876E+03  0.00000000000E+00 0. -1.
         22    1    1    2    0    0  0.16781385532E+04 -0.20690336087E+03 -0.49685506617E+03  0.17623345202E+04  0.00000000000E+00 0. -1.
<mgrwt>
<rscale>  0 0.41636024E+04</rscale>
<asrwt>0</asrwt>
<pdfrwt beam="1">  1        2 0.21969327E+00 0.41636024E+04</pdfrwt>
<pdfrwt beam="2">  1       -2 0.46691201E+00 0.41636024E+04</pdfrwt>
<totfact> 0.29191656E-02</totfact>
</mgrwt>
</event>
<event>
 6    1  0.1585031E-006  0.3213156E+04  0.7818608E-02  0.8185351E-01
          2   -1    0    0  501    0  0.00000000000E+00  0.00000000000E+00  0.13812704897E+04  0.13812704897E+04  0.00000000000E+00 0. -1.
         -2   -1    0    0    0  501 -0.00000000000E+00 -0.00000000000E+00 -0.18686368063E+04  0.18686368063E+04  0.00000000000E+00 0.  1.
         23    2    1    2    0    0 -0.21438613662E+03  0.78823844509E+03 -0.16416223973E+04  0.18358392773E+04  0.90002749143E+02 0.  0.
         11    1    3    3    0    0 -0.36294437305E+02  0.17692756461E+03 -0.28811919274E+03  0.34004899430E+03  0.00000000000E+00 0. -1.
        -11    1    3    3    0    0 -0.17809169932E+03  0.61131088048E+03 -0.13535032045E+04  0.14957902830E+04  0.00000000000E+00 0.  1.
         22    1    1    2    0    0  0.21438613662E+03 -0.78823844509E+03  0.11542560806E+04  0.14140680187E+04  0.00000000000E+00 0. -1.
<mgrwt>
<rscale>  0 0.32131560E+04</rscale>
<asrwt>0</asrwt>
<pdfrwt beam="1">  1        2 0.21250315E+00 0.32131560E+04</pdfrwt>
<pdfrwt beam="2">  1       -2 0.28748258E+00 0.32131560E+04</pdfrwt>
<totfact> 0.47295591E-01</totfact>
</mgrwt>
</event>
<event>
 6    1  0.1585031E-006  0.3770991E+04  0.7818608E-02  0.8052409E-01
         -2   -1    0    0    0  501 -0.00000000000E+00  0.00000000000E+00  0.13274785500E+04  0.13274785500E+04  0.00000000000E+00 0.  1.
          2   -1    0    0  501    0  0.00000000000E+00 -0.00000000000E+00 -0.26780796689E+04  0.26780796689E+04  0.00000000000E+00 0. -1.
         23    2    1    2    0    0 -0.83732578993E+03 -0.17059211667E+03 -0.24597098994E+04  0.26054373542E+04  0.88965549243E+02 0.  0.
         11    1    3    3    0    0 -0.35424862647E+03 -0.76673169500E+02 -0.91254013547E+03  0.98188612533E+03  0.00000000000E+00 0. -1.
        -11    1    3    3    0    0 -0.48307716346E+03 -0.93918947167E+02 -0.15471697639E+04  0.16235512289E+04  0.00000000000E+00 0.  1.
         22    1    1    2    0    0  0.83732578993E+03  0.17059211667E+03  0.11091087805E+04  0.14001208647E+04  0.00000000000E+00 0.  1.
<mgrwt>
<rscale>  0 0.37709910E+04</rscale>
<asrwt>0</asrwt>
<pdfrwt beam="1">  1        2 0.41201226E+00 0.37709910E+04</pdfrwt>
<pdfrwt beam="2">  1       -2 0.20422747E+00 0.37709910E+04</pdfrwt>
<totfact> 0.27441840E-01</totfact>
</mgrwt>
</event>
<event>
 6    1  0.1585031E-006  0.1214660E+04  0.7818608E-02  0.9100120E-01
         -2   -1    0    0    0  501 -0.00000000000E+00  0.00000000000E+00  0.17900381647E+03  0.17900381647E+03  0.00000000000E+00 0.  1.
          2   -1    0    0  501    0  0.00000000000E+00 -0.00000000000E+00 -0.20605705578E+04  0.20605705578E+04  0.00000000000E+00 0. -1.
         23    2    1    2    0    0 -0.39974933593E+03 -0.41908174539E+03 -0.63096668183E+03  0.86137643865E+03  0.91768047799E+02 0.  0.
         13    1    3    3    0    0 -0.11200443760E+03 -0.16200650394E+03 -0.16950502791E+03  0.25985198835E+03  0.00000000000E+00 0.  1.
        -13    1    3    3    0    0 -0.28774489833E+03 -0.25707524145E+03 -0.46146165391E+03  0.60152445031E+03  0.00000000000E+00 0. -1.
         22    1    1    2    0    0  0.39974933593E+03  0.41908174539E+03 -0.12506000595E+04  0.13781979356E+04  0.00000000000E+00 0. -1.
<mgrwt>
<rscale>  0 0.12146604E+04</rscale>
<asrwt>0</asrwt>
<pdfrwt beam="1">  1        2 0.31701086E+00 0.12146604E+04</pdfrwt>
<pdfrwt beam="2">  1       -2 0.27539048E-01 0.12146604E+04</pdfrwt>
<totfact> 0.73370180E+01</totfact>
</mgrwt>
</event>
<event>
 6    1  0.1585031E-006  0.1809367E+04  0.7818608E-02  0.8701334E-01
         -1   -1    0    0    0  501 -0.00000000000E+00  0.00000000000E+00  0.10381769807E+04  0.10381769807E+04  0.00000000000E+00 0.  1.
          1   -1    0    0  501    0  0.00000000000E+00 -0.00000000000E+00 -0.78835559282E+03  0.78835559282E+03  0.00000000000E+00 0. -1.
         23    2    1    2    0    0  0.66278929159E+03 -0.61040496793E+03  0.82163917293E+02  0.91002130932E+03  0.97488482313E+02 0.  0.
         13    1    3    3    0    0  0.20823448103E+03 -0.13685154645E+03  0.64726925712E+01  0.24926259368E+03  0.00000000000E+00 0. -1.
        -13    1    3    3    0    0  0.45455481056E+03 -0.47355342148E+03  0.75691224721E+02  0.66075871564E+03  0.00000000000E+00 0.  1.
         22    1    1    2    0    0 -0.66278929159E+03  0.61040496793E+03  0.16765747056E+03  0.91651126418E+03  0.00000000000E+00 0. -1.
<mgrwt>
<rscale>  0 0.18093674E+04</rscale>
<asrwt>0</asrwt>
<pdfrwt beam="1">  1        1 0.12128548E+00 0.18093674E+04</pdfrwt>
<pdfrwt beam="2">  1       -1 0.15971954E+00 0.18093674E+04</pdfrwt>
<totfact> 0.62678048E+00</totfact>
</mgrwt>
</event>
<event>
 6    1  0.1585031E-006  0.1062678E+04  0.7818608E-02  0.9242352E-01
         -1   -1    0    0    0  501 -0.00000000000E+00  0.00000000000E+00  0.30371113490E+03  0.30371113490E+03  0.00000000000E+00 0.  1.
          1   -1    0    0  501    0  0.00000000000E+00 -0.00000000000E+00 -0.92957105522E+03  0.92957105522E+03  0.00000000000E+00 0. -1.
         23    2    1    2    0    0  0.35600908097E+01 -0.48911594517E+03 -0.86323816933E+02  0.50503340782E+03  0.91432267729E+02 0.  0.
         11    1    3    3    0    0  0.31449147501E+02 -0.90378178873E+02  0.18511255724E+01  0.95711497537E+02  0.00000000000E+00 0.  1.
        -11    1    3    3    0    0 -0.27889056692E+02 -0.39873776629E+03 -0.88174942505E+02  0.40932191028E+03  0.00000000000E+00 0. -1.
         22    1    1    2    0    0 -0.35600908097E+01  0.48911594517E+03 -0.53953610339E+03  0.72824878230E+03  0.00000000000E+00 0. -1.
<mgrwt>
<rscale>  0 0.10626779E+04</rscale>
<asrwt>0</asrwt>
<pdfrwt beam="1">  1        1 0.14301093E+00 0.10626779E+04</pdfrwt>
<pdfrwt beam="2">  1       -1 0.46724790E-01 0.10626779E+04</pdfrwt>
<totfact> 0.78428996E+01</totfact>
</mgrwt>
</event>
<event>
 6    1  0.1585031E-006  0.1036999E+04  0.7818608E-02  0.9268870E-01
         -1   -1    0    0    0  501 -0.00000000000E+00  0.00000000000E+00  0.13567548268E+03  0.13567548268E+03  0.00000000000E+00 0.  1.
          1   -1    0    0  501    0  0.00000000000E+00 -0.00000000000E+00 -0.19815064461E+04  0.19815064461E+04  0.00000000000E+00 0. -1.
         23    2    1    2    0    0  0.85167682708E+02 -0.16848438765E+03 -0.19071701046E+04  0.19186800061E+04  0.91622240806E+02 0.  0.
         13    1    3    3    0    0 -0.95886783277E+01 -0.71815820276E+02 -0.79738956531E+03  0.80067444924E+03  0.00000000000E+00 0. -1.
        -13    1    3    3    0    0  0.94756361035E+02 -0.96668567376E+02 -0.11097805393E+04  0.11180055569E+04  0.00000000000E+00 0.  1.
         22    1    1    2    0    0 -0.85167682708E+02  0.16848438765E+03  0.61339141171E+02  0.19850192266E+03  0.00000000000E+00 0.  1.
<mgrwt>
<rscale>  0 0.10369992E+04</rscale>
<asrwt>0</asrwt>
<pdfrwt beam="1">  1        1 0.30484713E+00 0.10369992E+04</pdfrwt>
<pdfrwt beam="2">  1       -1 0.20873152E-01 0.10369992E+04</pdfrwt>
<totfact> 0.58639722E+01</totfact>
</mgrwt>
</event>
<event>
 6    1  0.1585031E-006  0.2489601E+04  0.7818608E-02  0.8406699E-01
         -1   -1    0    0    0  501 -0.00000000000E+00  0.00000000000E+00  0.59727261665E+03  0.59727261665E+03  0.00000000000E+00 0.  1.
          1   -1    0    0  501    0  0.00000000000E+00 -0.00000000000E+00 -0.25943410704E+04  0.25943410704E+04  0.00000000000E+00 0. -1.
         23    2    1    2    0    0  0.71814626711E+03 -0.37819053244E+03 -0.22070150856E+04  0.23532583160E+04  0.90260589643E+02 0.  0.
         13    1    3    3    0    0  0.64433545284E+03 -0.31302849487E+03 -0.18849776058E+04  0.20165057869E+04  0.00000000000E+00 0. -1.
        -13    1    3    3    0    0  0.73810814266E+02 -0.65162037570E+02 -0.32203747987E+03  0.33675252914E+03  0.00000000000E+00 0.  1.
         22    1    1    2    0    0 -0.71814626711E+03  0.37819053244E+03  0.20994663192E+03  0.83835537097E+03  0.00000000000E+00 0.  1.
<mgrwt>
<rscale>  0 0.24896015E+04</rscale>
<asrwt>0</asrwt>
<pdfrwt beam="1">  1        1 0.39912939E+00 0.24896015E+04</pdfrwt>
<pdfrwt beam="2">  1       -1 0.91888095E-01 0.24896015E+04</pdfrwt>
<totfact> 0.11940803E+00</totfact>
</mgrwt>
</event>
<event>
 6    1  0.1585031E-006  0.1040928E+04  0.7818608E-02  0.9264761E-01
          2   -1    0    0  501    0  0.00000000000E+00  0.00000000000E+00  0.79453011450E+03  0.79453011450E+03  0.00000000000E+00 0. -1.
         -2   -1    0    0    0  501 -0.00000000000E+00 -0.00000000000E+00 -0.34093430115E+03  0.34093430115E+03  0.00000000000E+00 0.  1.
         23    2    1    2    0    0 -0.21030315483E+03 -0.19145504898E+03  0.69889924145E+03  0.75988988969E+03  0.89944660968E+02 0.  0.
         11    1    3    3    0    0 -0.12551406524E+03 -0.13865934861E+03  0.34828641952E+03  0.39532723857E+03  0.00000000000E+00 0.  1.
        -11    1    3    3    0    0 -0.84789089593E+02 -0.52795700373E+02  0.35061282193E+03  0.36456265112E+03  0.00000000000E+00 0. -1.
         22    1    1    2    0    0  0.21030315483E+03  0.19145504898E+03 -0.24530342811E+03  0.37557452596E+03  0.00000000000E+00 0.  1.
<mgrwt>
<rscale>  0 0.10409276E+04</rscale>
<asrwt>0</asrwt>
<pdfrwt beam="1">  1        2 0.12223540E+00 0.10409276E+04</pdfrwt>
<pdfrwt beam="2">  1       -2 0.52451431E-01 0.10409276E+04</pdfrwt>
<totfact> 0.11880079E+02</totfact>
</mgrwt>
</event>
<event>
 6    1  0.1585031E-006  0.3825692E+04  0.7818608E-02  0.8040664E-01
         -1   -1    0    0    0  501 -0.00000000000E+00  0.00000000000E+00  0.14425083221E+04  0.14425083221E+04  0.00000000000E+00 0.  1.
          1   -1    0    0  501    0  0.00000000000E+00 -0.00000000000E+00 -0.25365399068E+04  0.25365399068E+04  0.00000000000E+00 0. -1.
         23    2    1    2    0    0  0.14054562134E+02  0.61068128332E+03  0.13368460857E+04  0.14725974696E+04  0.90866330591E+02 0.  0.
         13    1    3    3    0    0 -0.37495935847E+02  0.19218785075E+03  0.43613257910E+03  0.47807294604E+03  0.00000000000E+00 0.  1.
        -13    1    3    3    0    0  0.51550497981E+02  0.41849343257E+03  0.90071350659E+03  0.99452452353E+03  0.00000000000E+00 0. -1.
         22    1    1    2    0    0 -0.14054562134E+02 -0.61068128332E+03 -0.24308776704E+04  0.25064507594E+04  0.00000000000E+00 0. -1.
<mgrwt>
<rscale>  0 0.38256921E+04</rscale>
<asrwt>0</asrwt>
<pdfrwt beam="1">  1        1 0.39023690E+00 0.38256921E+04</pdfrwt>
<pdfrwt beam="2">  1       -1 0.22192436E+00 0.38256921E+04</pdfrwt>
<totfact> 0.10837623E-01</totfact>
</mgrwt>
</event>
<event>
 6    1  0.1585031E-006  0.2880220E+04  0.7818608E-02  0.8278787E-01
         -2   -1    0    0    0  501 -0.00000000000E+00  0.00000000000E+00  0.10222115017E+04  0.10222115017E+04  0.00000000000E+00 0. -1.
          2   -1    0    0  501    0  0.00000000000E+00 -0.00000000000E+00 -0.20288526355E+04  0.20288526355E+04  0.00000000000E+00 0.  1.
         23    2    1    2    0    0 -0.53191946715E+03 -0.12994110361E+04 -0.17165526454E+03  0.14174764407E+04  0.91468955979E+02 0.  0.
         11    1    3    3    0    0 -0.22607993816E+03 -0.61045129107E+03 -0.11979776579E+03  0.66190212410E+03  0.00000000000E+00 0.  1.
        -11    1    3    3    0    0 -0.30583952899E+03 -0.68895974499E+03 -0.51857498749E+02  0.75557431658E+03  0.00000000000E+00 0. -1.
         22    1    1    2    0    0  0.53191946715E+03  0.12994110361E+04 -0.83498586926E+03  0.16335876965E+04  0.00000000000E+00 0. -1.
<mgrwt>
<rscale>  0 0.28802198E+04</rscale>
<asrwt>0</asrwt>
<pdfrwt beam="1">  1        2 0.31213117E+00 0.28802198E+04</pdfrwt>
<pdfrwt beam="2">  1       -2 0.15726331E+00 0.28802198E+04</pdfrwt>
<totfact> 0.14693852E+00</totfact>
</mgrwt>
</event>
<event>
 6    1  0.1585031E-006  0.1713850E+04  0.7818608E-02  0.8753504E-01
          2   -1    0    0  501    0  0.00000000000E+00  0.00000000000E+00  0.14475410669E+04  0.14475410669E+04  0.00000000000E+00 0. -1.
         -2   -1    0    0    0  501 -0.00000000000E+00 -0.00000000000E+00 -0.50728813452E+03  0.50728813452E+03  0.00000000000E+00 0.  1.
         23    2    1    2    0    0  0.79975302260E+02  0.74140849795E+03  0.94740570029E+03  0.12090854305E+04  0.90705057918E+02 0.  0.
         11    1    3    3    0    0  0.33889691758E+02  0.93167711648E+02  0.15878812809E+03  0.18719616269E+03  0.00000000000E+00 0.  1.
        -11    1    3    3    0    0  0.46085610501E+02  0.64824078630E+03  0.78861757220E+03  0.10218892678E+04  0.00000000000E+00 0. -1.
         22    1    1    2    0    0 -0.79975302260E+02 -0.74140849795E+03 -0.71527678790E+01  0.74574377094E+03  0.00000000000E+00 0.  1.
<mgrwt>
<rscale>  0 0.17138499E+04</rscale>
<asrwt>0</asrwt>
<pdfrwt beam="1">  1        2 0.22269862E+00 0.17138499E+04</pdfrwt>
<pdfrwt beam="2">  1       -2 0.78044329E-01 0.17138499E+04</pdfrwt>
<totfact> 0.18881415E+01</totfact>
</mgrwt>
</event>
<event>
 6    1  0.1585031E-006  0.3466486E+04  0.7818608E-02  0.8121779E-01
          2   -1    0    0  501    0  0.00000000000E+00  0.00000000000E+00  0.13296609243E+04  0.13296609243E+04  0.00000000000E+00 0. -1.
         -2   -1    0    0    0  501 -0.00000000000E+00 -0.00000000000E+00 -0.22593211563E+04  0.22593211563E+04  0.00000000000E+00 0.  1.
         23    2    1    2    0    0 -0.20552818170E+03 -0.47510756754E+03 -0.21764247967E+04  0.22390224834E+04  0.91802784379E+02 0.  0.
         11    1    3    3    0    0 -0.19272041601E+03 -0.46074663953E+03 -0.19943222545E+04  0.20559060970E+04  0.00000000000E+00 0. -1.
        -11    1    3    3    0    0 -0.12807765688E+02 -0.14360928003E+02 -0.18210254213E+03  0.18311638639E+03  0.00000000000E+00 0.  1.
         22    1    1    2    0    0  0.20552818170E+03  0.47510756754E+03  0.12467645647E+04  0.13499595972E+04  0.00000000000E+00 0. -1.
<mgrwt>
<rscale>  0 0.34664859E+04</rscale>
<asrwt>0</asrwt>
<pdfrwt beam="1">  1        2 0.20456322E+00 0.34664859E+04</pdfrwt>
<pdfrwt beam="2">  1       -2 0.34758787E+00 0.34664859E+04</pdfrwt>
<totfact> 0.21082969E-01</totfact>
</mgrwt>
</event>
<event>
 6    1  0.1585031E-006  0.4758041E+04  0.7818608E-02  0.7866956E-01
         -2   -1    0    0    0  501 -0.00000000000E+00  0.00000000000E+00  0.14324593476E+04  0.14324593476E+04  0.00000000000E+00 0.  1.
          2   -1    0    0  501    0  0.00000000000E+00 -0.00000000000E+00 -0.39510646053E+04  0.39510646053E+04  0.00000000000E+00 0. -1.
         23    2    1    2    0    0  0.10718130910E+04  0.19030643577E+04 -0.23242036553E+04  0.31907564699E+04  0.92557911662E+02 0.  0.
         13    1    3    3    0    0  0.82706554977E+03  0.14938404348E+04 -0.18685858894E+04  0.25312467075E+04  0.00000000000E+00 0. -1.
        -13    1    3    3    0    0  0.24474754123E+03  0.40922392293E+03 -0.45561776594E+03  0.65950976238E+03  0.00000000000E+00 0.  1.
         22    1    1    2    0    0 -0.10718130910E+04 -0.19030643577E+04 -0.19440160234E+03  0.21927674831E+04  0.00000000000E+00 0.  1.
<mgrwt>
<rscale>  0 0.47580414E+04</rscale>
<asrwt>0</asrwt>
<pdfrwt beam="1">  1        2 0.60785610E+00 0.47580414E+04</pdfrwt>
<pdfrwt beam="2">  1       -2 0.22037836E+00 0.47580414E+04</pdfrwt>
<totfact> 0.27208752E-02</totfact>
</mgrwt>
</event>
<event>
 6    1  0.1585031E-006  0.3238032E+04  0.7818608E-02  0.8178845E-01
         -1   -1    0    0    0  501 -0.00000000000E+00  0.00000000000E+00  0.17426461137E+04  0.17426461137E+04  0.00000000000E+00 0.  1.
          1   -1    0    0  501    0  0.00000000000E+00 -0.00000000000E+00 -0.15041569059E+04  0.15041569059E+04  0.00000000000E+00 0. -1.
         23    2    1    2    0    0 -0.18588718175E+03  0.10593801005E+04  0.13310111940E+04  0.17136870644E+04  0.91062146197E+02 0.  0.
         13    1    3    3    0    0 -0.16758379800E+03  0.80271963700E+03  0.10570876799E+04  0.13378630378E+04  0.00000000000E+00 0. -1.
        -13    1    3    3    0    0 -0.18303383752E+02  0.25666046348E+03  0.27392351417E+03  0.37582402662E+03  0.00000000000E+00 0.  1.
         22    1    1    2    0    0  0.18588718175E+03 -0.10593801005E+04 -0.10925219863E+04  0.15331159552E+04  0.00000000000E+00 0. -1.
<mgrwt>
<rscale>  0 0.32380322E+04</rscale>
<asrwt>0</asrwt>
<pdfrwt beam="1">  1        1 0.23140875E+00 0.32380322E+04</pdfrwt>
<pdfrwt beam="2">  1       -1 0.26809940E+00 0.32380322E+04</pdfrwt>
<totfact> 0.28806231E-01</totfact>
</mgrwt>
</event>
<event>
 6    1  0.1585031E-006  0.2037314E+04  0.7818608E-02  0.8589371E-01
          1   -1    0    0  501    0  0.00000000000E+00  0.00000000000E+00  0.14743296401E+04  0.14743296401E+04  0.00000000000E+00 0. -1.
         -1   -1    0    0    0  501 -0.00000000000E+00 -0.00000000000E+00 -0.70381992381E+03  0.70381992381E+03  0.00000000000E+00 0.  1.
         23    2    1    2    0    0 -0.91101163894E+03  0.44782226135E+03  0.44669616939E+03  0.11126251873E+04  0.88940180160E+02 0.  0.
         11    1    3    3    0    0 -0.91973134676E+02  0.73456775541E+02  0.65739115709E+02  0.13482057228E+03  0.00000000000E+00 0.  1.
        -11    1    3    3    0    0 -0.81903850426E+03  0.37436548581E+03  0.38095705368E+03  0.97780461503E+03  0.00000000000E+00 0. -1.
         22    1    1    2    0    0  0.91101163894E+03 -0.44782226135E+03  0.32381354694E+03  0.10655243766E+04  0.00000000000E+00 0.  1.
<mgrwt>
<rscale>  0 0.20373145E+04</rscale>
<asrwt>0</asrwt>
<pdfrwt beam="1">  1        1 0.22681994E+00 0.20373145E+04</pdfrwt>
<pdfrwt beam="2">  1       -1 0.10827999E+00 0.20373145E+04</pdfrwt>
<totfact> 0.49923431E+00</totfact>
</mgrwt>
</event>
<event>
 6    1  0.1585031E-006  0.4753815E+04  0.7818608E-02  0.7867648E-01
         -2   -1    0    0    0  501 -0.00000000000E+00  0.00000000000E+00  0.18171848702E+04  0.18171848702E+04  0.00000000000E+00 0.  1.
          2   -1    0    0  501    0  0.00000000000E+00 -0.00000000000E+00 -0.31090335805E+04  0.31090335805E+04  0.00000000000E+00 0. -1.
         23    2    1    2    0    0 -0.13071988547E+04  0.60481899021E+03  0.13121319663E+04  0.19504344832E+04  0.89047850191E+02 0.  0.
         11    1    3    3    0    0 -0.45214403848E+03  0.23061668886E+03  0.41163898871E+03  0.65350206253E+03  0.00000000000E+00 0. -1.
        -11    1    3    3    0    0 -0.85505481620E+03  0.37420230135E+03  0.90049297764E+03  0.12969324207E+04  0.00000000000E+00 0.  1.
         22    1    1    2    0    0  0.13071988547E+04 -0.60481899021E+03 -0.26039806766E+04  0.29757839675E+04  0.00000000000E+00 0. -1.
<mgrwt>
<rscale>  0 0.47538148E+04</rscale>
<asrwt>0</asrwt>
<pdfrwt beam="1">  1        2 0.47831285E+00 0.47538148E+04</pdfrwt>
<pdfrwt beam="2">  1       -2 0.27956691E+00 0.47538148E+04</pdfrwt>
<totfact> 0.46673052E-02</totfact>
</mgrwt>
</event>
<event>
 6    1  0.1585031E-006  0.1281795E+04  0.7818608E-02  0.9044128E-01
          2   -1    0    0  501    0  0.00000000000E+00  0.00000000000E+00  0.23451084368E+04  0.23451084368E+04  0.00000000000E+00 0. -1.
         -2   -1    0    0    0  501 -0.00000000000E+00 -0.00000000000E+00 -0.17515169854E+03  0.17515169854E+03  0.00000000000E+00 0.  1.
         23    2    1    2    0    0 -0.17058093247E+03 -0.60749365708E+03  0.12713524699E+04  0.14222455502E+04  0.91098324031E+02 0.  0.
         13    1    3    3    0    0 -0.80364907725E+02 -0.14028932175E+03  0.32712570719E+03  0.36489839750E+03  0.00000000000E+00 0.  1.
        -13    1    3    3    0    0 -0.90216024750E+02 -0.46720433533E+03  0.94422676266E+03  0.10573471527E+04  0.00000000000E+00 0. -1.
         22    1    1    2    0    0  0.17058093247E+03  0.60749365708E+03  0.89860426840E+03  0.10980145851E+04  0.00000000000E+00 0.  1.
<mgrwt>
<rscale>  0 0.12817952E+04</rscale>
<asrwt>0</asrwt>
<pdfrwt beam="1">  1        2 0.36078589E+00 0.12817952E+04</pdfrwt>
<pdfrwt beam="2">  1       -2 0.26946417E-01 0.12817952E+04</pdfrwt>
<totfact> 0.52650276E+01</totfact>
</mgrwt>
</event>
<event>
 6    1  0.1585031E-006  0.2615355E+04  0.7818608E-02  0.8363004E-01
         -2   -1    0    0    0  501 -0.00000000000E+00  0.00000000000E+00  0.74828646817E+03  0.74828646817E+03  0.00000000000E+00 0.  1.
          2   -1    0    0  501    0  0.00000000000E+00 -0.00000000000E+00 -0.22852491337E+04  0.22852491337E+04  0.00000000000E+00 0. -1.
         23    2    1    2    0    0 -0.26263142013E+03 -0.11362214978E+04 -0.87304556359E+02  0.11730294373E+04  0.91659262237E+02 0.  0.
         13    1    3    3    0    0 -0.18686229432E+03 -0.76600213273E+03 -0.10088132428E+03  0.79489233609E+03  0.00000000000E+00 0.  1.
        -13    1    3    3    0    0 -0.75769125805E+02 -0.37021936507E+03  0.13576767922E+02  0.37813710123E+03  0.00000000000E+00 0. -1.
         22    1    1    2    0    0  0.26263142013E+03  0.11362214978E+04 -0.14496581092E+04  0.18605061646E+04  0.00000000000E+00 0. -1.
<mgrwt>
<rscale>  0 0.26153554E+04</rscale>
<asrwt>0</asrwt>
<pdfrwt beam="1">  1        2 0.35157678E+00 0.26153554E+04</pdfrwt>
<pdfrwt beam="2">  1       -2 0.11512100E+00 0.26153554E+04</pdfrwt>
<totfact> 0.24010768E+00</totfact>
</mgrwt>
</event>
<event>
 6    1  0.1585031E-006  0.8658091E+03  0.7818608E-02  0.9469361E-01
         -2   -1    0    0    0  501 -0.00000000000E+00  0.00000000000E+00  0.16374581946E+04  0.16374581946E+04  0.00000000000E+00 0.  1.
          2   -1    0    0  501    0  0.00000000000E+00 -0.00000000000E+00 -0.11444954390E+03  0.11444954390E+03  0.00000000000E+00 0. -1.
         23    2    1    2    0    0  0.12731554960E+03 -0.32633769412E+03  0.12688036823E+04  0.13190963411E+04  0.86295034729E+02 0.  0.
         11    1    3    3    0    0  0.12275162334E+03 -0.20568027215E+03  0.81029661344E+03  0.84495735818E+03  0.00000000000E+00 0.  1.
        -11    1    3    3    0    0  0.45639262592E+01 -0.12065742197E+03  0.45850706890E+03  0.47413898293E+03  0.00000000000E+00 0. -1.
         22    1    1    2    0    0 -0.12731554960E+03  0.32633769412E+03  0.25420496835E+03  0.43281139739E+03  0.00000000000E+00 0. -1.
<mgrwt>
<rscale>  0 0.86580909E+03</rscale>
<asrwt>0</asrwt>
<pdfrwt beam="1">  1        2 0.17607623E-01 0.86580909E+03</pdfrwt>
<pdfrwt beam="2">  1       -2 0.25191663E+00 0.86580909E+03</pdfrwt>
<totfact> 0.21046617E+01</totfact>
</mgrwt>
</event>
<event>
 6    1  0.1585031E-006  0.2493539E+04  0.7818608E-02  0.8405291E-01
         -2   -1    0    0    0  501 -0.00000000000E+00  0.00000000000E+00  0.22776897857E+04  0.22776897857E+04  0.00000000000E+00 0. -1.
          2   -1    0    0  501    0  0.00000000000E+00 -0.00000000000E+00 -0.68246091036E+03  0.68246091036E+03  0.00000000000E+00 0.  1.
         23    2    1    2    0    0 -0.44485935048E+03  0.10097643902E+04  0.11414367536E+03  0.11132242398E+04  0.93356649405E+02 0.  0.
         11    1    3    3    0    0 -0.44920410802E+02  0.15936015127E+03 -0.68552994611E+01  0.16571208843E+03  0.00000000000E+00 0. -1.
        -11    1    3    3    0    0 -0.39993893968E+03  0.85040423891E+03  0.12099897482E+03  0.94751215133E+03  0.00000000000E+00 0.  1.
         22    1    1    2    0    0  0.44485935048E+03 -0.10097643902E+04  0.14810852000E+04  0.18469264563E+04  0.00000000000E+00 0. -1.
<mgrwt>
<rscale>  0 0.24935390E+04</rscale>
<asrwt>0</asrwt>
<pdfrwt beam="1">  1        2 0.10499399E+00 0.24935390E+04</pdfrwt>
<pdfrwt beam="2">  1       -2 0.35041381E+00 0.24935390E+04</pdfrwt>
<totfact> 0.58415703E-01</totfact>
</mgrwt>
</event>
<event>
 6    1  0.1585031E-006  0.3263711E+04  0.7818608E-02  0.8172191E-01
         -2   -1    0    0    0  501 -0.00000000000E+00  0.00000000000E+00  0.16440914818E+04  0.16440914818E+04  0.00000000000E+00 0.  1.
          2   -1    0    0  501    0  0.00000000000E+00 -0.00000000000E+00 -0.16197102984E+04  0.16197102984E+04  0.00000000000E+00 0. -1.
         23    2    1    2    0    0  0.14171100132E+04  0.80483609828E+03 -0.39191058849E+02  0.16328501057E+04  0.93282335341E+02 0.  0.
         11    1    3    3    0    0  0.10239671316E+03  0.52519848520E+02  0.20677565131E+02  0.11692297916E+03  0.00000000000E+00 0. -1.
        -11    1    3    3    0    0  0.13147133000E+04  0.75231624976E+03 -0.59868623981E+02  0.15159271266E+04  0.00000000000E+00 0.  1.
         22    1    1    2    0    0 -0.14171100132E+04 -0.80483609828E+03  0.63572242228E+02  0.16309516745E+04  0.00000000000E+00 0.  1.
<mgrwt>
<rscale>  0 0.32637107E+04</rscale>
<asrwt>0</asrwt>
<pdfrwt beam="1">  1        2 0.24918620E+00 0.32637107E+04</pdfrwt>
<pdfrwt beam="2">  1       -2 0.25293715E+00 0.32637107E+04</pdfrwt>
<totfact> 0.56143451E-01</totfact>
</mgrwt>
</event>
<event>
 6    1  0.1585031E-006  0.3002031E+04  0.7818608E-02  0.8243151E-01
          1   -1    0    0  501    0  0.00000000000E+00  0.00000000000E+00  0.23718922093E+04  0.23718922093E+04  0.00000000000E+00 0. -1.
         -1   -1    0    0    0  501 -0.00000000000E+00 -0.00000000000E+00 -0.94989426786E+03  0.94989426786E+03  0.00000000000E+00 0.  1.
         23    2    1    2    0    0 -0.66170956278E+03 -0.17595655608E+03  0.21878059454E+04  0.22945172067E+04  0.97437682532E+02 0.  0.
         13    1    3    3    0    0 -0.46984983663E+03 -0.16454570037E+03  0.16456223011E+04  0.17192751131E+04  0.00000000000E+00 0. -1.
        -13    1    3    3    0    0 -0.19185972615E+03 -0.11410855714E+02  0.54218364429E+03  0.57524209363E+03  0.00000000000E+00 0.  1.
         22    1    1    2    0    0  0.66170956278E+03  0.17595655608E+03 -0.76580800396E+03  0.10272692705E+04  0.00000000000E+00 0.  1.
<mgrwt>
<rscale>  0 0.30020305E+04</rscale>
<asrwt>0</asrwt>
<pdfrwt beam="1">  1        1 0.36490649E+00 0.30020305E+04</pdfrwt>
<pdfrwt beam="2">  1       -1 0.14613758E+00 0.30020305E+04</pdfrwt>
<totfact> 0.52878059E-01</totfact>
</mgrwt>
</event>
<event>
 6    1  0.1585031E-006  0.2495996E+04  0.7818608E-02  0.8404413E-01
          2   -1    0    0  501    0  0.00000000000E+00  0.00000000000E+00  0.13118850068E+04  0.13118850068E+04  0.00000000000E+00 0. -1.
         -2   -1    0    0    0  501 -0.00000000000E+00 -0.00000000000E+00 -0.11872218335E+04  0.11872218335E+04  0.00000000000E+00 0.  1.
         23    2    1    2    0    0  0.71365806959E+03 -0.53428077308E+03  0.93448594550E+03  0.12947079417E+04  0.90779331664E+02 0.  0.
         11    1    3    3    0    0  0.34715431889E+03 -0.26851255775E+03  0.52487160172E+03  0.68418222214E+03  0.00000000000E+00 0. -1.
        -11    1    3    3    0    0  0.36650375070E+03 -0.26576821533E+03  0.40961434378E+03  0.61052571951E+03  0.00000000000E+00 0.  1.
         22    1    1    2    0    0 -0.71365806959E+03  0.53428077308E+03 -0.80982277219E+03  0.12043988987E+04  0.00000000000E+00 0.  1.
<mgrwt>
<rscale>  0 0.24959956E+04</rscale>
<asrwt>0</asrwt>
<pdfrwt beam="1">  1        2 0.20182846E+00 0.24959956E+04</pdfrwt>
<pdfrwt beam="2">  1       -2 0.18264951E+00 0.24959956E+04</pdfrwt>
<totfact> 0.25239083E+00</totfact>
</mgrwt>
</event>
<event>
 6    1  0.1585031E-006  0.2232414E+04  0.7818608E-02  0.8505057E-01
         -1   -1    0    0    0  501 -0.00000000000E+00  0.00000000000E+00  0.10586696269E+04  0.10586696269E+04  0.00000000000E+00 0.  1.
          1   -1    0    0  501    0  0.00000000000E+00 -0.00000000000E+00 -0.11768710783E+04  0.11768710783E+04  0.00000000000E+00 0. -1.
         23    2    1    2    0    0  0.45073287549E+03  0.65452316520E+03 -0.84145798081E+03  0.11609893076E+04  0.91016152433E+02 0.  0.
         13    1    3    3    0    0  0.20015757696E+03  0.22651902821E+03 -0.35536455174E+03  0.46653819821E+03  0.00000000000E+00 0. -1.
        -13    1    3    3    0    0  0.25057529853E+03  0.42800413698E+03 -0.48609342907E+03  0.69445110936E+03  0.00000000000E+00 0.  1.
         22    1    1    2    0    0 -0.45073287549E+03 -0.65452316520E+03  0.72325652939E+03  0.10745513976E+04  0.00000000000E+00 0.  1.
<mgrwt>
<rscale>  0 0.22324136E+04</rscale>
<asrwt>0</asrwt>
<pdfrwt beam="1">  1        1 0.18105709E+00 0.22324136E+04</pdfrwt>
<pdfrwt beam="2">  1       -1 0.16287225E+00 0.22324136E+04</pdfrwt>
<totfact> 0.28087730E+00</totfact>
</mgrwt>
</event>
<event>
 6    1  0.1585031E-006  0.3288548E+04  0.7818608E-02  0.8165815E-01
         -1   -1    0    0    0  501 -0.00000000000E+00  0.00000000000E+00  0.12182266572E+04  0.12182266572E+04  0.00000000000E+00 0.  1.
          1   -1    0    0  501    0  0.00000000000E+00 -0.00000000000E+00 -0.22193220483E+04  0.22193220483E+04  0.00000000000E+00 0. -1.
         23    2    1    2    0    0 -0.15345319024E+04 -0.52638453223E+03 -0.77274173274E+03  0.17992525697E+04  0.91165721945E+02 0.  0.
         11    1    3    3    0    0 -0.12995699163E+04 -0.47823486613E+03 -0.64743977880E+03  0.15286493456E+04  0.00000000000E+00 0. -1.
        -11    1    3    3    0    0 -0.23496198608E+03 -0.48149666094E+02 -0.12530195394E+03  0.27060322413E+03  0.00000000000E+00 0.  1.
         22    1    1    2    0    0  0.15345319024E+04  0.52638453223E+03 -0.22835365834E+03  0.16382961358E+04  0.00000000000E+00 0.  1.
<mgrwt>
<rscale>  0 0.32885482E+04</rscale>
<asrwt>0</asrwt>
<pdfrwt beam="1">  1        1 0.34143416E+00 0.32885482E+04</pdfrwt>
<pdfrwt beam="2">  1       -1 0.18741949E+00 0.32885482E+04</pdfrwt>
<totfact> 0.32334712E-01</totfact>
</mgrwt>
</event>
<event>
 6    1  0.1585031E-006  0.1316613E+04  0.7818608E-02  0.9016493E-01
         -1   -1    0    0    0  501 -0.00000000000E+00  0.00000000000E+00  0.41396294127E+03  0.41396294127E+03  0.00000000000E+00 0.  1.
          1   -1    0    0  501    0  0.00000000000E+00 -0.00000000000E+00 -0.10468757251E+04  0.10468757251E+04  0.00000000000E+00 0. -1.
         23    2    1    2    0    0 -0.14454860835E+03 -0.56259792542E+02 -0.10243128140E+04  0.10398238827E+04  0.89204829712E+02 0.  0.
         13    1    3    3    0    0 -0.14642894969E+03 -0.26636224184E+02 -0.82590624830E+03  0.83920918532E+03  0.00000000000E+00 0. -1.
        -13    1    3    3    0    0  0.18803413345E+01 -0.29623568358E+02 -0.19840656572E+03  0.20061469738E+03  0.00000000000E+00 0.  1.
         22    1    1    2    0    0  0.14454860835E+03  0.56259792542E+02  0.39140003019E+03  0.42101478367E+03  0.00000000000E+00 0.  1.
<mgrwt>
<rscale>  0 0.13166135E+04</rscale>
<asrwt>0</asrwt>
<pdfrwt beam="1">  1        1 0.16105780E+00 0.13166135E+04</pdfrwt>
<pdfrwt beam="2">  1       -1 0.63686607E-01 0.13166135E+04</pdfrwt>
<totfact> 0.34147559E+01</totfact>
</mgrwt>
</event>
<event>
 6    1  0.1585031E-006  0.5946911E+03  0.7818608E-02  0.9916482E-01
         -1   -1    0    0    0  501 -0.00000000000E+00  0.00000000000E+00  0.29832856382E+03  0.29832856382E+03  0.00000000000E+00 0.  1.
          1   -1    0    0  501    0  0.00000000000E+00 -0.00000000000E+00 -0.29636578196E+03  0.29636578196E+03  0.00000000000E+00 0. -1.
         23    2    1    2    0    0  0.20151906039E+03 -0.63167321338E+02 -0.19744629804E+03  0.30423948985E+03  0.94744838325E+02 0.  0.
         11    1    3    3    0    0  0.13335802719E+03 -0.16051090226E+02 -0.17061325963E+03  0.21714254598E+03  0.00000000000E+00 0. -1.
        -11    1    3    3    0    0  0.68161033204E+02 -0.47116231112E+02 -0.26833038412E+02  0.87096943873E+02  0.00000000000E+00 0.  1.
         22    1    1    2    0    0 -0.20151906039E+03  0.63167321338E+02  0.19940907990E+03  0.29045485593E+03  0.00000000000E+00 0.  1.
<mgrwt>
<rscale>  0 0.59469111E+03</rscale>
<asrwt>0</asrwt>
<pdfrwt beam="1">  1        1 0.45594736E-01 0.59469111E+03</pdfrwt>
<pdfrwt beam="2">  1       -1 0.45896702E-01 0.59469111E+03</pdfrwt>
<totfact> 0.42568801E+02</totfact>
</mgrwt>
</event>
<event>
 6    1  0.1585031E-006  0.1820931E+04  0.7818608E-02  0.8695247E-01
          1   -1    0    0  501    0  0.00000000000E+00  0.00000000000E+00  0.14518843073E+04  0.14518843073E+04  0.00000000000E+00 0. -1.
         -1   -1    0    0    0  501 -0.00000000000E+00 -0.00000000000E+00 -0.57094609171E+03  0.57094609171E+03  0.00000000000E+00 0.  1.
         23    2    1    2    0    0 -0.18633581486E+03 -0.34970520655E+03  0.13492489180E+04  0.14093732437E+04  0.94050677297E+02 0.  0.
         11    1    3    3    0    0 -0.13069050794E+03 -0.16519474420E+03  0.60682551066E+03  0.64234454366E+03  0.00000000000E+00 0.  1.
        -11    1    3    3    0    0 -0.55645306920E+02 -0.18451046235E+03  0.74242340738E+03  0.76702870007E+03  0.00000000000E+00 0. -1.
         22    1    1    2    0    0  0.18633581486E+03  0.34970520655E+03 -0.46831070243E+03  0.61345715531E+03  0.00000000000E+00 0.  1.
<mgrwt>
<rscale>  0 0.18209313E+04</rscale>
<asrwt>0</asrwt>
<pdfrwt beam="1">  1        1 0.22336681E+00 0.18209313E+04</pdfrwt>
<pdfrwt beam="2">  1       -1 0.87837861E-01 0.18209313E+04</pdfrwt>
<totfact> 0.84816647E+00</totfact>
</mgrwt>
</event>
<event>
 6    1  0.1585031E-006  0.2619609E+04  0.7818608E-02  0.8361571E-01
          2   -1    0    0  501    0  0.00000000000E+00  0.00000000000E+00  0.22999811604E+04  0.22999811604E+04  0.00000000000E+00 0. -1.
         -2   -1    0    0    0  501 -0.00000000000E+00 -0.00000000000E+00 -0.74591410168E+03  0.74591410168E+03  0.00000000000E+00 0.  1.
         23    2    1    2    0    0  0.11555916627E+04 -0.55751080799E+03  0.10750972060E+04  0.16763615780E+04  0.90242705437E+02 0.  0.
         11    1    3    3    0    0  0.12376898065E+03 -0.91161705885E+02  0.11944609454E+03  0.19467045665E+03  0.00000000000E+00 0. -1.
        -11    1    3    3    0    0  0.10318226821E+04 -0.46634910210E+03  0.95565111147E+03  0.14816911214E+04  0.00000000000E+00 0.  1.
         22    1    1    2    0    0 -0.11555916627E+04  0.55751080799E+03  0.47896985269E+03  0.13695336841E+04  0.00000000000E+00 0. -1.
<mgrwt>
<rscale>  0 0.26196094E+04</rscale>
<asrwt>0</asrwt>
<pdfrwt beam="1">  1        2 0.35384325E+00 0.26196094E+04</pdfrwt>
<pdfrwt beam="2">  1       -2 0.11475602E+00 0.26196094E+04</pdfrwt>
<totfact> 0.23728033E+00</totfact>
</mgrwt>
</event>
<event>
 6    1  0.1585031E-006  0.1805778E+04  0.7818608E-02  0.8703233E-01
          1   -1    0    0  501    0  0.00000000000E+00  0.00000000000E+00  0.18832202265E+04  0.18832202265E+04  0.00000000000E+00 0. -1.
         -1   -1    0    0    0  501 -0.00000000000E+00 -0.00000000000E+00 -0.43288008250E+03  0.43288008250E+03  0.00000000000E+00 0.  1.
         23    2    1    2    0    0 -0.29835734403E+03 -0.20932300885E+03 -0.32948459606E+03  0.49934239113E+03  0.89159956066E+02 0.  0.
         13    1    3    3    0    0 -0.85674008276E+02 -0.64970571383E+02 -0.46801855208E+02  0.11726732064E+03  0.00000000000E+00 0. -1.
        -13    1    3    3    0    0 -0.21268333576E+03 -0.14435243747E+03 -0.28268274085E+03  0.38207507049E+03  0.00000000000E+00 0.  1.
         22    1    1    2    0    0  0.29835734403E+03  0.20932300885E+03  0.17798247400E+04  0.18167579178E+04  0.00000000000E+00 0. -1.
<mgrwt>
<rscale>  0 0.18057780E+04</rscale>
<asrwt>0</asrwt>
<pdfrwt beam="1">  1        1 0.28972618E+00 0.18057780E+04</pdfrwt>
<pdfrwt beam="2">  1       -1 0.66596937E-01 0.18057780E+04</pdfrwt>
<totfact> 0.77065846E+00</totfact>
</mgrwt>
</event>
<event>
 6    1  0.1585031E-006  0.3344213E+04  0.7818608E-02  0.8151736E-01
         -2   -1    0    0    0  501 -0.00000000000E+00  0.00000000000E+00  0.83645907875E+03  0.83645907875E+03  0.00000000000E+00 0.  1.
          2   -1    0    0  501    0  0.00000000000E+00 -0.00000000000E+00 -0.33425905577E+04  0.33425905577E+04  0.00000000000E+00 0. -1.
         23    2    1    2    0    0 -0.13206489878E+04 -0.44821690975E+03 -0.24038806244E+04  0.27806693647E+04  0.92021259505E+02 0.  0.
         13    1    3    3    0    0 -0.69278451650E+03 -0.21638815876E+03 -0.11660570949E+04  0.13734858463E+04  0.00000000000E+00 0. -1.
        -13    1    3    3    0    0 -0.62786447129E+03 -0.23182875099E+03 -0.12378235295E+04  0.14071835184E+04  0.00000000000E+00 0.  1.
         22    1    1    2    0    0  0.13206489878E+04  0.44821690975E+03 -0.10225085453E+03  0.13983802717E+04  0.00000000000E+00 0.  1.
<mgrwt>
<rscale>  0 0.33442130E+04</rscale>
<asrwt>0</asrwt>
<pdfrwt beam="1">  1        2 0.51424469E+00 0.33442130E+04</pdfrwt>
<pdfrwt beam="2">  1       -2 0.12868601E+00 0.33442130E+04</pdfrwt>
<totfact> 0.38628584E-01</totfact>
</mgrwt>
</event>
<event>
 6    1  0.1585031E-006  0.4375717E+04  0.7818608E-02  0.7932764E-01
          2   -1    0    0  501    0  0.00000000000E+00  0.00000000000E+00  0.26680275501E+04  0.26680275501E+04  0.00000000000E+00 0. -1.
         -2   -1    0    0    0  501 -0.00000000000E+00 -0.00000000000E+00 -0.17941060910E+04  0.17941060910E+04  0.00000000000E+00 0.  1.
         23    2    1    2    0    0 -0.20779499827E+03 -0.98447535489E+03  0.24172007345E+04  0.26198303524E+04  0.91001090311E+02 0.  0.
         11    1    3    3    0    0 -0.11930369596E+03 -0.40289897464E+03  0.93057450882E+03  0.10210435212E+04  0.00000000000E+00 0.  1.
        -11    1    3    3    0    0 -0.88491302315E+02 -0.58157638024E+03  0.14866262257E+04  0.15987868312E+04  0.00000000000E+00 0. -1.
         22    1    1    2    0    0  0.20779499827E+03  0.98447535489E+03 -0.15432792755E+04  0.18423032888E+04  0.00000000000E+00 0.  1.
<mgrwt>
<rscale>  0 0.43757168E+04</rscale>
<asrwt>0</asrwt>
<pdfrwt beam="1">  1        2 0.41046578E+00 0.43757168E+04</pdfrwt>
<pdfrwt beam="2">  1       -2 0.27601632E+00 0.43757168E+04</pdfrwt>
<totfact> 0.94557611E-02</totfact>
</mgrwt>
</event>
<event>
 6    1  0.1585031E-006  0.2095309E+04  0.7818608E-02  0.8563313E-01
          1   -1    0    0  501    0  0.00000000000E+00  0.00000000000E+00  0.27720346477E+04  0.27720346477E+04  0.00000000000E+00 0. -1.
         -1   -1    0    0    0  501 -0.00000000000E+00 -0.00000000000E+00 -0.39594740714E+03  0.39594740714E+03  0.00000000000E+00 0.  1.
         23    2    1    2    0    0  0.40341467405E+03 -0.53980374384E+03 -0.18844124789E+02  0.68004561556E+03  0.89305414786E+02 0.  0.
         11    1    3    3    0    0  0.18686445321E+03 -0.31363813569E+03 -0.33228193418E+02  0.36659421281E+03  0.00000000000E+00 0. -1.
        -11    1    3    3    0    0  0.21655022084E+03 -0.22616560815E+03  0.14384068628E+02  0.31345140275E+03  0.00000000000E+00 0.  1.
         22    1    1    2    0    0 -0.40341467405E+03  0.53980374384E+03  0.23949313654E+04  0.24879364393E+04  0.00000000000E+00 0. -1.
<mgrwt>
<rscale>  0 0.20953090E+04</rscale>
<asrwt>0</asrwt>
<pdfrwt beam="1">  1        1 0.42646686E+00 0.20953090E+04</pdfrwt>
<pdfrwt beam="2">  1       -1 0.60914988E-01 0.20953090E+04</pdfrwt>
<totfact> 0.21957477E+00</totfact>
</mgrwt>
</event>
<event>
 6    1  0.1585031E-006  0.2722353E+04  0.7818608E-02  0.8327789E-01
         -1   -1    0    0    0  501 -0.00000000000E+00  0.00000000000E+00  0.73128874372E+03  0.73128874372E+03  0.00000000000E+00 0.  1.
          1   -1    0    0  501    0  0.00000000000E+00 -0.00000000000E+00 -0.25336104544E+04  0.25336104544E+04  0.00000000000E+00 0. -1.
         23    2    1    2    0    0  0.21620662173E+03  0.42786242768E+03 -0.24279684064E+04  0.24767080105E+04  0.96127135384E+02 0.  0.
         11    1    3    3    0    0  0.73381174344E+02  0.11386406826E+03 -0.91076638197E+03  0.92078511354E+03  0.00000000000E+00 0. -1.
        -11    1    3    3    0    0  0.14282544738E+03  0.31399835941E+03 -0.15172020245E+04  0.15559228969E+04  0.00000000000E+00 0.  1.
         22    1    1    2    0    0 -0.21620662173E+03 -0.42786242768E+03  0.62564669578E+03  0.78819118762E+03  0.00000000000E+00 0.  1.
<mgrwt>
<rscale>  0 0.27223525E+04</rscale>
<asrwt>0</asrwt>
<pdfrwt beam="1">  1        1 0.38978623E+00 0.27223525E+04</pdfrwt>
<pdfrwt beam="2">  1       -1 0.11250596E+00 0.27223525E+04</pdfrwt>
<totfact> 0.80896434E-01</totfact>
</mgrwt>
</event>
<event>
 6    1  0.1585031E-006  0.2916203E+04  0.7818608E-02  0.8268073E-01
          2   -1    0    0  501    0  0.00000000000E+00  0.00000000000E+00  0.14726927301E+04  0.14726927301E+04  0.00000000000E+00 0. -1.
         -2   -1    0    0    0  501 -0.00000000000E+00 -0.00000000000E+00 -0.14436547085E+04  0.14436547085E+04  0.00000000000E+00 0.  1.
         23    2    1    2    0    0  0.20870381810E+03  0.13737132375E+04 -0.42297864599E+03  0.14551956976E+04  0.89656235766E+02 0.  0.
         11    1    3    3    0    0  0.37080203010E+01  0.25273816478E+03 -0.72771601524E+02  0.26303238458E+03  0.00000000000E+00 0.  1.
        -11    1    3    3    0    0  0.20499579780E+03  0.11209750728E+04 -0.35020704447E+03  0.11921633130E+04  0.00000000000E+00 0. -1.
         22    1    1    2    0    0 -0.20870381810E+03 -0.13737132375E+04  0.45201666756E+03  0.14611517411E+04  0.00000000000E+00 0.  1.
<mgrwt>
<rscale>  0 0.29162029E+04</rscale>
<asrwt>0</asrwt>
<pdfrwt beam="1">  1        2 0.22656811E+00 0.29162029E+04</pdfrwt>
<pdfrwt beam="2">  1       -2 0.22210072E+00 0.29162029E+04</pdfrwt>
<totfact> 0.10868330E+00</totfact>
</mgrwt>
</event>
<event>
 6    1  0.1585031E-006  0.2375734E+04  0.7818608E-02  0.8448645E-01
          1   -1    0    0  501    0  0.00000000000E+00  0.00000000000E+00  0.14158522452E+04  0.14158522452E+04  0.00000000000E+00 0. -1.
         -1   -1    0    0    0  501 -0.00000000000E+00 -0.00000000000E+00 -0.99659275602E+03  0.99659275602E+03  0.00000000000E+00 0.  1.
         23    2    1    2    0    0 -0.64023521931E+03  0.33376257911E+03  0.11655083884E+04  0.13740876375E+04  0.91697529443E+02 0.  0.
         11    1    3    3    0    0 -0.91233164793E+02  0.85444729183E+02  0.21447778233E+03  0.24824385434E+03  0.00000000000E+00 0.  1.
        -11    1    3    3    0    0 -0.54900205451E+03  0.24831784992E+03  0.95103060603E+03  0.11258437831E+04  0.00000000000E+00 0. -1.
         22    1    1    2    0    0  0.64023521931E+03 -0.33376257911E+03 -0.74624889920E+03  0.10383573637E+04  0.00000000000E+00 0.  1.
<mgrwt>
<rscale>  0 0.23757341E+04</rscale>
<asrwt>0</asrwt>
<pdfrwt beam="1">  1        1 0.21782342E+00 0.23757341E+04</pdfrwt>
<pdfrwt beam="2">  1       -1 0.15332196E+00 0.23757341E+04</pdfrwt>
<totfact> 0.22109481E+00</totfact>
</mgrwt>
</event>
<event>
 6    1  0.1585031E-006  0.1658627E+04  0.7818608E-02  0.8785319E-01
          1   -1    0    0  501    0  0.00000000000E+00  0.00000000000E+00  0.13455242994E+04  0.13455242994E+04  0.00000000000E+00 0. -1.
         -1   -1    0    0    0  501 -0.00000000000E+00 -0.00000000000E+00 -0.51114742266E+03  0.51114742266E+03  0.00000000000E+00 0.  1.
         23    2    1    2    0    0  0.23722474856E+02  0.72748660574E+03  0.85714114938E+03  0.11284425483E+04  0.94298025361E+02 0.  0.
         11    1    3    3    0    0 -0.14110166201E+02  0.49179211492E+03  0.62559323923E+03  0.79588031893E+03  0.00000000000E+00 0. -1.
        -11    1    3    3    0    0  0.37832641057E+02  0.23569449082E+03  0.23154791015E+03  0.33256222941E+03  0.00000000000E+00 0.  1.
         22    1    1    2    0    0 -0.23722474856E+02 -0.72748660574E+03 -0.22764272651E+02  0.72822917372E+03  0.00000000000E+00 0. -1.
<mgrwt>
<rscale>  0 0.16586275E+04</rscale>
<asrwt>0</asrwt>
<pdfrwt beam="1">  1        1 0.20700374E+00 0.16586275E+04</pdfrwt>
<pdfrwt beam="2">  1       -1 0.78638065E-01 0.16586275E+04</pdfrwt>
<totfact> 0.12969630E+01</totfact>
</mgrwt>
</event>
<event>
 6    1  0.1585031E-006  0.2449752E+04  0.7818608E-02  0.8421108E-01
         -2   -1    0    0    0  501 -0.00000000000E+00  0.00000000000E+00  0.15820547490E+04  0.15820547490E+04  0.00000000000E+00 0.  1.
          2   -1    0    0  501    0  0.00000000000E+00 -0.00000000000E+00 -0.94833746565E+03  0.94833746565E+03  0.00000000000E+00 0. -1.
         23    2    1    2    0    0  0.61450680034E+03 -0.77566856452E+03 -0.42620215809E+03  0.10803199571E+04  0.78502233079E+02 0.  0.
         11    1    3    3    0    0  0.55051557910E+03 -0.68631454577E+03 -0.40421324454E+03  0.96823726721E+03  0.00000000000E+00 0. -1.
        -11    1    3    3    0    0  0.63991221246E+02 -0.89354018749E+02 -0.21988913552E+02  0.11208268993E+03  0.00000000000E+00 0.  1.
         22    1    1    2    0    0 -0.61450680034E+03  0.77566856452E+03  0.10599194414E+04  0.14500722575E+04  0.00000000000E+00 0.  1.
<mgrwt>
<rscale>  0 0.24497525E+04</rscale>
<asrwt>0</asrwt>
<pdfrwt beam="1">  1        2 0.14589807E+00 0.24497525E+04</pdfrwt>
<pdfrwt beam="2">  1       -2 0.24339304E+00 0.24497525E+04</pdfrwt>
<totfact> 0.17202068E+00</totfact>
</mgrwt>
</event>
<event>
 6    1  0.1585031E-006  0.1637272E+04  0.7818608E-02  0.8797972E-01
         -1   -1    0    0    0  501 -0.00000000000E+00  0.00000000000E+00  0.30703556620E+03  0.30703556620E+03  0.00000000000E+00 0.  1.
          1   -1    0    0  501    0  0.00000000000E+00 -0.00000000000E+00 -0.21826933682E+04  0.21826933682E+04  0.00000000000E+00 0. -1.
         23    2    1    2    0    0 -0.60754590363E+03 -0.33404603122E+03 -0.15945056329E+04  0.17415676429E+04  0.99553329313E+02 0.  0.
         13    1    3    3    0    0 -0.40987135661E+03 -0.19092393353E+03 -0.94145504075E+03  0.10444060854E+04  0.00000000000E+00 0. -1.
        -13    1    3    3    0    0 -0.19767454702E+03 -0.14312209769E+03 -0.65305059213E+03  0.69716155751E+03  0.00000000000E+00 0.  1.
         22    1    1    2    0    0  0.60754590363E+03  0.33404603122E+03 -0.28115216916E+03  0.74816129158E+03  0.00000000000E+00 0.  1.
<mgrwt>
<rscale>  0 0.16372715E+04</rscale>
<asrwt>0</asrwt>
<pdfrwt beam="1">  1        1 0.33579900E+00 0.16372715E+04</pdfrwt>
<pdfrwt beam="2">  1       -1 0.47236239E-01 0.16372715E+04</pdfrwt>
<totfact> 0.95815054E+00</totfact>
</mgrwt>
</event>
<event>
 6    1  0.1585031E-006  0.5277732E+03  0.7818608E-02  0.1006774E+00
         -2   -1    0    0    0  501 -0.00000000000E+00  0.00000000000E+00  0.38468646063E+02  0.38468646063E+02  0.00000000000E+00 0.  1.
          2   -1    0    0  501    0  0.00000000000E+00 -0.00000000000E+00 -0.18102053419E+04  0.18102053419E+04  0.00000000000E+00 0. -1.
         23    2    1    2    0    0 -0.13055842890E+03  0.81441433456E+01 -0.16831867523E+04  0.16907090459E+04  0.90926366931E+02 0.  0.
         11    1    3    3    0    0 -0.10419304939E+03  0.22714457472E+02 -0.80835060763E+03  0.81535442783E+03  0.00000000000E+00 0. -1.
        -11    1    3    3    0    0 -0.26365379508E+02 -0.14570314126E+02 -0.87483614466E+03  0.87535461802E+03  0.00000000000E+00 0.  1.
         22    1    1    2    0    0  0.13055842890E+03 -0.81441433456E+01 -0.88549943499E+02  0.15796494207E+03  0.00000000000E+00 0.  1.
<mgrwt>
<rscale>  0 0.52777324E+03</rscale>
<asrwt>0</asrwt>
<pdfrwt beam="1">  1        2 0.27849320E+00 0.52777324E+03</pdfrwt>
<pdfrwt beam="2">  1       -2 0.59182516E-02 0.52777324E+03</pdfrwt>
<totfact> 0.13909228E+03</totfact>
</mgrwt>
</event>
<event>
 6    1  0.1585031E-006  0.1245925E+04  0.7818608E-02  0.9073582E-01
         -2   -1    0    0    0  501 -0.00000000000E+00  0.00000000000E+00  0.18043650548E+03  0.18043650548E+03  0.00000000000E+00 0.  1.
          2   -1    0    0  501    0  0.00000000000E+00 -0.00000000000E+00 -0.21507963068E+04  0.21507963068E+04  0.00000000000E+00 0. -1.
         23    2    1    2    0    0 -0.88021242669E+02 -0.32650029512E+03 -0.18942462763E+02  0.35073292308E+03  0.91129493367E+02 0.  0.
         13    1    3    3    0    0 -0.52506643236E+02 -0.21674087989E+03 -0.55323777720E+02  0.22977005240E+03  0.00000000000E+00 0. -1.
        -13    1    3    3    0    0 -0.35514599433E+02 -0.10975941524E+03  0.36381314957E+02  0.12096287068E+03  0.00000000000E+00 0.  1.
         22    1    1    2    0    0  0.88021242669E+02  0.32650029512E+03 -0.19514173386E+04  0.19804998892E+04  0.00000000000E+00 0. -1.
<mgrwt>
<rscale>  0 0.12459248E+04</rscale>
<asrwt>0</asrwt>
<pdfrwt beam="1">  1        2 0.33089173E+00 0.12459248E+04</pdfrwt>
<pdfrwt beam="2">  1       -2 0.27759463E-01 0.12459248E+04</pdfrwt>
<totfact> 0.64261309E+01</totfact>
</mgrwt>
</event>
<event>
 6    1  0.1836875E-006  0.2149367E+04  0.7818608E-02  0.8539803E-01
         -2   -1    0    0    0  501 -0.00000000000E+00  0.00000000000E+00  0.57124013552E+03  0.57124013552E+03  0.00000000000E+00 0. -1.
          2   -1    0    0  501    0  0.00000000000E+00 -0.00000000000E+00 -0.20218192215E+04  0.20218192215E+04  0.00000000000E+00 0.  1.
         23    2    1    2    0    0 -0.32649737782E+03  0.16461935435E+03  0.49029567924E+03  0.61804165486E+03  0.88800701049E+02 0.  0.
         11    1    3    3    0    0 -0.19335509515E+03  0.10208640241E+03  0.21918236952E+03  0.30959447264E+03  0.00000000000E+00 0. -1.
        -11    1    3    3    0    0 -0.13314228266E+03  0.62532951938E+02  0.27111330972E+03  0.30844718222E+03  0.00000000000E+00 0.  1.
         22    1    1    2    0    0  0.32649737782E+03 -0.16461935435E+03 -0.19408747652E+04  0.19750177022E+04  0.00000000000E+00 0.  1.
<mgrwt>
<rscale>  0 0.21493667E+04</rscale>
<asrwt>0</asrwt>
<pdfrwt beam="1">  1        2 0.31104911E+00 0.21493667E+04</pdfrwt>
<pdfrwt beam="2">  1       -2 0.87883097E-01 0.21493667E+04</pdfrwt>
<totfact> 0.66563784E+00</totfact>
</mgrwt>
</event>
<event>
 6    1  0.1585031E-006  0.2098596E+04  0.7818608E-02  0.8561862E-01
         -2   -1    0    0    0  501 -0.00000000000E+00  0.00000000000E+00  0.75078285741E+03  0.75078285741E+03  0.00000000000E+00 0.  1.
          2   -1    0    0  501    0  0.00000000000E+00 -0.00000000000E+00 -0.14665040514E+04  0.14665040514E+04  0.00000000000E+00 0. -1.
         23    2    1    2    0    0  0.47874868500E+03 -0.89959989316E+03 -0.61357556695E+03  0.11931218829E+04  0.92653007982E+02 0.  0.
         13    1    3    3    0    0  0.71785203126E+02 -0.89503325484E+02 -0.46497440258E+02  0.12379811231E+03  0.00000000000E+00 0.  1.
        -13    1    3    3    0    0  0.40696348188E+03 -0.81009656767E+03 -0.56707812669E+03  0.10693237706E+04  0.00000000000E+00 0. -1.
         22    1    1    2    0    0 -0.47874868500E+03  0.89959989316E+03 -0.10214562701E+03  0.10241650259E+04  0.00000000000E+00 0.  1.
<mgrwt>
<rscale>  0 0.20985958E+04</rscale>
<asrwt>0</asrwt>
<pdfrwt beam="1">  1        2 0.22561601E+00 0.20985958E+04</pdfrwt>
<pdfrwt beam="2">  1       -2 0.11550506E+00 0.20985958E+04</pdfrwt>
<totfact> 0.71309042E+00</totfact>
</mgrwt>
</event>
<event>
 6    1  0.1585031E-006  0.6914658E+03  0.7818608E-02  0.9731939E-01
         -1   -1    0    0    0  501 -0.00000000000E+00  0.00000000000E+00  0.15951638211E+03  0.15951638211E+03  0.00000000000E+00 0.  1.
          1   -1    0    0  501    0  0.00000000000E+00 -0.00000000000E+00 -0.74933512227E+03  0.74933512227E+03  0.00000000000E+00 0. -1.
         23    2    1    2    0    0 -0.24225477888E+03  0.16416331287E+03 -0.72944341104E+02  0.31488507808E+03  0.90524937545E+02 0.  0.
         13    1    3    3    0    0 -0.16229628884E+03  0.81679847909E+02 -0.82633432808E+02  0.19959951689E+03  0.00000000000E+00 0. -1.
        -13    1    3    3    0    0 -0.79958490042E+02  0.82483464957E+02  0.96890917033E+01  0.11528556119E+03  0.00000000000E+00 0.  1.
         22    1    1    2    0    0  0.24225477888E+03 -0.16416331287E+03 -0.51687439905E+03  0.59396642630E+03  0.00000000000E+00 0. -1.
<mgrwt>
<rscale>  0 0.69146577E+03</rscale>
<asrwt>0</asrwt>
<pdfrwt beam="1">  1        1 0.11528233E+00 0.69146577E+03</pdfrwt>
<pdfrwt beam="2">  1       -1 0.24540981E-01 0.69146577E+03</pdfrwt>
<totfact> 0.35857230E+02</totfact>
</mgrwt>
</event>
<event>
 6    1  0.1585031E-006  0.2225191E+04  0.7818608E-02  0.8508016E-01
          2   -1    0    0  501    0  0.00000000000E+00  0.00000000000E+00  0.19068053464E+04  0.19068053464E+04  0.00000000000E+00 0. -1.
         -2   -1    0    0    0  501 -0.00000000000E+00 -0.00000000000E+00 -0.64918449898E+03  0.64918449898E+03  0.00000000000E+00 0.  1.
         23    2    1    2    0    0  0.59160183077E+03  0.78756840051E+03  0.12194923443E+04  0.15702360757E+04  0.90681001021E+02 0.  0.
         11    1    3    3    0    0  0.43773385004E+03  0.60712712457E+03  0.86676615607E+03  0.11452064609E+04  0.00000000000E+00 0. -1.
        -11    1    3    3    0    0  0.15386798073E+03  0.18044127594E+03  0.35272618823E+03  0.42502961476E+03  0.00000000000E+00 0.  1.
         22    1    1    2    0    0 -0.59160183077E+03 -0.78756840051E+03  0.38128503083E+02  0.98575376966E+03  0.00000000000E+00 0.  1.
<mgrwt>
<rscale>  0 0.22251908E+04</rscale>
<asrwt>0</asrwt>
<pdfrwt beam="1">  1        2 0.29335467E+00 0.22251908E+04</pdfrwt>
<pdfrwt beam="2">  1       -2 0.99874539E-01 0.22251908E+04</pdfrwt>
<totfact> 0.56884462E+00</totfact>
</mgrwt>
</event>
<event>
 6    1  0.1585031E-006  0.2010242E+04  0.7818608E-02  0.8601847E-01
         -2   -1    0    0    0  501 -0.00000000000E+00  0.00000000000E+00  0.51442375687E+03  0.51442375687E+03  0.00000000000E+00 0.  1.
          2   -1    0    0  501    0  0.00000000000E+00 -0.00000000000E+00 -0.19638831182E+04  0.19638831182E+04  0.00000000000E+00 0. -1.
         23    2    1    2    0    0  0.67063605854E+03  0.50087418617E+03 -0.14076386343E+04  0.16402277340E+04  0.90955051434E+02 0.  0.
         13    1    3    3    0    0  0.60164956343E+03  0.42512572060E+03 -0.12763017252E+04  0.14736553767E+04  0.00000000000E+00 0.  1.
        -13    1    3    3    0    0  0.68986495114E+02  0.75748465569E+02 -0.13133690906E+03  0.16657235733E+03  0.00000000000E+00 0. -1.
         22    1    1    2    0    0 -0.67063605854E+03 -0.50087418617E+03 -0.41820727032E+02  0.83807914101E+03  0.00000000000E+00 0. -1.
<mgrwt>
<rscale>  0 0.20102419E+04</rscale>
<asrwt>0</asrwt>
<pdfrwt beam="1">  1        2 0.30213586E+00 0.20102419E+04</pdfrwt>
<pdfrwt beam="2">  1       -2 0.79142117E-01 0.20102419E+04</pdfrwt>
<totfact> 0.91986233E+00</totfact>
</mgrwt>
</event>
<event>
 6    1  0.1724215E-006  0.3632557E+04  0.7818608E-02  0.8083074E-01
          1   -1    0    0  501    0  0.00000000000E+00  0.00000000000E+00  0.21030593287E+04  0.21030593287E+04  0.00000000000E+00 0. -1.
         -1   -1    0    0    0  501 -0.00000000000E+00 -0.00000000000E+00 -0.15686045153E+04  0.15686045153E+04  0.00000000000E+00 0.  1.
         23    2    1    2    0    0 -0.88637181131E+03 -0.88624746180E+03 -0.10596406919E+04  0.16438004287E+04  0.90287883651E+02 0.  0.
         13    1    3    3    0    0 -0.47812944814E+03 -0.50820614568E+03 -0.53767730872E+03  0.88089621636E+03  0.00000000000E+00 0. -1.
        -13    1    3    3    0    0 -0.40824236317E+03 -0.37804131612E+03 -0.52196338316E+03  0.76290421230E+03  0.00000000000E+00 0.  1.
         22    1    1    2    0    0  0.88637181131E+03  0.88624746180E+03  0.15940955053E+04  0.20278634154E+04  0.00000000000E+00 0. -1.
<mgrwt>
<rscale>  0 0.36325574E+04</rscale>
<asrwt>0</asrwt>
<pdfrwt beam="1">  1        1 0.32354759E+00 0.36325574E+04</pdfrwt>
<pdfrwt beam="2">  1       -1 0.24132377E+00 0.36325574E+04</pdfrwt>
<totfact> 0.16263286E-01</totfact>
</mgrwt>
</event>
<event>
 6    1  0.1585031E-006  0.1566638E+04  0.7818608E-02  0.8841310E-01
         -1   -1    0    0    0  501 -0.00000000000E+00  0.00000000000E+00  0.46900757871E+03  0.46900757871E+03  0.00000000000E+00 0.  1.
          1   -1    0    0  501    0  0.00000000000E+00 -0.00000000000E+00 -0.13082700727E+04  0.13082700727E+04  0.00000000000E+00 0. -1.
         23    2    1    2    0    0 -0.20148954325E+03  0.71971189508E+03 -0.16817686183E+03  0.77281800881E+03  0.10188704497E+03 0.  0.
         13    1    3    3    0    0 -0.11070079662E+03  0.22911645334E+03 -0.74854255774E+02  0.26523984461E+03  0.00000000000E+00 0.  1.
        -13    1    3    3    0    0 -0.90788746628E+02  0.49059544174E+03 -0.93322606060E+02  0.50757816420E+03  0.00000000000E+00 0. -1.
         22    1    1    2    0    0  0.20148954325E+03 -0.71971189508E+03 -0.67108563220E+03  0.10044596426E+04  0.00000000000E+00 0. -1.
<mgrwt>
<rscale>  0 0.15666379E+04</rscale>
<asrwt>0</asrwt>
<pdfrwt beam="1">  1        1 0.20127232E+00 0.15666379E+04</pdfrwt>
<pdfrwt beam="2">  1       -1 0.72155013E-01 0.15666379E+04</pdfrwt>
<totfact> 0.16638728E+01</totfact>
</mgrwt>
</event>
<event>
 6    1  0.1585031E-006  0.2908125E+04  0.7818608E-02  0.8270464E-01
          1   -1    0    0  501    0  0.00000000000E+00  0.00000000000E+00  0.16538920837E+04  0.16538920837E+04  0.00000000000E+00 0. -1.
         -1   -1    0    0    0  501 -0.00000000000E+00 -0.00000000000E+00 -0.12783769403E+04  0.12783769403E+04  0.00000000000E+00 0.  1.
         23    2    1    2    0    0  0.54266037596E+03  0.24165011744E+03 -0.11486560582E+04  0.12964288989E+04  0.91880831479E+02 0.  0.
         11    1    3    3    0    0  0.11447654949E+03  0.92448486217E+02 -0.30507303392E+03  0.33870512103E+03  0.00000000000E+00 0. -1.
        -11    1    3    3    0    0  0.42818382647E+03  0.14920163122E+03 -0.84358302424E+03  0.95772377792E+03  0.00000000000E+00 0.  1.
         22    1    1    2    0    0 -0.54266037596E+03 -0.24165011744E+03  0.15241712016E+04  0.16358401250E+04  0.00000000000E+00 0. -1.
<mgrwt>
<rscale>  0 0.29081248E+04</rscale>
<asrwt>0</asrwt>
<pdfrwt beam="1">  1        1 0.25444494E+00 0.29081248E+04</pdfrwt>
<pdfrwt beam="2">  1       -1 0.19667337E+00 0.29081248E+04</pdfrwt>
<totfact> 0.69768317E-01</totfact>
</mgrwt>
</event>
<event>
 6    1  0.1585031E-006  0.1579010E+04  0.7818608E-02  0.8833548E-01
          2   -1    0    0  501    0  0.00000000000E+00  0.00000000000E+00  0.29805719263E+04  0.29805719263E+04  0.00000000000E+00 0. -1.
         -2   -1    0    0    0  501 -0.00000000000E+00 -0.00000000000E+00 -0.20912700296E+03  0.20912700296E+03  0.00000000000E+00 0.  1.
         23    2    1    2    0    0 -0.66574873640E+02  0.78404172532E+03  0.14089487323E+04  0.16163110205E+04  0.90394379852E+02 0.  0.
         13    1    3    3    0    0 -0.35710180471E+02  0.11109220685E+03  0.24766568864E+03  0.27377908748E+03  0.00000000000E+00 0. -1.
        -13    1    3    3    0    0 -0.30864693169E+02  0.67294951847E+03  0.11612830437E+04  0.13425319330E+04  0.00000000000E+00 0.  1.
         22    1    1    2    0    0  0.66574873640E+02 -0.78404172532E+03  0.13624961910E+04  0.15733879087E+04  0.00000000000E+00 0.  1.
<mgrwt>
<rscale>  0 0.15790099E+04</rscale>
<asrwt>0</asrwt>
<pdfrwt beam="1">  1        2 0.45854949E+00 0.15790099E+04</pdfrwt>
<pdfrwt beam="2">  1       -2 0.32173387E-01 0.15790099E+04</pdfrwt>
<totfact> 0.15558044E+01</totfact>
</mgrwt>
</event>
<event>
 6    1  0.1585031E-006  0.5314708E+04  0.7818608E-02  0.7781713E-01
          2   -1    0    0  501    0  0.00000000000E+00  0.00000000000E+00  0.40002037377E+04  0.40002037377E+04  0.00000000000E+00 0. -1.
         -2   -1    0    0    0  501 -0.00000000000E+00 -0.00000000000E+00 -0.17652924347E+04  0.17652924347E+04  0.00000000000E+00 0.  1.
         23    2    1    2    0    0 -0.22674523135E+04  0.14922067459E+03 -0.37490531798E+03  0.23050410580E+04  0.95149767065E+02 0.  0.
         13    1    3    3    0    0 -0.20377787856E+04  0.11083543393E+03 -0.31908880948E+03  0.20655857622E+04  0.00000000000E+00 0. -1.
        -13    1    3    3    0    0 -0.22967352786E+03  0.38385240658E+02 -0.55816508503E+02  0.23945529588E+03  0.00000000000E+00 0.  1.
         22    1    1    2    0    0  0.22674523135E+04 -0.14922067459E+03  0.26098166210E+04  0.34604551144E+04  0.00000000000E+00 0. -1.
<mgrwt>
<rscale>  0 0.53147077E+04</rscale>
<asrwt>0</asrwt>
<pdfrwt beam="1">  1        2 0.61541596E+00 0.53147077E+04</pdfrwt>
<pdfrwt beam="2">  1       -2 0.27158345E+00 0.53147077E+04</pdfrwt>
<totfact> 0.11454592E-02</totfact>
</mgrwt>
</event>
<event>
 6    1  0.1585031E-006  0.3315793E+04  0.7818608E-02  0.8158888E-01
          2   -1    0    0  501    0  0.00000000000E+00  0.00000000000E+00  0.24250625115E+04  0.24250625115E+04  0.00000000000E+00 0. -1.
         -2   -1    0    0    0  501 -0.00000000000E+00 -0.00000000000E+00 -0.11334228128E+04  0.11334228128E+04  0.00000000000E+00 0.  1.
         23    2    1    2    0    0  0.80384770768E+03  0.24720896274E+03  0.21783006217E+04  0.23364169954E+04  0.81039308256E+02 0.  0.
         11    1    3    3    0    0  0.54724967880E+03  0.20591201340E+03  0.14794488973E+04  0.15908020015E+04  0.00000000000E+00 0. -1.
        -11    1    3    3    0    0  0.25659802888E+03  0.41296949340E+02  0.69885172432E+03  0.74561499384E+03  0.00000000000E+00 0.  1.
         22    1    1    2    0    0 -0.80384770768E+03 -0.24720896274E+03 -0.88666092298E+03  0.12220683290E+04  0.00000000000E+00 0.  1.
<mgrwt>
<rscale>  0 0.33157932E+04</rscale>
<asrwt>0</asrwt>
<pdfrwt beam="1">  1        2 0.37308654E+00 0.33157932E+04</pdfrwt>
<pdfrwt beam="2">  1       -2 0.17437274E+00 0.33157932E+04</pdfrwt>
<totfact> 0.63667233E-01</totfact>
</mgrwt>
</event>
<event>
 6    1  0.2626376E-006  0.2247836E+04  0.7818608E-02  0.8498777E-01
         -2   -1    0    0    0  501 -0.00000000000E+00  0.00000000000E+00  0.60453237875E+03  0.60453237875E+03  0.00000000000E+00 0.  1.
          2   -1    0    0  501    0  0.00000000000E+00 -0.00000000000E+00 -0.20895355795E+04  0.20895355795E+04  0.00000000000E+00 0. -1.
         23    2    1    2    0    0 -0.92136292594E+03  0.62401156132E+03 -0.91665894273E+03  0.14445419419E+04  0.90209393293E+02 0.  0.
         11    1    3    3    0    0 -0.53486895129E+03  0.38158055662E+03 -0.48698431521E+03  0.81782775663E+03  0.00000000000E+00 0.  1.
        -11    1    3    3    0    0 -0.38649397465E+03  0.24243100469E+03 -0.42967462751E+03  0.62671418526E+03  0.00000000000E+00 0. -1.
         22    1    1    2    0    0  0.92136292594E+03 -0.62401156132E+03 -0.56834425804E+03  0.12495260164E+04  0.00000000000E+00 0.  1.
<mgrwt>
<rscale>  0 0.22478362E+04</rscale>
<asrwt>0</asrwt>
<pdfrwt beam="1">  1        2 0.32146700E+00 0.22478362E+04</pdfrwt>
<pdfrwt beam="2">  1       -2 0.93004984E-01 0.22478362E+04</pdfrwt>
<totfact> 0.53096775E+00</totfact>
</mgrwt>
</event>
<event>
 6    1  0.1585031E-006  0.4061935E+04  0.7818608E-02  0.7992168E-01
          1   -1    0    0  501    0  0.00000000000E+00  0.00000000000E+00  0.22988001179E+04  0.22988001179E+04  0.00000000000E+00 0. -1.
         -1   -1    0    0    0  501 -0.00000000000E+00 -0.00000000000E+00 -0.17943400280E+04  0.17943400280E+04  0.00000000000E+00 0.  1.
         23    2    1    2    0    0 -0.16123931429E+03 -0.87827454981E+03  0.20893722873E+04  0.22739889771E+04  0.90471054838E+02 0.  0.
         13    1    3    3    0    0 -0.19225219509E+02 -0.24206866600E+03  0.65038882760E+03  0.69424237496E+03  0.00000000000E+00 0.  1.
        -13    1    3    3    0    0 -0.14201409478E+03 -0.63620588381E+03  0.14389834597E+04  0.15797466021E+04  0.00000000000E+00 0. -1.
         22    1    1    2    0    0  0.16123931429E+03  0.87827454981E+03 -0.15849121975E+04  0.18191511688E+04  0.00000000000E+00 0.  1.
<mgrwt>
<rscale>  0 0.40619350E+04</rscale>
<asrwt>0</asrwt>
<pdfrwt beam="1">  1        1 0.35366156E+00 0.40619350E+04</pdfrwt>
<pdfrwt beam="2">  1       -1 0.27605231E+00 0.40619350E+04</pdfrwt>
<totfact> 0.68548094E-02</totfact>
</mgrwt>
</event>
<event>
 6    1  0.1585031E-006  0.1409172E+04  0.7818608E-02  0.8947206E-01
         -2   -1    0    0    0  501 -0.00000000000E+00  0.00000000000E+00  0.16302621401E+03  0.16302621401E+03  0.00000000000E+00 0.  1.
          2   -1    0    0  501    0  0.00000000000E+00 -0.00000000000E+00 -0.30451653484E+04  0.30451653484E+04  0.00000000000E+00 0. -1.
         23    2    1    2    0    0 -0.44927071579E+03  0.53450687017E+03 -0.15986146808E+04  0.17470355840E+04  0.94987702972E+02 0.  0.
         11    1    3    3    0    0 -0.25269537669E+03  0.22713236340E+03 -0.78074470780E+03  0.85147305457E+03  0.00000000000E+00 0. -1.
        -11    1    3    3    0    0 -0.19657533910E+03  0.30737450677E+03 -0.81786997303E+03  0.89556252944E+03  0.00000000000E+00 0.  1.
         22    1    1    2    0    0  0.44927071579E+03 -0.53450687017E+03 -0.12835244535E+04  0.14611559784E+04  0.00000000000E+00 0.  1.
<mgrwt>
<rscale>  0 0.14091725E+04</rscale>
<asrwt>0</asrwt>
<pdfrwt beam="1">  1        2 0.46848694E+00 0.14091725E+04</pdfrwt>
<pdfrwt beam="2">  1       -2 0.25080958E-01 0.14091725E+04</pdfrwt>
<totfact> 0.22839621E+01</totfact>
</mgrwt>
</event>
<event>
 6    1  0.1585031E-006  0.7651712E+03  0.7818608E-02  0.9611845E-01
         -2   -1    0    0    0  501 -0.00000000000E+00  0.00000000000E+00  0.55907480675E+03  0.55907480675E+03  0.00000000000E+00 0.  1.
          2   -1    0    0  501    0  0.00000000000E+00 -0.00000000000E+00 -0.26181066485E+03  0.26181066485E+03  0.00000000000E+00 0. -1.
         23    2    1    2    0    0  0.20445132583E+03 -0.28163405370E+03 -0.53703981963E+01  0.35968513585E+03  0.90699894950E+02 0.  0.
         13    1    3    3    0    0  0.18751876664E+03 -0.19881519219E+03  0.11280056726E+02  0.27352880683E+03  0.00000000000E+00 0.  1.
        -13    1    3    3    0    0  0.16932559192E+02 -0.82818861504E+02 -0.16650454922E+02  0.86156329023E+02  0.00000000000E+00 0. -1.
         22    1    1    2    0    0 -0.20445132583E+03  0.28163405370E+03  0.30263454009E+03  0.46120033574E+03  0.00000000000E+00 0. -1.
<mgrwt>
<rscale>  0 0.76517121E+03</rscale>
<asrwt>0</asrwt>
<pdfrwt beam="1">  1        2 0.40278564E-01 0.76517121E+03</pdfrwt>
<pdfrwt beam="2">  1       -2 0.86011508E-01 0.76517121E+03</pdfrwt>
<totfact> 0.15116245E+02</totfact>
</mgrwt>
</event>
<event>
 6    1  0.1585031E-006  0.6062124E+03  0.7818608E-02  0.9892600E-01
         -2   -1    0    0    0  501 -0.00000000000E+00  0.00000000000E+00  0.10733548813E+03  0.10733548813E+03  0.00000000000E+00 0.  1.
          2   -1    0    0  501    0  0.00000000000E+00 -0.00000000000E+00 -0.85594586717E+03  0.85594586717E+03  0.00000000000E+00 0. -1.
         23    2    1    2    0    0 -0.24390966044E+03  0.15168480690E+03 -0.49802087467E+03  0.58210514566E+03  0.91221740250E+02 0.  0.
         13    1    3    3    0    0 -0.86715265723E+02  0.10192348356E+03 -0.18516952468E+03  0.22846375353E+03  0.00000000000E+00 0. -1.
        -13    1    3    3    0    0 -0.15719439472E+03  0.49761323346E+02 -0.31285134999E+03  0.35364139212E+03  0.00000000000E+00 0.  1.
         22    1    1    2    0    0  0.24390966044E+03 -0.15168480690E+03 -0.25058950437E+03  0.38117620965E+03  0.00000000000E+00 0.  1.
<mgrwt>
<rscale>  0 0.60621240E+03</rscale>
<asrwt>0</asrwt>
<pdfrwt beam="1">  1        2 0.13168398E+00 0.60621240E+03</pdfrwt>
<pdfrwt beam="2">  1       -2 0.16513152E-01 0.60621240E+03</pdfrwt>
<totfact> 0.94078988E+02</totfact>
</mgrwt>
</event>
<event>
 6    1  0.1585031E-006  0.3631816E+04  0.7818608E-02  0.8083242E-01
          2   -1    0    0  501    0  0.00000000000E+00  0.00000000000E+00  0.25500710776E+04  0.25500710776E+04  0.00000000000E+00 0.  1.
         -2   -1    0    0    0  501 -0.00000000000E+00 -0.00000000000E+00 -0.12931099587E+04  0.12931099587E+04  0.00000000000E+00 0. -1.
         23    2    1    2    0    0  0.45944544793E+03 -0.15987804856E+03  0.24789749628E+04  0.25278981980E+04  0.91111599642E+02 0.  0.
         11    1    3    3    0    0  0.39946767518E+03 -0.16468684460E+03  0.20793181377E+04  0.21237372950E+04  0.00000000000E+00 0. -1.
        -11    1    3    3    0    0  0.59977772749E+02  0.48087960422E+01  0.39965682504E+03  0.40416090304E+03  0.00000000000E+00 0.  1.
         22    1    1    2    0    0 -0.45944544793E+03  0.15987804856E+03 -0.12220138439E+04  0.13152828383E+04  0.00000000000E+00 0. -1.
<mgrwt>
<rscale>  0 0.36318162E+04</rscale>
<asrwt>0</asrwt>
<pdfrwt beam="1">  1        2 0.39231863E+00 0.36318162E+04</pdfrwt>
<pdfrwt beam="2">  1       -2 0.19893999E+00 0.36318162E+04</pdfrwt>
<totfact> 0.35760277E-01</totfact>
</mgrwt>
</event>
<event>
 6    1  0.1585031E-006  0.1488837E+04  0.7818608E-02  0.8891911E-01
         -2   -1    0    0    0  501 -0.00000000000E+00  0.00000000000E+00  0.27265193014E+03  0.27265193014E+03  0.00000000000E+00 0.  1.
          2   -1    0    0  501    0  0.00000000000E+00 -0.00000000000E+00 -0.20324761800E+04  0.20324761800E+04  0.00000000000E+00 0. -1.
         23    2    1    2    0    0  0.38239706843E+03  0.22355035926E+03  0.37443502965E+02  0.45408147204E+03  0.92658978343E+02 0.  0.
         13    1    3    3    0    0  0.11712592653E+03  0.21645948175E+02  0.66624805686E+01  0.11929550866E+03  0.00000000000E+00 0. -1.
        -13    1    3    3    0    0  0.26527114190E+03  0.20190441108E+03  0.30781022397E+02  0.33478596339E+03  0.00000000000E+00 0.  1.
         22    1    1    2    0    0 -0.38239706843E+03 -0.22355035926E+03 -0.17972677528E+04  0.18510466381E+04  0.00000000000E+00 0. -1.
<mgrwt>
<rscale>  0 0.14888365E+04</rscale>
<asrwt>0</asrwt>
<pdfrwt beam="1">  1        2 0.31268863E+00 0.14888365E+04</pdfrwt>
<pdfrwt beam="2">  1       -2 0.41946453E-01 0.14888365E+04</pdfrwt>
<totfact> 0.33394983E+01</totfact>
</mgrwt>
</event>
<event>
 6    1  0.1585031E-006  0.1671678E+04  0.7818608E-02  0.8777684E-01
         -2   -1    0    0    0  501 -0.00000000000E+00  0.00000000000E+00  0.20372653202E+03  0.20372653202E+03  0.00000000000E+00 0.  1.
          2   -1    0    0  501    0  0.00000000000E+00 -0.00000000000E+00 -0.34292380198E+04  0.34292380198E+04  0.00000000000E+00 0. -1.
         23    2    1    2    0    0 -0.38591711761E+03 -0.43764244887E+03 -0.29106081050E+04  0.29699207560E+04  0.91251417494E+02 0.  0.
         11    1    3    3    0    0 -0.10048058348E+03 -0.73577040186E+02 -0.75798155279E+03  0.76814449349E+03  0.00000000000E+00 0. -1.
        -11    1    3    3    0    0 -0.28543653413E+03 -0.36406540868E+03 -0.21526265522E+04  0.22017762625E+04  0.00000000000E+00 0.  1.
         22    1    1    2    0    0  0.38591711761E+03  0.43764244887E+03 -0.31490338277E+03  0.66304379583E+03  0.00000000000E+00 0.  1.
<mgrwt>
<rscale>  0 0.16716779E+04</rscale>
<asrwt>0</asrwt>
<pdfrwt beam="1">  1        2 0.52757506E+00 0.16716779E+04</pdfrwt>
<pdfrwt beam="2">  1       -2 0.31342545E-01 0.16716779E+04</pdfrwt>
<totfact> 0.82802851E+00</totfact>
</mgrwt>
</event>
<event>
 6    1  0.1585031E-006  0.3777419E+04  0.7818608E-02  0.8051018E-01
         -2   -1    0    0    0  501 -0.00000000000E+00  0.00000000000E+00  0.11190296762E+04  0.11190296762E+04  0.00000000000E+00 0.  1.
          2   -1    0    0  501    0  0.00000000000E+00 -0.00000000000E+00 -0.31877829770E+04  0.31877829770E+04  0.00000000000E+00 0. -1.
         23    2    1    2    0    0 -0.15722747650E+04  0.49939429989E+03  0.10916274974E+02  0.16522942133E+04  0.92273499547E+02 0.  0.
         13    1    3    3    0    0 -0.12305902557E+03  0.40921814089E+02 -0.23994197595E+02  0.13188570871E+03  0.00000000000E+00 0. -1.
        -13    1    3    3    0    0 -0.14492157394E+04  0.45847248580E+03  0.34910472569E+02  0.15204085045E+04  0.00000000000E+00 0.  1.
         22    1    1    2    0    0  0.15722747650E+04 -0.49939429989E+03 -0.20796695758E+04  0.26545184400E+04  0.00000000000E+00 0. -1.
<mgrwt>
<rscale>  0 0.37774191E+04</rscale>
<asrwt>0</asrwt>
<pdfrwt beam="1">  1        2 0.49042815E+00 0.37774191E+04</pdfrwt>
<pdfrwt beam="2">  1       -2 0.17215841E+00 0.37774191E+04</pdfrwt>
<totfact> 0.21807495E-01</totfact>
</mgrwt>
</event>
<event>
 6    1  0.1585031E-006  0.1775012E+04  0.7818608E-02  0.8719702E-01
         -1   -1    0    0    0  501 -0.00000000000E+00  0.00000000000E+00  0.12949874194E+04  0.12949874194E+04  0.00000000000E+00 0.  1.
          1   -1    0    0  501    0  0.00000000000E+00 -0.00000000000E+00 -0.60824275306E+03  0.60824275306E+03  0.00000000000E+00 0. -1.
         23    2    1    2    0    0  0.16782139168E+03 -0.84132653201E+03  0.58073799013E+03  0.10388044854E+04  0.76575405879E+02 0.  0.
         13    1    3    3    0    0  0.37572295942E+02 -0.18549534551E+03  0.16775761465E+03  0.25290871456E+03  0.00000000000E+00 0.  1.
        -13    1    3    3    0    0  0.13024909574E+03 -0.65583118650E+03  0.41298037548E+03  0.78589577086E+03  0.00000000000E+00 0. -1.
         22    1    1    2    0    0 -0.16782139168E+03  0.84132653201E+03  0.10600667619E+03  0.86442568701E+03  0.00000000000E+00 0.  1.
<mgrwt>
<rscale>  0 0.17750118E+04</rscale>
<asrwt>0</asrwt>
<pdfrwt beam="1">  1        1 0.93575808E-01 0.17750118E+04</pdfrwt>
<pdfrwt beam="2">  1       -1 0.19922883E+00 0.17750118E+04</pdfrwt>
<totfact> 0.48367655E+00</totfact>
</mgrwt>
</event>
<event>
 6    1  0.1585031E-006  0.1226006E+04  0.7818608E-02  0.9090393E-01
         -3   -1    0    0    0  501 -0.00000000000E+00  0.00000000000E+00  0.43961078157E+03  0.43961078157E+03  0.00000000000E+00 0.  1.
          3   -1    0    0  501    0  0.00000000000E+00 -0.00000000000E+00 -0.85478505484E+03  0.85478505484E+03  0.00000000000E+00 0. -1.
         23    2    1    2    0    0 -0.17251244771E+03 -0.71404303605E+02  0.40453453325E+03  0.45369276953E+03  0.85614375812E+02 0.  0.
         13    1    3    3    0    0 -0.67691102266E+02  0.15213961786E+02  0.13241475323E+03  0.14948985528E+03  0.00000000000E+00 0. -1.
        -13    1    3    3    0    0 -0.10482134544E+03 -0.86618265391E+02  0.27211978002E+03  0.30420291425E+03  0.00000000000E+00 0.  1.
         22    1    1    2    0    0  0.17251244771E+03  0.71404303605E+02 -0.81970880652E+03  0.84070306689E+03  0.00000000000E+00 0. -1.
<mgrwt>
<rscale>  0 0.12260061E+04</rscale>
<asrwt>0</asrwt>
<pdfrwt beam="1">  1        3 0.13150539E+00 0.12260061E+04</pdfrwt>
<pdfrwt beam="2">  1       -3 0.67632429E-01 0.12260061E+04</pdfrwt>
<totfact> 0.24537202E+00</totfact>
</mgrwt>
</event>
<event>
 6    1  0.1585031E-006  0.5761081E+04  0.7818608E-02  0.7720752E-01
          2   -1    0    0  501    0  0.00000000000E+00  0.00000000000E+00  0.37061657283E+04  0.37061657283E+04  0.00000000000E+00 0. -1.
         -2   -1    0    0    0  501 -0.00000000000E+00 -0.00000000000E+00 -0.22388406681E+04  0.22388406681E+04  0.00000000000E+00 0.  1.
         23    2    1    2    0    0 -0.78409951137E+02  0.20599886697E+04 -0.13412348428E+04  0.24610847313E+04  0.91245335330E+02 0.  0.
         11    1    3    3    0    0 -0.99082315015E+02  0.16299502808E+04 -0.10592464779E+04  0.19464219285E+04  0.00000000000E+00 0. -1.
        -11    1    3    3    0    0  0.20672363878E+02  0.43003838891E+03 -0.28198836490E+03  0.51466280272E+03  0.00000000000E+00 0.  1.
         22    1    1    2    0    0  0.78409951137E+02 -0.20599886697E+04  0.28085599030E+04  0.34839216651E+04  0.00000000000E+00 0. -1.
<mgrwt>
<rscale>  0 0.57610813E+04</rscale>
<asrwt>0</asrwt>
<pdfrwt beam="1">  1        2 0.57017934E+00 0.57610813E+04</pdfrwt>
<pdfrwt beam="2">  1       -2 0.34443703E+00 0.57610813E+04</pdfrwt>
<totfact> 0.66579881E-03</totfact>
</mgrwt>
</event>
<event>
 6    1  0.1585031E-006  0.1346905E+04  0.7818608E-02  0.8993174E-01
          1   -1    0    0  501    0  0.00000000000E+00  0.00000000000E+00  0.20267907697E+04  0.20267907697E+04  0.00000000000E+00 0. -1.
         -1   -1    0    0    0  501 -0.00000000000E+00 -0.00000000000E+00 -0.22377161308E+03  0.22377161308E+03  0.00000000000E+00 0.  1.
         23    2    1    2    0    0 -0.28068397603E+03  0.46142422802E+03  0.24190614494E+03  0.59866358205E+03  0.90463743645E+02 0.  0.
         13    1    3    3    0    0 -0.11136397261E+03  0.11994369136E+03  0.10084224141E+03  0.19224354643E+03  0.00000000000E+00 0. -1.
        -13    1    3    3    0    0 -0.16932000342E+03  0.34148053665E+03  0.14106390353E+03  0.40642003562E+03  0.00000000000E+00 0.  1.
         22    1    1    2    0    0  0.28068397603E+03 -0.46142422802E+03  0.15611130117E+04  0.16518988008E+04  0.00000000000E+00 0. -1.
<mgrwt>
<rscale>  0 0.13469050E+04</rscale>
<asrwt>0</asrwt>
<pdfrwt beam="1">  1        1 0.31181395E+00 0.13469050E+04</pdfrwt>
<pdfrwt beam="2">  1       -1 0.34426403E-01 0.13469050E+04</pdfrwt>
<totfact> 0.22391451E+01</totfact>
</mgrwt>
</event>
<event>
 6    1  0.1585031E-006  0.2815669E+04  0.7818608E-02  0.8298420E-01
          1   -1    0    0  501    0  0.00000000000E+00  0.00000000000E+00  0.27698933187E+04  0.27698933187E+04  0.00000000000E+00 0. -1.
         -1   -1    0    0    0  501 -0.00000000000E+00 -0.00000000000E+00 -0.71555004030E+03  0.71555004030E+03  0.00000000000E+00 0.  1.
         23    2    1    2    0    0 -0.47156963570E+03  0.72467148867E+02 -0.60941050953E+03  0.77929967255E+03  0.91090073697E+02 0.  0.
         13    1    3    3    0    0 -0.25793923463E+03  0.74785952451E+02 -0.29239667526E+03  0.39701562078E+03  0.00000000000E+00 0. -1.
        -13    1    3    3    0    0 -0.21363040107E+03 -0.23188035833E+01 -0.31701383427E+03  0.38228405176E+03  0.00000000000E+00 0.  1.
         22    1    1    2    0    0  0.47156963570E+03 -0.72467148867E+02  0.26637537880E+04  0.27061436865E+04  0.00000000000E+00 0. -1.
<mgrwt>
<rscale>  0 0.28156685E+04</rscale>
<asrwt>0</asrwt>
<pdfrwt beam="1">  1        1 0.42613743E+00 0.28156685E+04</pdfrwt>
<pdfrwt beam="2">  1       -1 0.11008462E+00 0.28156685E+04</pdfrwt>
<totfact> 0.57634797E-01</totfact>
</mgrwt>
</event>
<event>
 6    1  0.1585031E-006  0.2391941E+04  0.7818608E-02  0.8442527E-01
          2   -1    0    0  501    0  0.00000000000E+00  0.00000000000E+00  0.13445202927E+04  0.13445202927E+04  0.00000000000E+00 0. -1.
         -2   -1    0    0    0  501 -0.00000000000E+00 -0.00000000000E+00 -0.10638334711E+04  0.10638334711E+04  0.00000000000E+00 0.  1.
         23    2    1    2    0    0  0.20780396661E+03 -0.71720874436E+03  0.10788971003E+04  0.13153256212E+04  0.92150232623E+02 0.  0.
         13    1    3    3    0    0  0.16040640377E+03 -0.45258498152E+03  0.74993681448E+03  0.89048784696E+03  0.00000000000E+00 0. -1.
        -13    1    3    3    0    0  0.47397562840E+02 -0.26462376284E+03  0.32896028579E+03  0.42483777427E+03  0.00000000000E+00 0.  1.
         22    1    1    2    0    0 -0.20780396661E+03  0.71720874436E+03 -0.79821027864E+03  0.10930281426E+04  0.00000000000E+00 0.  1.
<mgrwt>
<rscale>  0 0.23919412E+04</rscale>
<asrwt>0</asrwt>
<pdfrwt beam="1">  1        2 0.20684928E+00 0.23919412E+04</pdfrwt>
<pdfrwt beam="2">  1       -2 0.16366669E+00 0.23919412E+04</pdfrwt>
<totfact> 0.33183665E+00</totfact>
</mgrwt>
</event>
<event>
 6    1  0.1585031E-006  0.2569062E+04  0.7818608E-02  0.8378787E-01
         -1   -1    0    0    0  501 -0.00000000000E+00  0.00000000000E+00  0.79409939549E+03  0.79409939549E+03  0.00000000000E+00 0.  1.
          1   -1    0    0  501    0  0.00000000000E+00 -0.00000000000E+00 -0.20778500126E+04  0.20778500126E+04  0.00000000000E+00 0. -1.
         23    2    1    2    0    0 -0.11460263908E+04 -0.29254775276E+03 -0.11982170998E+04  0.16860840453E+04  0.90523552685E+02 0.  0.
         13    1    3    3    0    0 -0.73916513776E+03 -0.23054022375E+03 -0.80291809337E+03  0.11154332613E+04  0.00000000000E+00 0.  1.
        -13    1    3    3    0    0 -0.40686125304E+03 -0.62007529009E+02 -0.39529900646E+03  0.57065078409E+03  0.00000000000E+00 0. -1.
         22    1    1    2    0    0  0.11460263908E+04  0.29254775276E+03 -0.85533517314E+02  0.11858653628E+04  0.00000000000E+00 0.  1.
<mgrwt>
<rscale>  0 0.25690616E+04</rscale>
<asrwt>0</asrwt>
<pdfrwt beam="1">  1        1 0.31966923E+00 0.25690616E+04</pdfrwt>
<pdfrwt beam="2">  1       -1 0.12216914E+00 0.25690616E+04</pdfrwt>
<totfact> 0.13799031E+00</totfact>
</mgrwt>
</event>
<event>
 6    1  0.1585031E-006  0.6674882E+03  0.7818608E-02  0.9774506E-01
          1   -1    0    0  501    0  0.00000000000E+00  0.00000000000E+00  0.59902033345E+03  0.59902033345E+03  0.00000000000E+00 0. -1.
         -1   -1    0    0    0  501 -0.00000000000E+00 -0.00000000000E+00 -0.18594548492E+03  0.18594548492E+03  0.00000000000E+00 0.  1.
         23    2    1    2    0    0 -0.24945486982E+03  0.10013322218E+03  0.42997471403E+03  0.51563331064E+03  0.93515036646E+02 0.  0.
         11    1    3    3    0    0 -0.19638534936E+03  0.55513309586E+02  0.37581943013E+03  0.42765544198E+03  0.00000000000E+00 0. -1.
        -11    1    3    3    0    0 -0.53069520457E+02  0.44619912593E+02  0.54155283896E+02  0.87977868667E+02  0.00000000000E+00 0.  1.
         22    1    1    2    0    0  0.24945486982E+03 -0.10013322218E+03 -0.16899865497E+02  0.26933250772E+03  0.00000000000E+00 0.  1.
<mgrwt>
<rscale>  0 0.66748821E+03</rscale>
<asrwt>0</asrwt>
<pdfrwt beam="1">  1        1 0.92156974E-01 0.66748821E+03</pdfrwt>
<pdfrwt beam="2">  1       -1 0.28606998E-01 0.66748821E+03</pdfrwt>
<totfact> 0.38501508E+02</totfact>
</mgrwt>
</event>
<event>
 6    1  0.1585031E-006  0.2706900E+04  0.7818608E-02  0.8332770E-01
          2   -1    0    0  501    0  0.00000000000E+00  0.00000000000E+00  0.28758143554E+04  0.28758143554E+04  0.00000000000E+00 0. -1.
         -2   -1    0    0    0  501 -0.00000000000E+00 -0.00000000000E+00 -0.63697659618E+03  0.63697659618E+03  0.00000000000E+00 0.  1.
         23    2    1    2    0    0  0.69372724455E+03 -0.96763696494E+03  0.19517706064E+04  0.22880516585E+04  0.90515777977E+02 0.  0.
         13    1    3    3    0    0  0.16255167041E+02 -0.78221653645E+01  0.44080380011E+02  0.47628737422E+02  0.00000000000E+00 0. -1.
        -13    1    3    3    0    0  0.67747207751E+03 -0.95981479957E+03  0.19076902264E+04  0.22404229211E+04  0.00000000000E+00 0.  1.
         22    1    1    2    0    0 -0.69372724455E+03  0.96763696494E+03  0.28706715275E+03  0.12247392930E+04  0.00000000000E+00 0.  1.
<mgrwt>
<rscale>  0 0.27068997E+04</rscale>
<asrwt>0</asrwt>
<pdfrwt beam="1">  1        2 0.44243297E+00 0.27068997E+04</pdfrwt>
<pdfrwt beam="2">  1       -2 0.97996401E-01 0.27068997E+04</pdfrwt>
<totfact> 0.15789912E+00</totfact>
</mgrwt>
</event>
<event>
 6    1  0.1585031E-006  0.3104576E+04  0.7818608E-02  0.8214483E-01
          2   -1    0    0  501    0  0.00000000000E+00  0.00000000000E+00  0.23224244099E+04  0.23224244099E+04  0.00000000000E+00 0. -1.
         -2   -1    0    0    0  501 -0.00000000000E+00 -0.00000000000E+00 -0.10375358072E+04  0.10375358072E+04  0.00000000000E+00 0.  1.
         23    2    1    2    0    0 -0.14656459703E+04 -0.49388503220E+03  0.76815503205E+03  0.17292995785E+04  0.91511440324E+02 0.  0.
         11    1    3    3    0    0 -0.99257908213E+03 -0.29057533916E+03  0.52538461256E+03  0.11600328673E+04  0.00000000000E+00 0.  1.
        -11    1    3    3    0    0 -0.47306688820E+03 -0.20330969304E+03  0.24277041949E+03  0.56926671129E+03  0.00000000000E+00 0. -1.
         22    1    1    2    0    0  0.14656459703E+04  0.49388503220E+03  0.51673357065E+03  0.16306606386E+04  0.00000000000E+00 0. -1.
<mgrwt>
<rscale>  0 0.31045763E+04</rscale>
<asrwt>0</asrwt>
<pdfrwt beam="1">  1        2 0.35729606E+00 0.31045763E+04</pdfrwt>
<pdfrwt beam="2">  1       -2 0.15962089E+00 0.31045763E+04</pdfrwt>
<totfact> 0.94719361E-01</totfact>
</mgrwt>
</event>
<event>
 6    1  0.1585031E-006  0.2951400E+04  0.7818608E-02  0.8257747E-01
          1   -1    0    0  501    0  0.00000000000E+00  0.00000000000E+00  0.27324834934E+04  0.27324834934E+04  0.00000000000E+00 0. -1.
         -1   -1    0    0    0  501 -0.00000000000E+00 -0.00000000000E+00 -0.79696391860E+03  0.79696391860E+03  0.00000000000E+00 0.  1.
         23    2    1    2    0    0  0.49466525375E+03  0.13790311908E+04  0.11664740065E+04  0.18748018836E+04  0.88316231004E+02 0.  0.
         11    1    3    3    0    0  0.30402194942E+03  0.78612753969E+03  0.71963641035E+03  0.11082880571E+04  0.00000000000E+00 0. -1.
        -11    1    3    3    0    0  0.19064330433E+03  0.59290365110E+03  0.44683759615E+03  0.76651382656E+03  0.00000000000E+00 0.  1.
         22    1    1    2    0    0 -0.49466525375E+03 -0.13790311908E+04  0.76904556835E+03  0.16546455284E+04  0.00000000000E+00 0.  1.
<mgrwt>
<rscale>  0 0.29514002E+04</rscale>
<asrwt>0</asrwt>
<pdfrwt beam="1">  1        1 0.42038207E+00 0.29514002E+04</pdfrwt>
<pdfrwt beam="2">  1       -1 0.12260984E+00 0.29514002E+04</pdfrwt>
<totfact> 0.46675638E-01</totfact>
</mgrwt>
</event>
<event>
 6    1  0.1585031E-006  0.1371678E+04  0.7818608E-02  0.8974578E-01
          1   -1    0    0  501    0  0.00000000000E+00  0.00000000000E+00  0.11110591000E+04  0.11110591000E+04  0.00000000000E+00 0. -1.
         -1   -1    0    0    0  501 -0.00000000000E+00 -0.00000000000E+00 -0.42335768485E+03  0.42335768485E+03  0.00000000000E+00 0.  1.
         23    2    1    2    0    0 -0.32340311583E+03  0.48959013716E+03  0.73606527823E+03  0.94566629361E+03  0.90579066729E+02 0.  0.
         13    1    3    3    0    0 -0.20683769986E+03  0.33917480089E+03  0.55861659529E+03  0.68547347153E+03  0.00000000000E+00 0. -1.
        -13    1    3    3    0    0 -0.11656541597E+03  0.15041533626E+03  0.17744868294E+03  0.26019282208E+03  0.00000000000E+00 0.  1.
         22    1    1    2    0    0  0.32340311583E+03 -0.48959013716E+03 -0.48363863043E+02  0.58875049128E+03  0.00000000000E+00 0.  1.
<mgrwt>
<rscale>  0 0.13716784E+04</rscale>
<asrwt>0</asrwt>
<pdfrwt beam="1">  1        1 0.17093217E+00 0.13716784E+04</pdfrwt>
<pdfrwt beam="2">  1       -1 0.65131952E-01 0.13716784E+04</pdfrwt>
<totfact> 0.29049106E+01</totfact>
</mgrwt>
</event>
<event>
 6    1  0.1585031E-006  0.3535654E+04  0.7818608E-02  0.8105392E-01
          2   -1    0    0  501    0  0.00000000000E+00  0.00000000000E+00  0.16063674963E+04  0.16063674963E+04  0.00000000000E+00 0.  1.
         -2   -1    0    0    0  501 -0.00000000000E+00 -0.00000000000E+00 -0.19455151065E+04  0.19455151065E+04  0.00000000000E+00 0. -1.
         23    2    1    2    0    0  0.13996876768E+04  0.10567715108E+04  0.44548504748E+02  0.17565791947E+04  0.87717042557E+02 0.  0.
         13    1    3    3    0    0  0.82504056908E+03  0.59308201791E+03  0.61981901136E+02  0.10179783773E+04  0.00000000000E+00 0. -1.
        -13    1    3    3    0    0  0.57464710769E+03  0.46368949290E+03 -0.17433396388E+02  0.73860081743E+03  0.00000000000E+00 0.  1.
         22    1    1    2    0    0 -0.13996876768E+04 -0.10567715108E+04 -0.38369611496E+03  0.17953034081E+04  0.00000000000E+00 0. -1.
<mgrwt>
<rscale>  0 0.35356540E+04</rscale>
<asrwt>0</asrwt>
<pdfrwt beam="1">  1        2 0.24713346E+00 0.35356540E+04</pdfrwt>
<pdfrwt beam="2">  1       -2 0.29931002E+00 0.35356540E+04</pdfrwt>
<totfact> 0.29082476E-01</totfact>
</mgrwt>
</event>
<event>
 6    1  0.1585031E-006  0.3678281E+04  0.7818608E-02  0.8072792E-01
         -1   -1    0    0    0  501 -0.00000000000E+00  0.00000000000E+00  0.13093165521E+04  0.13093165521E+04  0.00000000000E+00 0.  1.
          1   -1    0    0  501    0  0.00000000000E+00 -0.00000000000E+00 -0.25833617958E+04  0.25833617958E+04  0.00000000000E+00 0. -1.
         23    2    1    2    0    0 -0.93153491833E+03  0.51051228592E+03  0.94998463845E+03  0.14279899265E+04  0.91128034606E+02 0.  0.
         13    1    3    3    0    0 -0.31800264712E+03  0.22328935848E+03  0.35792523497E+03  0.52829375826E+03  0.00000000000E+00 0.  1.
        -13    1    3    3    0    0 -0.61353227121E+03  0.28722292744E+03  0.59205940348E+03  0.89969616822E+03  0.00000000000E+00 0. -1.
         22    1    1    2    0    0  0.93153491833E+03 -0.51051228592E+03 -0.22240298821E+04  0.24646884214E+04  0.00000000000E+00 0. -1.
<mgrwt>
<rscale>  0 0.36782813E+04</rscale>
<asrwt>0</asrwt>
<pdfrwt beam="1">  1        1 0.39744027E+00 0.36782813E+04</pdfrwt>
<pdfrwt beam="2">  1       -1 0.20143332E+00 0.36782813E+04</pdfrwt>
<totfact> 0.14012700E-01</totfact>
</mgrwt>
</event>
<event>
 6    1  0.1585031E-006  0.1421258E+04  0.7818608E-02  0.8938573E-01
          1   -1    0    0  501    0  0.00000000000E+00  0.00000000000E+00  0.15268327189E+04  0.15268327189E+04  0.00000000000E+00 0. -1.
         -1   -1    0    0    0  501 -0.00000000000E+00 -0.00000000000E+00 -0.33074588988E+03  0.33074588988E+03  0.00000000000E+00 0.  1.
         23    2    1    2    0    0  0.43077612878E+03 -0.55690785207E+03  0.50715978563E+03  0.87252282358E+03  0.91490986883E+02 0.  0.
         11    1    3    3    0    0  0.12943964582E+03 -0.24003101911E+03  0.19416552201E+03  0.33476822129E+03  0.00000000000E+00 0.  1.
        -11    1    3    3    0    0  0.30133648296E+03 -0.31687683297E+03  0.31299426362E+03  0.53775460230E+03  0.00000000000E+00 0. -1.
         22    1    1    2    0    0 -0.43077612878E+03  0.55690785207E+03  0.68892704337E+03  0.98505578518E+03  0.00000000000E+00 0.  1.
<mgrwt>
<rscale>  0 0.14212581E+04</rscale>
<asrwt>0</asrwt>
<pdfrwt beam="1">  1        1 0.23489734E+00 0.14212581E+04</pdfrwt>
<pdfrwt beam="2">  1       -1 0.50883984E-01 0.14212581E+04</pdfrwt>
<totfact> 0.23681270E+01</totfact>
</mgrwt>
</event>
<event>
 6    1  0.1585031E-006  0.2608798E+04  0.7818608E-02  0.8365219E-01
         -2   -1    0    0    0  501 -0.00000000000E+00  0.00000000000E+00  0.71027973143E+03  0.71027973143E+03  0.00000000000E+00 0.  1.
          2   -1    0    0  501    0  0.00000000000E+00 -0.00000000000E+00 -0.23954744206E+04  0.23954744206E+04  0.00000000000E+00 0. -1.
         23    2    1    2    0    0 -0.73182626028E+02  0.87183415375E+03  0.30557718866E+03  0.93121439428E+03  0.91281660257E+02 0.  0.
         11    1    3    3    0    0 -0.54293088395E+02  0.44139375161E+03  0.11043034863E+03  0.45822597625E+03  0.00000000000E+00 0. -1.
        -11    1    3    3    0    0 -0.18889537633E+02  0.43044040214E+03  0.19514684003E+03  0.47298841804E+03  0.00000000000E+00 0.  1.
         22    1    1    2    0    0  0.73182626028E+02 -0.87183415375E+03 -0.19907718778E+04  0.21745397577E+04  0.00000000000E+00 0. -1.
<mgrwt>
<rscale>  0 0.26087981E+04</rscale>
<asrwt>0</asrwt>
<pdfrwt beam="1">  1        2 0.36853453E+00 0.26087981E+04</pdfrwt>
<pdfrwt beam="2">  1       -2 0.10927380E+00 0.26087981E+04</pdfrwt>
<totfact> 0.23597184E+00</totfact>
</mgrwt>
</event>
<event>
 6    1  0.1585031E-006  0.2822863E+04  0.7818608E-02  0.8296205E-01
          2   -1    0    0  501    0  0.00000000000E+00  0.00000000000E+00  0.16592380175E+04  0.16592380175E+04  0.00000000000E+00 0. -1.
         -2   -1    0    0    0  501 -0.00000000000E+00 -0.00000000000E+00 -0.12006346263E+04  0.12006346263E+04  0.00000000000E+00 0.  1.
         23    2    1    2    0    0 -0.54121946401E+03 -0.46098108554E+02 -0.10883748220E+04  0.12203040616E+04  0.97666298097E+02 0.  0.
         13    1    3    3    0    0 -0.31759959995E+03  0.16916043968E+02 -0.67305571953E+03  0.74441900837E+03  0.00000000000E+00 0. -1.
        -13    1    3    3    0    0 -0.22361986406E+03 -0.63014152523E+02 -0.41531910247E+03  0.47588505324E+03  0.00000000000E+00 0.  1.
         22    1    1    2    0    0  0.54121946401E+03  0.46098108554E+02  0.15469782131E+04  0.16395685822E+04  0.00000000000E+00 0. -1.
<mgrwt>
<rscale>  0 0.28228628E+04</rscale>
<asrwt>0</asrwt>
<pdfrwt beam="1">  1        2 0.25526739E+00 0.28228628E+04</pdfrwt>
<pdfrwt beam="2">  1       -2 0.18471302E+00 0.28228628E+04</pdfrwt>
<totfact> 0.15107707E+00</totfact>
</mgrwt>
</event>
<event>
 6    1  0.1585031E-006  0.1461418E+04  0.7818608E-02  0.8910523E-01
          1   -1    0    0  501    0  0.00000000000E+00  0.00000000000E+00  0.90363731086E+03  0.90363731086E+03  0.00000000000E+00 0.  1.
         -1   -1    0    0    0  501 -0.00000000000E+00 -0.00000000000E+00 -0.59087366589E+03  0.59087366589E+03  0.00000000000E+00 0. -1.
         23    2    1    2    0    0 -0.46946864636E+01  0.42903756850E+03 -0.44685412402E+03  0.62209225262E+03  0.56788091599E+02 0.  0.
         11    1    3    3    0    0  0.17305103189E+02  0.28617793073E+03 -0.32147512424E+03  0.43074764090E+03  0.00000000000E+00 0.  1.
        -11    1    3    3    0    0 -0.21999789652E+02  0.14285963777E+03 -0.12537899978E+03  0.19134461171E+03  0.00000000000E+00 0. -1.
         22    1    1    2    0    0  0.46946864636E+01 -0.42903756850E+03  0.75961776898E+03  0.87241872413E+03  0.00000000000E+00 0.  1.
<mgrwt>
<rscale>  0 0.14614178E+04</rscale>
<asrwt>0</asrwt>
<pdfrwt beam="1">  1        1 0.13902113E+00 0.14614178E+04</pdfrwt>
<pdfrwt beam="2">  1       -1 0.90903640E-01 0.14614178E+04</pdfrwt>
<totfact> 0.20726061E+01</totfact>
</mgrwt>
</event>
<event>
 6    1  0.1585031E-006  0.3096946E+04  0.7818608E-02  0.8216577E-01
          2   -1    0    0  501    0  0.00000000000E+00  0.00000000000E+00  0.13891001513E+04  0.13891001513E+04  0.00000000000E+00 0.  1.
         -2   -1    0    0    0  501 -0.00000000000E+00 -0.00000000000E+00 -0.17261307586E+04  0.17261307586E+04  0.00000000000E+00 0. -1.
         23    2    1    2    0    0  0.14949256270E+04  0.32214212518E+03  0.68580250212E+02  0.15331125999E+04  0.84574311698E+02 0.  0.
         13    1    3    3    0    0  0.37426999664E+03  0.53205033986E+02 -0.77665728549E+01  0.37811258334E+03  0.00000000000E+00 0. -1.
        -13    1    3    3    0    0  0.11206556304E+04  0.26893709120E+03  0.76346823067E+02  0.11550000166E+04  0.00000000000E+00 0.  1.
         22    1    1    2    0    0 -0.14949256270E+04 -0.32214212518E+03 -0.40561085755E+03  0.15821183100E+04  0.00000000000E+00 0.  1.
<mgrwt>
<rscale>  0 0.30969459E+04</rscale>
<asrwt>0</asrwt>
<pdfrwt beam="1">  1        2 0.21370772E+00 0.30969459E+04</pdfrwt>
<pdfrwt beam="2">  1       -2 0.26555858E+00 0.30969459E+04</pdfrwt>
<totfact> 0.64320838E-01</totfact>
</mgrwt>
</event>
<event>
 6    1  0.1585031E-006  0.1299390E+04  0.7818608E-02  0.9030049E-01
          1   -1    0    0  501    0  0.00000000000E+00  0.00000000000E+00  0.10229553100E+04  0.10229553100E+04  0.00000000000E+00 0. -1.
         -1   -1    0    0    0  501 -0.00000000000E+00 -0.00000000000E+00 -0.41263120423E+03  0.41263120423E+03  0.00000000000E+00 0.  1.
         23    2    1    2    0    0 -0.32777552287E+03 -0.48762077216E+03  0.60464072170E+03  0.84801259406E+03  0.91236760739E+02 0.  0.
         11    1    3    3    0    0 -0.18403966450E+03 -0.32894751396E+03  0.42918071422E+03  0.57120324798E+03  0.00000000000E+00 0. -1.
        -11    1    3    3    0    0 -0.14373585837E+03 -0.15867325821E+03  0.17546000748E+03  0.27680934608E+03  0.00000000000E+00 0.  1.
         22    1    1    2    0    0  0.32777552287E+03  0.48762077216E+03  0.56833840952E+01  0.58757392020E+03  0.00000000000E+00 0.  1.
<mgrwt>
<rscale>  0 0.12993895E+04</rscale>
<asrwt>0</asrwt>
<pdfrwt beam="1">  1        1 0.15737774E+00 0.12993895E+04</pdfrwt>
<pdfrwt beam="2">  1       -1 0.63481724E-01 0.12993895E+04</pdfrwt>
<totfact> 0.35908919E+01</totfact>
</mgrwt>
</event>
<event>
 6    1  0.1585031E-006  0.2191566E+04  0.7818608E-02  0.8521947E-01
          2   -1    0    0  501    0  0.00000000000E+00  0.00000000000E+00  0.12775975445E+04  0.12775975445E+04  0.00000000000E+00 0. -1.
         -2   -1    0    0    0  501 -0.00000000000E+00 -0.00000000000E+00 -0.93984216115E+03  0.93984216115E+03  0.00000000000E+00 0.  1.
         23    2    1    2    0    0 -0.98808508828E+03 -0.36429608852E+03 -0.13015167559E+03  0.10650678917E+04  0.91686277313E+02 0.  0.
         13    1    3    3    0    0 -0.44084217693E+03 -0.14022321459E+03 -0.16468933837E+02  0.46289912578E+03  0.00000000000E+00 0. -1.
        -13    1    3    3    0    0 -0.54724291135E+03 -0.22407287393E+03 -0.11368274175E+03  0.60216876590E+03  0.00000000000E+00 0.  1.
         22    1    1    2    0    0  0.98808508828E+03  0.36429608852E+03  0.46790705890E+03  0.11523718139E+04  0.00000000000E+00 0.  1.
<mgrwt>
<rscale>  0 0.21915657E+04</rscale>
<asrwt>0</asrwt>
<pdfrwt beam="1">  1        2 0.19655347E+00 0.21915657E+04</pdfrwt>
<pdfrwt beam="2">  1       -2 0.14459110E+00 0.21915657E+04</pdfrwt>
<totfact> 0.51453798E+00</totfact>
</mgrwt>
</event>
<event>
 6    1  0.1585031E-006  0.7047279E+03  0.7818608E-02  0.9709181E-01
         -2   -1    0    0    0  501 -0.00000000000E+00  0.00000000000E+00  0.37946989612E+02  0.37946989612E+02  0.00000000000E+00 0. -1.
          2   -1    0    0  501    0  0.00000000000E+00 -0.00000000000E+00 -0.32719421182E+04  0.32719421182E+04  0.00000000000E+00 0.  1.
         23    2    1    2    0    0 -0.30395161829E+03 -0.23147917062E+02 -0.23892847858E+04  0.24118590552E+04  0.12433785329E+03 0.  0.
         11    1    3    3    0    0 -0.46732686889E+01  0.25568630767E+02 -0.18507789039E+03  0.18689414071E+03  0.00000000000E+00 0. -1.
        -11    1    3    3    0    0 -0.29927834961E+03 -0.48716547829E+02 -0.22042068954E+04  0.22249649144E+04  0.00000000000E+00 0.  1.
         22    1    1    2    0    0  0.30395161829E+03  0.23147917062E+02 -0.84471034274E+03  0.89803005265E+03  0.00000000000E+00 0. -1.
<mgrwt>
<rscale>  0 0.70472790E+03</rscale>
<asrwt>0</asrwt>
<pdfrwt beam="1">  1        2 0.50337593E+00 0.70472790E+03</pdfrwt>
<pdfrwt beam="2">  1       -2 0.58379959E-02 0.70472790E+03</pdfrwt>
<totfact> 0.20207493E+02</totfact>
</mgrwt>
</event>
<event>
 6    1  0.1585031E-006  0.1318568E+04  0.7818608E-02  0.9014969E-01
         -1   -1    0    0    0  501 -0.00000000000E+00  0.00000000000E+00  0.54240875780E+03  0.54240875780E+03  0.00000000000E+00 0.  1.
          1   -1    0    0  501    0  0.00000000000E+00 -0.00000000000E+00 -0.80134280540E+03  0.80134280540E+03  0.00000000000E+00 0. -1.
         23    2    1    2    0    0 -0.37846902249E+02  0.49580833845E+03 -0.56626840361E+03  0.75918958799E+03  0.91927303328E+02 0.  0.
         13    1    3    3    0    0  0.24929051369E+02  0.27444165278E+03 -0.31090803565E+03  0.41545575579E+03  0.00000000000E+00 0. -1.
        -13    1    3    3    0    0 -0.62775953617E+02  0.22136668567E+03 -0.25536036796E+03  0.34373383220E+03  0.00000000000E+00 0.  1.
         22    1    1    2    0    0  0.37846902249E+02 -0.49580833845E+03  0.30733435601E+03  0.58456197521E+03  0.00000000000E+00 0.  1.
<mgrwt>
<rscale>  0 0.13185679E+04</rscale>
<asrwt>0</asrwt>
<pdfrwt beam="1">  1        1 0.12328351E+00 0.13185679E+04</pdfrwt>
<pdfrwt beam="2">  1       -1 0.83447501E-01 0.13185679E+04</pdfrwt>
<totfact> 0.30838895E+01</totfact>
</mgrwt>
</event>
<event>
 6    1  0.1585031E-006  0.1869706E+04  0.7818608E-02  0.8670084E-01
         -1   -1    0    0    0  501 -0.00000000000E+00  0.00000000000E+00  0.44601623899E+03  0.44601623899E+03  0.00000000000E+00 0.  1.
          1   -1    0    0  501    0  0.00000000000E+00 -0.00000000000E+00 -0.19594578742E+04  0.19594578742E+04  0.00000000000E+00 0. -1.
         23    2    1    2    0    0  0.48655644476E+03  0.16518368467E+03 -0.17605613514E+04  0.18353066135E+04  0.68929456343E+02 0.  0.
         11    1    3    3    0    0  0.68810074822E+02  0.49002832167E+02 -0.31307964488E+03  0.32427606757E+03  0.00000000000E+00 0. -1.
        -11    1    3    3    0    0  0.41774636994E+03  0.11618085250E+03 -0.14474817065E+04  0.15110305460E+04  0.00000000000E+00 0.  1.
         22    1    1    2    0    0 -0.48655644476E+03 -0.16518368467E+03  0.24711971615E+03  0.57016749972E+03  0.00000000000E+00 0.  1.
<mgrwt>
<rscale>  0 0.18697059E+04</rscale>
<asrwt>0</asrwt>
<pdfrwt beam="1">  1        1 0.30145505E+00 0.18697059E+04</pdfrwt>
<pdfrwt beam="2">  1       -1 0.68617886E-01 0.18697059E+04</pdfrwt>
<totfact> 0.64013516E+00</totfact>
</mgrwt>
</event>
<event>
 6    1  0.1585031E-006  0.1390825E+04  0.7818608E-02  0.8960487E-01
          2   -1    0    0  501    0  0.00000000000E+00  0.00000000000E+00  0.17555517817E+04  0.17555517817E+04  0.00000000000E+00 0. -1.
         -2   -1    0    0    0  501 -0.00000000000E+00 -0.00000000000E+00 -0.27546812496E+03  0.27546812496E+03  0.00000000000E+00 0.  1.
         23    2    1    2    0    0  0.43342694031E+03 -0.17125354706E+03  0.14909388230E+04  0.15648605727E+04  0.93291736256E+02 0.  0.
         13    1    3    3    0    0  0.28287222436E+03 -0.14403373667E+03  0.11053841326E+04  0.11500593434E+04  0.00000000000E+00 0. -1.
        -13    1    3    3    0    0  0.15055471596E+03 -0.27219810390E+02  0.38555469039E+03  0.41480122934E+03  0.00000000000E+00 0.  1.
         22    1    1    2    0    0 -0.43342694031E+03  0.17125354706E+03 -0.10855166309E+02  0.46615933392E+03  0.00000000000E+00 0. -1.
<mgrwt>
<rscale>  0 0.13908250E+04</rscale>
<asrwt>0</asrwt>
<pdfrwt beam="1">  1        2 0.27008488E+00 0.13908250E+04</pdfrwt>
<pdfrwt beam="2">  1       -2 0.42379713E-01 0.13908250E+04</pdfrwt>
<totfact> 0.46945394E+01</totfact>
</mgrwt>
</event>
<event>
 6    1  0.1585031E-006  0.1405004E+04  0.7818608E-02  0.8950204E-01
         -1   -1    0    0    0  501 -0.00000000000E+00  0.00000000000E+00  0.54206600165E+03  0.54206600165E+03  0.00000000000E+00 0.  1.
          1   -1    0    0  501    0  0.00000000000E+00 -0.00000000000E+00 -0.91042227190E+03  0.91042227190E+03  0.00000000000E+00 0. -1.
         23    2    1    2    0    0  0.17995320760E+03  0.53072957953E+03  0.24802831213E+03  0.61942945395E+03  0.90098619802E+02 0.  0.
         11    1    3    3    0    0  0.18800770798E+03  0.46847943315E+03  0.21832170240E+03  0.54998567552E+03  0.00000000000E+00 0. -1.
        -11    1    3    3    0    0 -0.80545003737E+01  0.62250146386E+02  0.29706609725E+02  0.69443778431E+02  0.00000000000E+00 0.  1.
         22    1    1    2    0    0 -0.17995320760E+03 -0.53072957953E+03 -0.61638458237E+03  0.83305881959E+03  0.00000000000E+00 0. -1.
<mgrwt>
<rscale>  0 0.14050039E+04</rscale>
<asrwt>0</asrwt>
<pdfrwt beam="1">  1        1 0.14006497E+00 0.14050039E+04</pdfrwt>
<pdfrwt beam="2">  1       -1 0.83394769E-01 0.14050039E+04</pdfrwt>
<totfact> 0.24820863E+01</totfact>
</mgrwt>
</event>
<event>
 6    1  0.1585031E-006  0.1491826E+04  0.7818608E-02  0.8889907E-01
         -1   -1    0    0    0  501 -0.00000000000E+00  0.00000000000E+00  0.29798920365E+03  0.29798920365E+03  0.00000000000E+00 0.  1.
          1   -1    0    0  501    0  0.00000000000E+00 -0.00000000000E+00 -0.18671346243E+04  0.18671346243E+04  0.00000000000E+00 0. -1.
         23    2    1    2    0    0 -0.98150029119E+02 -0.73418126066E+03 -0.87384802375E+03  0.11492035447E+04  0.91667152930E+02 0.  0.
         11    1    3    3    0    0 -0.40942509101E+02 -0.38273667898E+03 -0.38492049988E+03  0.54435966576E+03  0.00000000000E+00 0. -1.
        -11    1    3    3    0    0 -0.57207520018E+02 -0.35144458168E+03 -0.48892752388E+03  0.60484387898E+03  0.00000000000E+00 0.  1.
         22    1    1    2    0    0  0.98150029119E+02  0.73418126066E+03 -0.69529739694E+03  0.10159202832E+04  0.00000000000E+00 0.  1.
<mgrwt>
<rscale>  0 0.14918257E+04</rscale>
<asrwt>0</asrwt>
<pdfrwt beam="1">  1        1 0.28725149E+00 0.14918257E+04</pdfrwt>
<pdfrwt beam="2">  1       -1 0.45844492E-01 0.14918257E+04</pdfrwt>
<totfact> 0.16798161E+01</totfact>
</mgrwt>
</event>
<event>
 6    1  0.1585031E-006  0.2812687E+04  0.7818608E-02  0.8299340E-01
         -1   -1    0    0    0  501 -0.00000000000E+00  0.00000000000E+00  0.99432380991E+03  0.99432380991E+03  0.00000000000E+00 0.  1.
          1   -1    0    0  501    0  0.00000000000E+00 -0.00000000000E+00 -0.19890926597E+04  0.19890926597E+04  0.00000000000E+00 0. -1.
         23    2    1    2    0    0  0.92210921044E+03  0.57698227765E+03  0.44535596840E+03  0.11786579161E+04  0.87741665177E+02 0.  0.
         13    1    3    3    0    0  0.57290152104E+03  0.40743657732E+03  0.28001463264E+03  0.75672248007E+03  0.00000000000E+00 0.  1.
        -13    1    3    3    0    0  0.34920768940E+03  0.16954570032E+03  0.16534133575E+03  0.42193543599E+03  0.00000000000E+00 0. -1.
         22    1    1    2    0    0 -0.92210921044E+03 -0.57698227765E+03 -0.14401248182E+04  0.18047585536E+04  0.00000000000E+00 0. -1.
<mgrwt>
<rscale>  0 0.28126871E+04</rscale>
<asrwt>0</asrwt>
<pdfrwt beam="1">  1        1 0.30601425E+00 0.28126871E+04</pdfrwt>
<pdfrwt beam="2">  1       -1 0.15297290E+00 0.28126871E+04</pdfrwt>
<totfact> 0.86712197E-01</totfact>
</mgrwt>
</event>
<event>
 6    1  0.1585031E-006  0.3649051E+04  0.7818608E-02  0.8079347E-01
          1   -1    0    0  501    0  0.00000000000E+00  0.00000000000E+00  0.32298513526E+04  0.32298513526E+04  0.00000000000E+00 0. -1.
         -1   -1    0    0    0  501 -0.00000000000E+00 -0.00000000000E+00 -0.10306648050E+04  0.10306648050E+04  0.00000000000E+00 0.  1.
         23    2    1    2    0    0  0.14801593576E+04  0.10569252703E+04  0.94983064701E+03  0.20539684203E+04  0.92979903605E+02 0.  0.
         11    1    3    3    0    0  0.23268132544E+03  0.16247202773E+03  0.11110077372E+03  0.30476407421E+03  0.00000000000E+00 0.  1.
        -11    1    3    3    0    0  0.12474780322E+04  0.89445324259E+03  0.83872987329E+03  0.17492043461E+04  0.00000000000E+00 0. -1.
         22    1    1    2    0    0 -0.14801593576E+04 -0.10569252703E+04  0.12493559006E+04  0.22065477374E+04  0.00000000000E+00 0. -1.
<mgrwt>
<rscale>  0 0.36490514E+04</rscale>
<asrwt>0</asrwt>
<pdfrwt beam="1">  1        1 0.49690020E+00 0.36490514E+04</pdfrwt>
<pdfrwt beam="2">  1       -1 0.15856382E+00 0.36490514E+04</pdfrwt>
<totfact> 0.97363872E-02</totfact>
</mgrwt>
</event>
<event>
 6    1  0.1585031E-006  0.1015908E+04  0.7818608E-02  0.9291267E-01
         -2   -1    0    0    0  501 -0.00000000000E+00  0.00000000000E+00  0.16309505172E+03  0.16309505172E+03  0.00000000000E+00 0. -1.
          2   -1    0    0  501    0  0.00000000000E+00 -0.00000000000E+00 -0.15820050439E+04  0.15820050439E+04  0.00000000000E+00 0.  1.
         23    2    1    2    0    0 -0.33544268871E+03 -0.37419050829E+03 -0.76253282330E+03  0.91843733382E+03  0.97624257488E+02 0.  0.
         11    1    3    3    0    0 -0.28989694031E+03 -0.34622933694E+03 -0.62648180558E+03  0.77226578487E+03  0.00000000000E+00 0.  1.
        -11    1    3    3    0    0 -0.45545748399E+02 -0.27961171345E+02 -0.13605101772E+03  0.14617154896E+03  0.00000000000E+00 0. -1.
         22    1    1    2    0    0  0.33544268871E+03  0.37419050829E+03 -0.65637716885E+03  0.82666276176E+03  0.00000000000E+00 0. -1.
<mgrwt>
<rscale>  0 0.10159079E+04</rscale>
<asrwt>0</asrwt>
<pdfrwt beam="1">  1        2 0.24338540E+00 0.10159079E+04</pdfrwt>
<pdfrwt beam="2">  1       -2 0.25091545E-01 0.10159079E+04</pdfrwt>
<totfact> 0.16218991E+02</totfact>
</mgrwt>
</event>
<event>
 6    1  0.1585031E-006  0.2028971E+04  0.7818608E-02  0.8593194E-01
         -1   -1    0    0    0  501 -0.00000000000E+00  0.00000000000E+00  0.77295839872E+03  0.77295839872E+03  0.00000000000E+00 0.  1.
          1   -1    0    0  501    0  0.00000000000E+00 -0.00000000000E+00 -0.13314830234E+04  0.13314830234E+04  0.00000000000E+00 0. -1.
         23    2    1    2    0    0  0.93911534762E+03 -0.30713517327E+03 -0.50575085354E+02  0.99345880062E+03  0.90182584027E+02 0.  0.
         13    1    3    3    0    0  0.41373442596E+03 -0.15032162777E+03  0.20003628530E+02  0.44065055560E+03  0.00000000000E+00 0. -1.
        -13    1    3    3    0    0  0.52538092166E+03 -0.15681354551E+03 -0.70578713884E+02  0.55280824501E+03  0.00000000000E+00 0.  1.
         22    1    1    2    0    0 -0.93911534762E+03  0.30713517327E+03 -0.50794953933E+03  0.11109826215E+04  0.00000000000E+00 0. -1.
<mgrwt>
<rscale>  0 0.20289712E+04</rscale>
<asrwt>0</asrwt>
<pdfrwt beam="1">  1        1 0.20484354E+00 0.20289712E+04</pdfrwt>
<pdfrwt beam="2">  1       -1 0.11891668E+00 0.20289712E+04</pdfrwt>
<totfact> 0.50314852E+00</totfact>
</mgrwt>
</event>
<event>
 6    1  0.1585031E-006  0.2267515E+04  0.7818608E-02  0.8490841E-01
          1   -1    0    0  501    0  0.00000000000E+00  0.00000000000E+00  0.72326272532E+03  0.72326272532E+03  0.00000000000E+00 0. -1.
         -1   -1    0    0    0  501 -0.00000000000E+00 -0.00000000000E+00 -0.17772328958E+04  0.17772328958E+04  0.00000000000E+00 0.  1.
         23    2    1    2    0    0  0.46015008521E+01  0.13984439429E+03 -0.17664859556E+04  0.17743714082E+04  0.91343495872E+02 0.  0.
         13    1    3    3    0    0  0.16013445330E+02  0.70216504516E+02 -0.13524807838E+04  0.13543969354E+04  0.00000000000E+00 0. -1.
        -13    1    3    3    0    0 -0.11411944478E+02  0.69627889769E+02 -0.41400517181E+03  0.41997447279E+03  0.00000000000E+00 0.  1.
         22    1    1    2    0    0 -0.46015008521E+01 -0.13984439429E+03  0.71251578520E+03  0.72612421291E+03  0.00000000000E+00 0. -1.
<mgrwt>
<rscale>  0 0.22675152E+04</rscale>
<asrwt>0</asrwt>
<pdfrwt beam="1">  1        1 0.11127119E+00 0.22675152E+04</pdfrwt>
<pdfrwt beam="2">  1       -1 0.27342044E+00 0.22675152E+04</pdfrwt>
<totfact> 0.11532392E+00</totfact>
</mgrwt>
</event>
<event>
 6    1  0.1585031E-006  0.1044194E+04  0.7818608E-02  0.9261359E-01
         -1   -1    0    0    0  501 -0.00000000000E+00  0.00000000000E+00  0.76130011929E+03  0.76130011929E+03  0.00000000000E+00 0.  1.
          1   -1    0    0  501    0  0.00000000000E+00 -0.00000000000E+00 -0.35805246739E+03  0.35805246739E+03  0.00000000000E+00 0. -1.
         23    2    1    2    0    0 -0.32864690805E+03 -0.99984211308E+01  0.63217919954E+03  0.71870509561E+03  0.93689463254E+02 0.  0.
         13    1    3    3    0    0 -0.12116780893E+03  0.25413472948E+02  0.31063774270E+03  0.33439989491E+03  0.00000000000E+00 0. -1.
        -13    1    3    3    0    0 -0.20747909912E+03 -0.35411894079E+02  0.32154145684E+03  0.38430520070E+03  0.00000000000E+00 0.  1.
         22    1    1    2    0    0  0.32864690805E+03  0.99984211308E+01 -0.22893154764E+03  0.40064749107E+03  0.00000000000E+00 0. -1.
<mgrwt>
<rscale>  0 0.10441942E+04</rscale>
<asrwt>0</asrwt>
<pdfrwt beam="1">  1        1 0.55084995E-01 0.10441942E+04</pdfrwt>
<pdfrwt beam="2">  1       -1 0.11712309E+00 0.10441942E+04</pdfrwt>
<totfact> 0.45666284E+01</totfact>
</mgrwt>
</event>
